<event>
 7    1  0.2751796E-010  0.4778729E+02  0.7816164E-02  0.1312668E+00
        -11   -1    0    0    0    0  0.00000000000E+00  0.00000000000E+00  0.45593999997E+02  0.45594000000E+02  0.51100000000E-03 0.  1.
         11   -1    0    0    0    0 -0.00000000000E+00 -0.00000000000E+00 -0.45593999997E+02  0.45594000000E+02  0.51100000000E-03 0. -1.
    9900012    2    1    2    0    0 -0.40039582338E+02  0.40749974761E+01  0.16243386855E+02  0.47787292924E+02  0.20000099756E+02 0.  0.
         12    1    1    2    0    0  0.40039582338E+02 -0.40749974761E+01 -0.16243386855E+02  0.43400707076E+02  0.00000000000E+00 0. -1.
         11    1    3    3    0    0 -0.28456076977E+02  0.10132203792E+02  0.14688947231E+02  0.33588317041E+02  0.51100000000E-03 0. -1.
        -11    1    3    3    0    0 -0.24809740779E+01 -0.37362059239E+01  0.17208347958E+01  0.48037214466E+01  0.51100000000E-03 0.  1.
         12    1    3    3    0    0 -0.91025312826E+01 -0.23210003923E+01 -0.16639517209E+00  0.93952544364E+01  0.00000000000E+00 0. -1.
</event>
<event>
 7    1  0.2751796E-010  0.4778727E+02  0.7816164E-02  0.1312668E+00
        -11   -1    0    0    0    0  0.00000000000E+00  0.00000000000E+00  0.45593999997E+02  0.45594000000E+02  0.51100000000E-03 0.  1.
         11   -1    0    0    0    0 -0.00000000000E+00 -0.00000000000E+00 -0.45593999997E+02  0.45594000000E+02  0.51100000000E-03 0. -1.
    9900012    2    1    2    0    0  0.10498842571E+02 -0.29421641994E+02  0.30129134484E+02  0.47787268927E+02  0.19999990344E+02 0.  0.
         12    1    1    2    0    0 -0.10498842571E+02  0.29421641994E+02 -0.30129134484E+02  0.43400731073E+02  0.00000000000E+00 0. -1.
         11    1    3    3    0    0  0.97753492366E+01 -0.10276019647E+02  0.43433922808E+01  0.14833040459E+02  0.51100000000E-03 0. -1.
        -11    1    3    3    0    0  0.36881652378E+01 -0.63009043471E+01  0.82594119406E+01  0.11023694675E+02  0.51100000000E-03 0.  1.
         12    1    3    3    0    0 -0.29646719031E+01 -0.12844718000E+02  0.17526330262E+02  0.21930533793E+02  0.00000000000E+00 0. -1.
</event>
<event>
 7    1  0.2751796E-010  0.4778727E+02  0.7816164E-02  0.1312668E+00
        -11   -1    0    0    0    0  0.00000000000E+00  0.00000000000E+00  0.45593999997E+02  0.45594000000E+02  0.51100000000E-03 0.  1.
         11   -1    0    0    0    0 -0.00000000000E+00 -0.00000000000E+00 -0.45593999997E+02  0.45594000000E+02  0.51100000000E-03 0. -1.
    9900012    2    1    2    0    0 -0.23340465201E+02  0.35161559791E+02  0.10124754125E+02  0.47787271333E+02  0.20000001316E+02 0.  0.
         12    1    1    2    0    0  0.23340465201E+02 -0.35161559791E+02 -0.10124754125E+02  0.43400728667E+02  0.00000000000E+00 0. -1.
         11    1    3    3    0    0 -0.10216430970E+02  0.10908607054E+02  0.10820181016E+02  0.18451273319E+02  0.51100000000E-03 0. -1.
        -11    1    3    3    0    0 -0.61555072533E+01  0.79166122350E+01  0.42625280426E+01  0.10896428975E+02  0.51100000000E-03 0.  1.
         12    1    3    3    0    0 -0.69685269778E+01  0.16336340502E+02 -0.49579549337E+01  0.18439569039E+02  0.00000000000E+00 0. -1.
</event>
<event>
 7    1  0.2751796E-010  0.4778727E+02  0.7816164E-02  0.1312668E+00
        -11   -1    0    0    0    0  0.00000000000E+00  0.00000000000E+00  0.45593999997E+02  0.45594000000E+02  0.51100000000E-03 0.  1.
         11   -1    0    0    0    0 -0.00000000000E+00 -0.00000000000E+00 -0.45593999997E+02  0.45594000000E+02  0.51100000000E-03 0. -1.
    9900012    2    1    2    0    0 -0.38535261043E+02  0.13027365220E+02  0.15130919774E+02  0.47787270497E+02  0.19999997503E+02 0.  0.
         12    1    1    2    0    0  0.38535261043E+02 -0.13027365220E+02 -0.15130919774E+02  0.43400729503E+02  0.00000000000E+00 0. -1.
         11    1    3    3    0    0 -0.91877440651E+01  0.46662940481E+01 -0.42287708920E+01  0.11138736224E+02  0.51100000000E-03 0. -1.
        -11    1    3    3    0    0 -0.21943359646E+02  0.80046176148E+01  0.12240069263E+02  0.26370518227E+02  0.51100000000E-03 0.  1.
         12    1    3    3    0    0 -0.74041573318E+01  0.35645355661E+00  0.71196214024E+01  0.10278016046E+02  0.00000000000E+00 0. -1.
</event>
<event>
 7    1  0.2751796E-010  0.4778727E+02  0.7816164E-02  0.1312668E+00
        -11   -1    0    0    0    0  0.00000000000E+00  0.00000000000E+00  0.45593999997E+02  0.45594000000E+02  0.51100000000E-03 0.  1.
         11   -1    0    0    0    0 -0.00000000000E+00 -0.00000000000E+00 -0.45593999997E+02  0.45594000000E+02  0.51100000000E-03 0. -1.
    9900012    2    1    2    0    0  0.25324851269E+02 -0.16204182450E+02  0.31300160355E+02  0.47787266609E+02  0.19999979777E+02 0.  0.
         12    1    1    2    0    0 -0.25324851269E+02  0.16204182450E+02 -0.31300160355E+02  0.43400733391E+02  0.00000000000E+00 0. -1.
         11    1    3    3    0    0  0.13990532621E+02 -0.13262187629E+02  0.86615048056E+01  0.21133913256E+02  0.51100000000E-03 0. -1.
        -11    1    3    3    0    0  0.23566749434E+01 -0.42435142946E+01  0.97613970313E+01  0.10901660544E+02  0.51100000000E-03 0.  1.
         12    1    3    3    0    0  0.89776437041E+01  0.13015194744E+01  0.12877258518E+02  0.15751692809E+02  0.00000000000E+00 0. -1.
</event>
<event>
 7    1  0.2751796E-010  0.4778727E+02  0.7816164E-02  0.1312668E+00
        -11   -1    0    0    0    0  0.00000000000E+00  0.00000000000E+00  0.45593999997E+02  0.45594000000E+02  0.51100000000E-03 0. -1.
         11   -1    0    0    0    0 -0.00000000000E+00 -0.00000000000E+00 -0.45593999997E+02  0.45594000000E+02  0.51100000000E-03 0.  1.
    9900012    2    1    2    0    0 -0.32803313891E+02  0.25477638135E+02  0.12587922533E+02  0.47787271425E+02  0.20000001735E+02 0.  0.
         12    1    1    2    0    0  0.32803313891E+02 -0.25477638135E+02 -0.12587922533E+02  0.43400728575E+02  0.00000000000E+00 0. -1.
         11    1    3    3    0    0 -0.43469929423E+01  0.26647694966E+01 -0.11970169198E+01  0.52373842591E+01  0.51100000000E-03 0. -1.
        -11    1    3    3    0    0 -0.13367953100E+02  0.39349069066E+01 -0.14049990135E+01  0.14005701872E+02  0.51100000000E-03 0.  1.
        -12    1    3    3    0    0 -0.15088367849E+02  0.18877961732E+02  0.15189938466E+02  0.28544185294E+02  0.00000000000E+00 0.  1.
</event>
<event>
 7    1  0.2751796E-010  0.4778728E+02  0.7816164E-02  0.1312668E+00
        -11   -1    0    0    0    0  0.00000000000E+00  0.00000000000E+00  0.45593999997E+02  0.45594000000E+02  0.51100000000E-03 0.  1.
         11   -1    0    0    0    0 -0.00000000000E+00 -0.00000000000E+00 -0.45593999997E+02  0.45594000000E+02  0.51100000000E-03 0. -1.
    9900012    2    1    2    0    0  0.28886888040E+02 -0.22273486847E+02  0.23517270738E+02  0.47787279500E+02  0.20000038552E+02 0.  0.
         12    1    1    2    0    0 -0.28886888040E+02  0.22273486847E+02 -0.23517270738E+02  0.43400720500E+02  0.00000000000E+00 0. -1.
         11    1    3    3    0    0  0.17167042888E+02 -0.10111848631E+02  0.45239985811E+01  0.20430942408E+02  0.51100000000E-03 0. -1.
        -11    1    3    3    0    0  0.61682945082E+01 -0.48493591110E+01  0.20886603209E+01  0.81195223459E+01  0.51100000000E-03 0.  1.
         12    1    3    3    0    0  0.55515506443E+01 -0.73122791045E+01  0.16904611836E+02  0.19236814746E+02  0.00000000000E+00 0. -1.
</event>
<event>
 7    1  0.2751796E-010  0.4778729E+02  0.7816164E-02  0.1312668E+00
        -11   -1    0    0    0    0  0.00000000000E+00  0.00000000000E+00  0.45593999997E+02  0.45594000000E+02  0.51100000000E-03 0. -1.
         11   -1    0    0    0    0 -0.00000000000E+00 -0.00000000000E+00 -0.45593999997E+02  0.45594000000E+02  0.51100000000E-03 0.  1.
    9900012    2    1    2    0    0 -0.29145995767E+02 -0.26348907369E+02 -0.18435507401E+02  0.47787286619E+02  0.20000071011E+02 0.  0.
         12    1    1    2    0    0  0.29145995767E+02  0.26348907369E+02  0.18435507401E+02  0.43400713381E+02  0.00000000000E+00 0. -1.
         11    1    3    3    0    0 -0.12912795514E+01 -0.27710544096E+01 -0.22812736464E+01  0.38144927751E+01  0.51100000000E-03 0. -1.
        -11    1    3    3    0    0 -0.26155834487E+02 -0.14680074354E+02 -0.64152741981E+01  0.30672267670E+02  0.51100000000E-03 0.  1.
        -12    1    3    3    0    0 -0.16988817290E+01 -0.88977786057E+01 -0.97389595567E+01  0.13300526174E+02  0.00000000000E+00 0.  1.
</event>
<event>
 7    1  0.2751796E-010  0.4778727E+02  0.7816164E-02  0.1312668E+00
        -11   -1    0    0    0    0  0.00000000000E+00  0.00000000000E+00  0.45593999997E+02  0.45594000000E+02  0.51100000000E-03 0.  1.
         11   -1    0    0    0    0 -0.00000000000E+00 -0.00000000000E+00 -0.45593999997E+02  0.45594000000E+02  0.51100000000E-03 0. -1.
    9900012    2    1    2    0    0 -0.78292237845E+00  0.42097852675E+02  0.10525265143E+02  0.47787269895E+02  0.19999994760E+02 0.  0.
         12    1    1    2    0    0  0.78292237845E+00 -0.42097852675E+02 -0.10525265143E+02  0.43400730105E+02  0.00000000000E+00 0. -1.
         11    1    3    3    0    0 -0.23215679492E+01  0.14944899301E+02 -0.12055905381E+01  0.15172117244E+02  0.51100000000E-03 0. -1.
        -11    1    3    3    0    0  0.20474779905E+01  0.28714098723E+02  0.11208281684E+02  0.30892025025E+02  0.51100000000E-03 0.  1.
        -12    1    3    3    0    0 -0.50883241975E+00 -0.15611453490E+01  0.52257399750E+00  0.17231276258E+01  0.00000000000E+00 0.  1.
</event>
<event>
 7    1  0.2751796E-010  0.4778732E+02  0.7816164E-02  0.1312668E+00
        -11   -1    0    0    0    0  0.00000000000E+00  0.00000000000E+00  0.45593999997E+02  0.45594000000E+02  0.51100000000E-03 0.  1.
         11   -1    0    0    0    0 -0.00000000000E+00 -0.00000000000E+00 -0.45593999997E+02  0.45594000000E+02  0.51100000000E-03 0. -1.
    9900012    2    1    2    0    0 -0.24057668712E+02 -0.47599759190E+01  0.35807686624E+02  0.47787317794E+02  0.20000213147E+02 0.  0.
         12    1    1    2    0    0  0.24057668712E+02  0.47599759190E+01 -0.35807686624E+02  0.43400682206E+02  0.00000000000E+00 0. -1.
         11    1    3    3    0    0 -0.92828686585E+01  0.31587568634E+01  0.37700087527E+01  0.10505349195E+02  0.51100000000E-03 0. -1.
        -11    1    3    3    0    0 -0.45146282174E+01 -0.75317553709E+01  0.13966803640E+02  0.16497903233E+02  0.51100000000E-03 0.  1.
         12    1    3    3    0    0 -0.10260171836E+02 -0.38697741150E+00  0.18070874231E+02  0.20784065365E+02  0.00000000000E+00 0. -1.
</event>
<event>
 7    1  0.2751796E-010  0.4778728E+02  0.7816164E-02  0.1312668E+00
        -11   -1    0    0    0    0  0.00000000000E+00  0.00000000000E+00  0.45593999997E+02  0.45594000000E+02  0.51100000000E-03 0.  1.
         11   -1    0    0    0    0 -0.00000000000E+00 -0.00000000000E+00 -0.45593999997E+02  0.45594000000E+02  0.51100000000E-03 0. -1.
    9900012    2    1    2    0    0  0.16655980577E+02  0.36029108868E+02 -0.17552904785E+02  0.47787276029E+02  0.20000022727E+02 0.  0.
         12    1    1    2    0    0 -0.16655980577E+02 -0.36029108868E+02  0.17552904785E+02  0.43400723971E+02  0.00000000000E+00 0. -1.
         11    1    3    3    0    0  0.13399011009E+02  0.16294204572E+02 -0.14006116686E+02  0.25322043826E+02  0.51100000000E-03 0. -1.
        -11    1    3    3    0    0  0.34994838065E+01  0.92042647066E+01 -0.61566155098E+01  0.11613302308E+02  0.51100000000E-03 0.  1.
         12    1    3    3    0    0 -0.24251423933E+00  0.10530639590E+02  0.26098274106E+01  0.10851929895E+02  0.00000000000E+00 0. -1.
</event>
<event>
 7    1  0.2751796E-010  0.4778728E+02  0.7816164E-02  0.1312668E+00
        -11   -1    0    0    0    0  0.00000000000E+00  0.00000000000E+00  0.45593999997E+02  0.45594000000E+02  0.51100000000E-03 0.  1.
         11   -1    0    0    0    0 -0.00000000000E+00 -0.00000000000E+00 -0.45593999997E+02  0.45594000000E+02  0.51100000000E-03 0. -1.
    9900012    2    1    2    0    0  0.22722995220E+02  0.20046145441E+02  0.31071528278E+02  0.47787281937E+02  0.20000049665E+02 0.  0.
         12    1    1    2    0    0 -0.22722995220E+02 -0.20046145441E+02 -0.31071528278E+02  0.43400718063E+02  0.00000000000E+00 0. -1.
         11    1    3    3    0    0 -0.15799331812E+01  0.46399401796E+01  0.11924878930E+02  0.12892942701E+02  0.51100000000E-03 0. -1.
        -11    1    3    3    0    0  0.20611289564E+02  0.11206424987E+02  0.14164597742E+02  0.27405201111E+02  0.51100000000E-03 0.  1.
        -12    1    3    3    0    0  0.36916388369E+01  0.41997802744E+01  0.49820516061E+01  0.74891381254E+01  0.00000000000E+00 0.  1.
</event>
<event>
 7    1  0.2751796E-010  0.4778727E+02  0.7816164E-02  0.1312668E+00
        -11   -1    0    0    0    0  0.00000000000E+00  0.00000000000E+00  0.45593999997E+02  0.45594000000E+02  0.51100000000E-03 0. -1.
         11   -1    0    0    0    0 -0.00000000000E+00 -0.00000000000E+00 -0.45593999997E+02  0.45594000000E+02  0.51100000000E-03 0.  1.
    9900012    2    1    2    0    0  0.27294238105E+02 -0.12853531556E+02 -0.31199913900E+02  0.47787270346E+02  0.19999996814E+02 0.  0.
         12    1    1    2    0    0 -0.27294238105E+02  0.12853531556E+02  0.31199913900E+02  0.43400729654E+02  0.00000000000E+00 0. -1.
         11    1    3    3    0    0  0.96259962528E+01 -0.60199715783E+01 -0.98956970345E+00  0.11396451646E+02  0.51100000000E-03 0. -1.
        -11    1    3    3    0    0  0.13337738379E+02 -0.75381017314E+01 -0.19371402870E+02  0.24697560450E+02  0.51100000000E-03 0.  1.
         12    1    3    3    0    0  0.43305034728E+01  0.70454175380E+00 -0.10838941326E+02  0.11693258249E+02  0.00000000000E+00 0. -1.
</event>
<event>
 7    1  0.2751796E-010  0.4778727E+02  0.7816164E-02  0.1312668E+00
        -11   -1    0    0    0    0  0.00000000000E+00  0.00000000000E+00  0.45593999997E+02  0.45594000000E+02  0.51100000000E-03 0.  1.
         11   -1    0    0    0    0 -0.00000000000E+00 -0.00000000000E+00 -0.45593999997E+02  0.45594000000E+02  0.51100000000E-03 0. -1.
    9900012    2    1    2    0    0 -0.31102820975E+02  0.28001828871E+02  0.11495014160E+02  0.47787271397E+02  0.20000001608E+02 0.  0.
         12    1    1    2    0    0  0.31102820975E+02 -0.28001828871E+02 -0.11495014160E+02  0.43400728603E+02  0.00000000000E+00 0. -1.
         11    1    3    3    0    0 -0.66714155924E+01  0.11587002229E+02  0.37918797364E+01  0.13897652998E+02  0.51100000000E-03 0. -1.
        -11    1    3    3    0    0 -0.40495782513E+01  0.51629957706E+01 -0.41506565725E+01  0.77642488101E+01  0.51100000000E-03 0.  1.
        -12    1    3    3    0    0 -0.20381827131E+02  0.11251830871E+02  0.11853790996E+02  0.26125369589E+02  0.00000000000E+00 0.  1.
</event>
<event>
 7    1  0.2751796E-010  0.4778727E+02  0.7816164E-02  0.1312668E+00
        -11   -1    0    0    0    0  0.00000000000E+00  0.00000000000E+00  0.45593999997E+02  0.45594000000E+02  0.51100000000E-03 0.  1.
         11   -1    0    0    0    0 -0.00000000000E+00 -0.00000000000E+00 -0.45593999997E+02  0.45594000000E+02  0.51100000000E-03 0. -1.
    9900012    2    1    2    0    0  0.37186616857E+02 -0.18231891842E+02  0.12976000391E+02  0.47787274896E+02  0.20000017562E+02 0.  0.
         12    1    1    2    0    0 -0.37186616857E+02  0.18231891842E+02 -0.12976000391E+02  0.43400725104E+02  0.00000000000E+00 0. -1.
         11    1    3    3    0    0  0.55326550922E+01 -0.14540128545E+01  0.94700580385E+01  0.11063743727E+02  0.51100000000E-03 0.  1.
        -11    1    3    3    0    0  0.49098489882E+01 -0.34028394592E+01 -0.20378748420E+01  0.63118038313E+01  0.51100000000E-03 0. -1.
         12    1    3    3    0    0  0.26744112776E+02 -0.13375039528E+02  0.55438171947E+01  0.30411727338E+02  0.00000000000E+00 0. -1.
</event>
<event>
 7    1  0.2751796E-010  0.4778726E+02  0.7816164E-02  0.1312668E+00
        -11   -1    0    0    0    0  0.00000000000E+00  0.00000000000E+00  0.45593999997E+02  0.45594000000E+02  0.51100000000E-03 0.  1.
         11   -1    0    0    0    0 -0.00000000000E+00 -0.00000000000E+00 -0.45593999997E+02  0.45594000000E+02  0.51100000000E-03 0. -1.
    9900012    2    1    2    0    0 -0.20832925603E+02 -0.30253810733E+02 -0.23115363120E+02  0.47787264232E+02  0.19999968939E+02 0.  0.
         12    1    1    2    0    0  0.20832925603E+02  0.30253810733E+02  0.23115363120E+02  0.43400735768E+02  0.00000000000E+00 0. -1.
         11    1    3    3    0    0 -0.73779747507E+01 -0.22696954038E+02 -0.64040099753E+01  0.24710272723E+02  0.51100000000E-03 0. -1.
        -11    1    3    3    0    0 -0.11497078190E+02 -0.78248654012E+01 -0.14128481839E+02  0.19824866325E+02  0.51100000000E-03 0.  1.
        -12    1    3    3    0    0 -0.19578726619E+01  0.26800870701E+00 -0.25828713062E+01  0.32521251838E+01  0.00000000000E+00 0.  1.
</event>
<event>
 7    1  0.2751796E-010  0.4778727E+02  0.7816164E-02  0.1312668E+00
        -11   -1    0    0    0    0  0.00000000000E+00  0.00000000000E+00  0.45593999997E+02  0.45594000000E+02  0.51100000000E-03 0.  1.
         11   -1    0    0    0    0 -0.00000000000E+00 -0.00000000000E+00 -0.45593999997E+02  0.45594000000E+02  0.51100000000E-03 0. -1.
    9900012    2    1    2    0    0  0.18302987340E+02 -0.35794854138E+02  0.16350906478E+02  0.47787273382E+02  0.20000010658E+02 0.  0.
         12    1    1    2    0    0 -0.18302987340E+02  0.35794854138E+02 -0.16350906478E+02  0.43400726618E+02  0.00000000000E+00 0. -1.
         11    1    3    3    0    0  0.61401725215E+01 -0.95695050845E+00  0.30449480910E+01  0.69202010092E+01  0.51100000000E-03 0. -1.
        -11    1    3    3    0    0  0.91128180332E+01 -0.33987329035E+02  0.13514542520E+02  0.37693830360E+02  0.51100000000E-03 0.  1.
        -12    1    3    3    0    0  0.30499967853E+01 -0.85057459458E+00 -0.20858413283E+00  0.31732420128E+01  0.00000000000E+00 0.  1.
</event>
<event>
 7    1  0.2751796E-010  0.4778726E+02  0.7816164E-02  0.1312668E+00
        -11   -1    0    0    0    0  0.00000000000E+00  0.00000000000E+00  0.45593999997E+02  0.45594000000E+02  0.51100000000E-03 0.  1.
         11   -1    0    0    0    0 -0.00000000000E+00 -0.00000000000E+00 -0.45593999997E+02  0.45594000000E+02  0.51100000000E-03 0. -1.
    9900012    2    1    2    0    0  0.27807437973E+01  0.22393356820E+02  0.37073298174E+02  0.47787258033E+02  0.19999940676E+02 0.  0.
         12    1    1    2    0    0 -0.27807437973E+01 -0.22393356820E+02 -0.37073298174E+02  0.43400741967E+02  0.00000000000E+00 0. -1.
         11    1    3    3    0    0 -0.25315386451E+01  0.35587787411E+01  0.63737865661E+00  0.44135978354E+01  0.51100000000E-03 0. -1.
        -11    1    3    3    0    0  0.95212280641E+01  0.15100748658E+02  0.28899886694E+02  0.33968954136E+02  0.51100000000E-03 0.  1.
         12    1    3    3    0    0 -0.42089456217E+01  0.37338294214E+01  0.75360328238E+01  0.94047060622E+01  0.00000000000E+00 0. -1.
</event>
<event>
 7    1  0.2751796E-010  0.4778727E+02  0.7816164E-02  0.1312668E+00
        -11   -1    0    0    0    0  0.00000000000E+00  0.00000000000E+00  0.45593999997E+02  0.45594000000E+02  0.51100000000E-03 0.  1.
         11   -1    0    0    0    0 -0.00000000000E+00 -0.00000000000E+00 -0.45593999997E+02  0.45594000000E+02  0.51100000000E-03 0. -1.
    9900012    2    1    2    0    0  0.14115597763E+02 -0.28911761275E+02  0.29128732543E+02  0.47787273050E+02  0.20000009146E+02 0.  0.
         12    1    1    2    0    0 -0.14115597763E+02  0.28911761275E+02 -0.29128732543E+02  0.43400726950E+02  0.00000000000E+00 0. -1.
         11    1    3    3    0    0  0.11063215472E+02 -0.63976425706E+01  0.87303723693E+01  0.15477208049E+02  0.51100000000E-03 0. -1.
        -11    1    3    3    0    0 -0.88772957783E+00 -0.15562679908E+02  0.78994254143E+01  0.17475296618E+02  0.51100000000E-03 0.  1.
        -12    1    3    3    0    0  0.39401118688E+01 -0.69514387956E+01  0.12498934759E+02  0.14834768383E+02  0.00000000000E+00 0.  1.
</event>
<event>
 7    1  0.2751796E-010  0.4778728E+02  0.7816164E-02  0.1312668E+00
        -11   -1    0    0    0    0  0.00000000000E+00  0.00000000000E+00  0.45593999997E+02  0.45594000000E+02  0.51100000000E-03 0. -1.
         11   -1    0    0    0    0 -0.00000000000E+00 -0.00000000000E+00 -0.45593999997E+02  0.45594000000E+02  0.51100000000E-03 0.  1.
    9900012    2    1    2    0    0 -0.40527141788E+02 -0.15073947652E+02  0.37349430073E+01  0.47787275137E+02  0.20000018661E+02 0.  0.
         12    1    1    2    0    0  0.40527141788E+02  0.15073947652E+02 -0.37349430073E+01  0.43400724863E+02  0.00000000000E+00 0. -1.
         11    1    3    3    0    0 -0.19100462815E+02 -0.14599578669E+02 -0.64851936990E+00  0.24049863923E+02  0.51100000000E-03 0. -1.
        -11    1    3    3    0    0 -0.55087476253E+01  0.11941916543E+01 -0.26818539825E+01  0.62421739122E+01  0.51100000000E-03 0.  1.
         12    1    3    3    0    0 -0.15917931348E+02 -0.16685606366E+01  0.70653163596E+01  0.17495237302E+02  0.00000000000E+00 0. -1.
</event>
<event>
 7    1  0.2751796E-010  0.4778727E+02  0.7816164E-02  0.1312668E+00
        -11   -1    0    0    0    0  0.00000000000E+00  0.00000000000E+00  0.45593999997E+02  0.45594000000E+02  0.51100000000E-03 0.  1.
         11   -1    0    0    0    0 -0.00000000000E+00 -0.00000000000E+00 -0.45593999997E+02  0.45594000000E+02  0.51100000000E-03 0. -1.
    9900012    2    1    2    0    0 -0.21756253176E+02 -0.17847984788E+02  0.33041465764E+02  0.47787267597E+02  0.19999984283E+02 0.  0.
         12    1    1    2    0    0  0.21756253176E+02  0.17847984788E+02 -0.33041465764E+02  0.43400732403E+02  0.00000000000E+00 0. -1.
         11    1    3    3    0    0 -0.17694014931E+02 -0.15442890745E+02  0.14009888253E+02  0.27346626996E+02  0.51100000000E-03 0. -1.
        -11    1    3    3    0    0 -0.20392838644E+01 -0.38080803339E+01  0.15789814757E+02  0.16370045963E+02  0.51100000000E-03 0.  1.
         12    1    3    3    0    0 -0.20229543799E+01  0.14029862902E+01  0.32417627544E+01  0.40705946383E+01  0.00000000000E+00 0. -1.
</event>
<event>
 7    1  0.2751796E-010  0.4778728E+02  0.7816164E-02  0.1312668E+00
        -11   -1    0    0    0    0  0.00000000000E+00  0.00000000000E+00  0.45593999997E+02  0.45594000000E+02  0.51100000000E-03 0. -1.
         11   -1    0    0    0    0 -0.00000000000E+00 -0.00000000000E+00 -0.45593999997E+02  0.45594000000E+02  0.51100000000E-03 0.  1.
    9900012    2    1    2    0    0 -0.31119878758E+02 -0.91573231811E+01 -0.28832605828E+02  0.47787279032E+02  0.20000036416E+02 0.  0.
         12    1    1    2    0    0  0.31119878758E+02  0.91573231811E+01  0.28832605828E+02  0.43400720968E+02  0.00000000000E+00 0. -1.
         11    1    3    3    0    0 -0.62956034517E+01  0.59653045466E+01 -0.62235835054E+01  0.10674852367E+02  0.51100000000E-03 0. -1.
        -11    1    3    3    0    0 -0.19611786320E+02 -0.12606466081E+02 -0.20182627588E+02  0.30836400671E+02  0.51100000000E-03 0.  1.
         12    1    3    3    0    0 -0.52124889860E+01 -0.25161616466E+01 -0.24263947348E+01  0.62760259934E+01  0.00000000000E+00 0. -1.
</event>
<event>
 7    1  0.2751796E-010  0.4778728E+02  0.7816164E-02  0.1312668E+00
        -11   -1    0    0    0    0  0.00000000000E+00  0.00000000000E+00  0.45593999997E+02  0.45594000000E+02  0.51100000000E-03 0. -1.
         11   -1    0    0    0    0 -0.00000000000E+00 -0.00000000000E+00 -0.45593999997E+02  0.45594000000E+02  0.51100000000E-03 0.  1.
    9900012    2    1    2    0    0 -0.36871010999E+02 -0.26773459603E+01 -0.22737266576E+02  0.47787275065E+02  0.20000018332E+02 0.  0.
         12    1    1    2    0    0  0.36871010999E+02  0.26773459603E+01  0.22737266576E+02  0.43400724935E+02  0.00000000000E+00 0. -1.
         11    1    3    3    0    0 -0.28808413153E+02  0.40399855182E+01 -0.19294833103E+02  0.34907545547E+02  0.51100000000E-03 0. -1.
        -11    1    3    3    0    0 -0.64058382368E+01 -0.80443757166E+01 -0.27129429267E+01  0.10635168253E+02  0.51100000000E-03 0.  1.
         12    1    3    3    0    0 -0.16567596096E+01  0.13270442381E+01 -0.72949054633E+00  0.22445612647E+01  0.00000000000E+00 0. -1.
</event>
<event>
 7    1  0.2751796E-010  0.4778727E+02  0.7816164E-02  0.1312668E+00
        -11   -1    0    0    0    0  0.00000000000E+00  0.00000000000E+00  0.45593999997E+02  0.45594000000E+02  0.51100000000E-03 0.  1.
         11   -1    0    0    0    0 -0.00000000000E+00 -0.00000000000E+00 -0.45593999997E+02  0.45594000000E+02  0.51100000000E-03 0. -1.
    9900012    2    1    2    0    0  0.51419018287E+01  0.39897592020E+02  0.16290078156E+02  0.47787266715E+02  0.19999980259E+02 0.  0.
         12    1    1    2    0    0 -0.51419018287E+01 -0.39897592020E+02 -0.16290078156E+02  0.43400733285E+02  0.00000000000E+00 0. -1.
         11    1    3    3    0    0  0.10493556334E+01  0.28819009443E+02  0.16708208415E+02  0.33328676559E+02  0.51100000000E-03 0. -1.
        -11    1    3    3    0    0  0.11566295282E+01  0.14541150598E+01  0.32540577351E+01  0.37471501808E+01  0.51100000000E-03 0.  1.
         12    1    3    3    0    0  0.29359166670E+01  0.96244675170E+01 -0.36721879942E+01  0.10711439974E+02  0.00000000000E+00 0. -1.
</event>
<event>
 7    1  0.2751796E-010  0.4778727E+02  0.7816164E-02  0.1312668E+00
        -11   -1    0    0    0    0  0.00000000000E+00  0.00000000000E+00  0.45593999997E+02  0.45594000000E+02  0.51100000000E-03 0. -1.
         11   -1    0    0    0    0 -0.00000000000E+00 -0.00000000000E+00 -0.45593999997E+02  0.45594000000E+02  0.51100000000E-03 0.  1.
    9900012    2    1    2    0    0 -0.42425452124E+02 -0.61484893851E+01 -0.67749706104E+01  0.47787272628E+02  0.20000007220E+02 0.  0.
         12    1    1    2    0    0  0.42425452124E+02  0.61484893851E+01  0.67749706104E+01  0.43400727372E+02  0.00000000000E+00 0. -1.
         11    1    3    3    0    0 -0.23517276637E+02 -0.10177018489E+02 -0.56723090718E+01  0.26245172817E+02  0.51100000000E-03 0. -1.
        -11    1    3    3    0    0 -0.14283200579E+02 -0.13992489006E+01 -0.18912086553E+00  0.14352821438E+02  0.51100000000E-03 0.  1.
         12    1    3    3    0    0 -0.46249749075E+01  0.54277780041E+01 -0.91354067310E+00  0.71892783726E+01  0.00000000000E+00 0. -1.
</event>
<event>
 7    1  0.2751796E-010  0.4778727E+02  0.7816164E-02  0.1312668E+00
        -11   -1    0    0    0    0  0.00000000000E+00  0.00000000000E+00  0.45593999997E+02  0.45594000000E+02  0.51100000000E-03 0.  1.
         11   -1    0    0    0    0 -0.00000000000E+00 -0.00000000000E+00 -0.45593999997E+02  0.45594000000E+02  0.51100000000E-03 0. -1.
    9900012    2    1    2    0    0  0.17646753611E+02 -0.15099303375E+02  0.36663694465E+02  0.47787269969E+02  0.19999995098E+02 0.  0.
         12    1    1    2    0    0 -0.17646753611E+02  0.15099303375E+02 -0.36663694465E+02  0.43400730031E+02  0.00000000000E+00 0. -1.
         11    1    3    3    0    0  0.61567295850E+01  0.26450219643E+01  0.11830460583E+02  0.13596369304E+02  0.51100000000E-03 0. -1.
        -11    1    3    3    0    0  0.41674854549E+01 -0.33232105153E+01  0.13294005490E+02  0.14322787626E+02  0.51100000000E-03 0.  1.
         12    1    3    3    0    0  0.73225385711E+01 -0.14421114824E+02  0.11539228392E+02  0.19868113040E+02  0.00000000000E+00 0. -1.
</event>
<event>
 7    1  0.2751796E-010  0.4778727E+02  0.7816164E-02  0.1312668E+00
        -11   -1    0    0    0    0  0.00000000000E+00  0.00000000000E+00  0.45593999997E+02  0.45594000000E+02  0.51100000000E-03 0. -1.
         11   -1    0    0    0    0 -0.00000000000E+00 -0.00000000000E+00 -0.45593999997E+02  0.45594000000E+02  0.51100000000E-03 0.  1.
    9900012    2    1    2    0    0 -0.38652680479E+02 -0.19566260770E+02 -0.25990195084E+01  0.47787272228E+02  0.20000005399E+02 0.  0.
         12    1    1    2    0    0  0.38652680479E+02  0.19566260770E+02  0.25990195084E+01  0.43400727772E+02  0.00000000000E+00 0. -1.
         11    1    3    3    0    0 -0.10485621590E+02 -0.10277560921E+02  0.27123270493E+01  0.14930948961E+02  0.51100000000E-03 0. -1.
        -11    1    3    3    0    0 -0.13797708690E+02 -0.73193728071E+01 -0.88160222855E+01  0.17935223237E+02  0.51100000000E-03 0.  1.
        -12    1    3    3    0    0 -0.14369350199E+02 -0.19693270421E+01  0.35046757277E+01  0.14921100030E+02  0.00000000000E+00 0.  1.
</event>
<event>
 7    1  0.2751796E-010  0.4778728E+02  0.7816164E-02  0.1312668E+00
        -11   -1    0    0    0    0  0.00000000000E+00  0.00000000000E+00  0.45593999997E+02  0.45594000000E+02  0.51100000000E-03 0.  1.
         11   -1    0    0    0    0 -0.00000000000E+00 -0.00000000000E+00 -0.45593999997E+02  0.45594000000E+02  0.51100000000E-03 0. -1.
    9900012    2    1    2    0    0 -0.24791200189E+01  0.32083997390E+02  0.29122052945E+02  0.47787275440E+02  0.20000020040E+02 0.  0.
         12    1    1    2    0    0  0.24791200189E+01 -0.32083997390E+02 -0.29122052945E+02  0.43400724560E+02  0.00000000000E+00 0. -1.
         11    1    3    3    0    0 -0.20406588272E+01  0.37595788329E+01  0.28085265159E+01  0.51172788571E+01  0.51100000000E-03 0. -1.
        -11    1    3    3    0    0 -0.76926995296E+01  0.51459994513E+01  0.62550530683E+01  0.11170703897E+02  0.51100000000E-03 0.  1.
        -12    1    3    3    0    0  0.72542383380E+01  0.23178419106E+02  0.20058473361E+02  0.31499292686E+02  0.00000000000E+00 0.  1.
</event>
<event>
 7    1  0.2751796E-010  0.4778726E+02  0.7816164E-02  0.1312668E+00
        -11   -1    0    0    0    0  0.00000000000E+00  0.00000000000E+00  0.45593999997E+02  0.45594000000E+02  0.51100000000E-03 0.  1.
         11   -1    0    0    0    0 -0.00000000000E+00 -0.00000000000E+00 -0.45593999997E+02  0.45594000000E+02  0.51100000000E-03 0. -1.
    9900012    2    1    2    0    0 -0.63285506412E+01 -0.26681782654E+02  0.33640098992E+02  0.47787258774E+02  0.19999944052E+02 0.  0.
         12    1    1    2    0    0  0.63285506412E+01  0.26681782654E+02 -0.33640098992E+02  0.43400741226E+02  0.00000000000E+00 0. -1.
         11    1    3    3    0    0 -0.10405383549E+01  0.92404295335E+00 -0.19698888030E+01  0.24118535621E+01  0.51100000000E-03 0. -1.
        -11    1    3    3    0    0 -0.33130876842E+01 -0.15289088665E+02  0.19423858856E+02  0.24940310249E+02  0.51100000000E-03 0.  1.
         12    1    3    3    0    0 -0.19749246020E+01 -0.12316736942E+02  0.16186128939E+02  0.20435094962E+02  0.00000000000E+00 0. -1.
</event>
<event>
 7    1  0.2751796E-010  0.4778727E+02  0.7816164E-02  0.1312668E+00
        -11   -1    0    0    0    0  0.00000000000E+00  0.00000000000E+00  0.45593999997E+02  0.45594000000E+02  0.51100000000E-03 0.  1.
         11   -1    0    0    0    0 -0.00000000000E+00 -0.00000000000E+00 -0.45593999997E+02  0.45594000000E+02  0.51100000000E-03 0. -1.
    9900012    2    1    2    0    0 -0.15328444894E+02  0.12788810041E+02  0.38537102079E+02  0.47787272797E+02  0.20000007988E+02 0.  0.
         12    1    1    2    0    0  0.15328444894E+02 -0.12788810041E+02 -0.38537102079E+02  0.43400727203E+02  0.00000000000E+00 0. -1.
         11    1    3    3    0    0 -0.12567055366E+02  0.33625714018E+01  0.10388426953E+02  0.16648038378E+02  0.51100000000E-03 0. -1.
        -11    1    3    3    0    0  0.29029927397E+01  0.27810720237E+01  0.13497078461E+02  0.14083069825E+02  0.51100000000E-03 0.  1.
        -12    1    3    3    0    0 -0.56643822676E+01  0.66451666154E+01  0.14651596664E+02  0.17056164593E+02  0.00000000000E+00 0.  1.
</event>
<event>
 7    1  0.2751796E-010  0.4778727E+02  0.7816164E-02  0.1312668E+00
        -11   -1    0    0    0    0  0.00000000000E+00  0.00000000000E+00  0.45593999997E+02  0.45594000000E+02  0.51100000000E-03 0.  1.
         11   -1    0    0    0    0 -0.00000000000E+00 -0.00000000000E+00 -0.45593999997E+02  0.45594000000E+02  0.51100000000E-03 0. -1.
    9900012    2    1    2    0    0 -0.41754117489E+02  0.27590996947E+01  0.11515386929E+02  0.47787273111E+02  0.20000009420E+02 0.  0.
         12    1    1    2    0    0  0.41754117489E+02 -0.27590996947E+01 -0.11515386929E+02  0.43400726889E+02  0.00000000000E+00 0. -1.
         11    1    3    3    0    0 -0.19818249838E+01 -0.14648480578E+01  0.54424069187E+01  0.59743789158E+01  0.51100000000E-03 0. -1.
        -11    1    3    3    0    0 -0.28696209101E+02  0.25254905970E+01  0.90918378559E+01  0.30207814144E+02  0.51100000000E-03 0.  1.
         12    1    3    3    0    0 -0.11076083405E+02  0.16984571556E+01 -0.30188578455E+01  0.11605080051E+02  0.00000000000E+00 0. -1.
</event>
<event>
 7    1  0.2751796E-010  0.4778727E+02  0.7816164E-02  0.1312668E+00
        -11   -1    0    0    0    0  0.00000000000E+00  0.00000000000E+00  0.45593999997E+02  0.45594000000E+02  0.51100000000E-03 0. -1.
         11   -1    0    0    0    0 -0.00000000000E+00 -0.00000000000E+00 -0.45593999997E+02  0.45594000000E+02  0.51100000000E-03 0.  1.
    9900012    2    1    2    0    0 -0.33861518174E+02 -0.11277399022E+02 -0.24694964320E+02  0.47787269539E+02  0.19999993136E+02 0.  0.
         12    1    1    2    0    0  0.33861518174E+02  0.11277399022E+02  0.24694964320E+02  0.43400730461E+02  0.00000000000E+00 0. -1.
         11    1    3    3    0    0  0.20291260611E+00 -0.35513847975E+01  0.32320442599E+00  0.35718299047E+01  0.51100000000E-03 0. -1.
        -11    1    3    3    0    0 -0.28803581099E+02 -0.80140172423E+01 -0.16362403364E+02  0.34082238785E+02  0.51100000000E-03 0.  1.
        -12    1    3    3    0    0 -0.52608496816E+01  0.28800301764E+00 -0.86557653819E+01  0.10133200850E+02  0.00000000000E+00 0.  1.
</event>
<event>
 7    1  0.2751796E-010  0.4778727E+02  0.7816164E-02  0.1312668E+00
        -11   -1    0    0    0    0  0.00000000000E+00  0.00000000000E+00  0.45593999997E+02  0.45594000000E+02  0.51100000000E-03 0.  1.
         11   -1    0    0    0    0 -0.00000000000E+00 -0.00000000000E+00 -0.45593999997E+02  0.45594000000E+02  0.51100000000E-03 0. -1.
    9900012    2    1    2    0    0  0.26969044771E+02  0.28882656121E+01  0.33881438039E+02  0.47787270770E+02  0.19999998750E+02 0.  0.
         12    1    1    2    0    0 -0.26969044771E+02 -0.28882656121E+01 -0.33881438039E+02  0.43400729230E+02  0.00000000000E+00 0. -1.
         11    1    3    3    0    0  0.21667831295E+02  0.94700110239E+01  0.20345705545E+02  0.31194931579E+02  0.51100000000E-03 0. -1.
        -11    1    3    3    0    0  0.20819957587E+01 -0.24871620345E+01  0.93927380177E+01  0.99370120788E+01  0.51100000000E-03 0.  1.
         12    1    3    3    0    0  0.32192177170E+01 -0.40945833773E+01  0.41429944759E+01  0.66553271123E+01  0.00000000000E+00 0. -1.
</event>
<event>
 7    1  0.2751796E-010  0.4778727E+02  0.7816164E-02  0.1312668E+00
        -11   -1    0    0    0    0  0.00000000000E+00  0.00000000000E+00  0.45593999997E+02  0.45594000000E+02  0.51100000000E-03 0.  1.
         11   -1    0    0    0    0 -0.00000000000E+00 -0.00000000000E+00 -0.45593999997E+02  0.45594000000E+02  0.51100000000E-03 0. -1.
    9900012    2    1    2    0    0  0.33247397064E+02 -0.41587095899E+01  0.27585119012E+02  0.47787273418E+02  0.20000010820E+02 0.  0.
         12    1    1    2    0    0 -0.33247397064E+02  0.41587095899E+01 -0.27585119012E+02  0.43400726582E+02  0.00000000000E+00 0. -1.
         11    1    3    3    0    0  0.26635792358E+02  0.60608637412E+00  0.21335610648E+02  0.34132697772E+02  0.51100000000E-03 0. -1.
        -11    1    3    3    0    0  0.60084498968E+01 -0.10448296191E+01  0.75158977590E+01  0.96789389129E+01  0.51100000000E-03 0.  1.
         12    1    3    3    0    0  0.60315480954E+00 -0.37199663450E+01 -0.12663893947E+01  0.39756367328E+01  0.00000000000E+00 0. -1.
</event>
<event>
 7    1  0.2751796E-010  0.4778727E+02  0.7816164E-02  0.1312668E+00
        -11   -1    0    0    0    0  0.00000000000E+00  0.00000000000E+00  0.45593999997E+02  0.45594000000E+02  0.51100000000E-03 0.  1.
         11   -1    0    0    0    0 -0.00000000000E+00 -0.00000000000E+00 -0.45593999997E+02  0.45594000000E+02  0.51100000000E-03 0. -1.
    9900012    2    1    2    0    0  0.15138771191E+02 -0.34839004906E+02  0.20992490061E+02  0.47787270801E+02  0.19999998891E+02 0.  0.
         12    1    1    2    0    0 -0.15138771191E+02  0.34839004906E+02 -0.20992490061E+02  0.43400729199E+02  0.00000000000E+00 0. -1.
         11    1    3    3    0    0 -0.37930416436E+00 -0.15559742092E+02  0.15567376189E+02  0.22013465136E+02  0.51100000000E-03 0. -1.
        -11    1    3    3    0    0  0.99164910389E+01 -0.86613923153E+01  0.34109205886E+01  0.13601135647E+02  0.51100000000E-03 0.  1.
        -12    1    3    3    0    0  0.56015843160E+01 -0.10617870500E+02  0.20141932830E+01  0.12172670018E+02  0.00000000000E+00 0.  1.
</event>
<event>
 7    1  0.2751796E-010  0.4778727E+02  0.7816164E-02  0.1312668E+00
        -11   -1    0    0    0    0  0.00000000000E+00  0.00000000000E+00  0.45593999997E+02  0.45594000000E+02  0.51100000000E-03 0. -1.
         11   -1    0    0    0    0 -0.00000000000E+00 -0.00000000000E+00 -0.45593999997E+02  0.45594000000E+02  0.51100000000E-03 0.  1.
    9900012    2    1    2    0    0  0.11441668890E+02  0.27413785807E+02 -0.31641683450E+02  0.47787267624E+02  0.19999984404E+02 0.  0.
         12    1    1    2    0    0 -0.11441668890E+02 -0.27413785807E+02  0.31641683450E+02  0.43400732376E+02  0.00000000000E+00 0. -1.
         11    1    3    3    0    0  0.73573205916E+00 -0.22721917603E+01  0.47852805339E-01  0.23888171154E+01  0.51100000000E-03 0. -1.
        -11    1    3    3    0    0  0.11000386786E+02  0.21104905651E+02 -0.24972043732E+02  0.34496790002E+02  0.51100000000E-03 0.  1.
        -12    1    3    3    0    0 -0.29444995594E+00  0.85810719164E+01 -0.67174925226E+01  0.10901660507E+02  0.00000000000E+00 0.  1.
</event>
<event>
 7    1  0.2751796E-010  0.4778727E+02  0.7816164E-02  0.1312668E+00
        -11   -1    0    0    0    0  0.00000000000E+00  0.00000000000E+00  0.45593999997E+02  0.45594000000E+02  0.51100000000E-03 0.  1.
         11   -1    0    0    0    0 -0.00000000000E+00 -0.00000000000E+00 -0.45593999997E+02  0.45594000000E+02  0.51100000000E-03 0. -1.
    9900012    2    1    2    0    0  0.25280978060E+02  0.15419052246E+01  0.35243693498E+02  0.47787271264E+02  0.20000001002E+02 0.  0.
         12    1    1    2    0    0 -0.25280978060E+02 -0.15419052246E+01 -0.35243693498E+02  0.43400728736E+02  0.00000000000E+00 0. -1.
         11    1    3    3    0    0  0.92032854626E+01  0.12825456563E+01  0.25969641917E+02  0.27582017479E+02  0.51100000000E-03 0. -1.
        -11    1    3    3    0    0  0.10585929953E+02  0.21727960084E+01  0.94952329745E+01  0.14385492865E+02  0.51100000000E-03 0.  1.
         12    1    3    3    0    0  0.54917626451E+01 -0.19134364401E+01 -0.22118139361E+00  0.58197609203E+01  0.00000000000E+00 0. -1.
</event>
<event>
 7    1  0.2751796E-010  0.4778725E+02  0.7816164E-02  0.1312668E+00
        -11   -1    0    0    0    0  0.00000000000E+00  0.00000000000E+00  0.45593999997E+02  0.45594000000E+02  0.51100000000E-03 0. -1.
         11   -1    0    0    0    0 -0.00000000000E+00 -0.00000000000E+00 -0.45593999997E+02  0.45594000000E+02  0.51100000000E-03 0.  1.
    9900012    2    1    2    0    0 -0.32075053226E+02 -0.18826255130E+02 -0.22369362665E+02  0.47787247613E+02  0.19999893168E+02 0.  0.
         12    1    1    2    0    0  0.32075053226E+02  0.18826255130E+02  0.22369362665E+02  0.43400752387E+02  0.00000000000E+00 0. -1.
         11    1    3    3    0    0 -0.53683596477E+01 -0.19698609049E+01 -0.90478341754E+01  0.10703407907E+02  0.51100000000E-03 0. -1.
        -11    1    3    3    0    0 -0.79900696947E+01 -0.93635954756E+01 -0.11492563754E+02  0.16840343104E+02  0.51100000000E-03 0.  1.
        -12    1    3    3    0    0 -0.18716623884E+02 -0.74927987496E+01 -0.18289647364E+01  0.20243496603E+02  0.00000000000E+00 0.  1.
</event>
<event>
 7    1  0.2751796E-010  0.4778728E+02  0.7816164E-02  0.1312668E+00
        -11   -1    0    0    0    0  0.00000000000E+00  0.00000000000E+00  0.45593999997E+02  0.45594000000E+02  0.51100000000E-03 0. -1.
         11   -1    0    0    0    0 -0.00000000000E+00 -0.00000000000E+00 -0.45593999997E+02  0.45594000000E+02  0.51100000000E-03 0.  1.
    9900012    2    1    2    0    0 -0.14498160305E+02  0.17877243949E+02 -0.36794429279E+02  0.47787279621E+02  0.20000039104E+02 0.  0.
         12    1    1    2    0    0  0.14498160305E+02 -0.17877243949E+02  0.36794429279E+02  0.43400720379E+02  0.00000000000E+00 0. -1.
         11    1    3    3    0    0 -0.38774498360E+01  0.84503643472E+01 -0.11700436269E+01  0.93708205180E+01  0.51100000000E-03 0. -1.
        -11    1    3    3    0    0 -0.33426258360E+01  0.21156509981E+01 -0.12077628215E+02  0.12708982264E+02  0.51100000000E-03 0.  1.
         12    1    3    3    0    0 -0.72780846333E+01  0.73112286036E+01 -0.23546757437E+02  0.25707476839E+02  0.00000000000E+00 0. -1.
</event>
<event>
 7    1  0.2751796E-010  0.4778728E+02  0.7816164E-02  0.1312668E+00
        -11   -1    0    0    0    0  0.00000000000E+00  0.00000000000E+00  0.45593999997E+02  0.45594000000E+02  0.51100000000E-03 0. -1.
         11   -1    0    0    0    0 -0.00000000000E+00 -0.00000000000E+00 -0.45593999997E+02  0.45594000000E+02  0.51100000000E-03 0.  1.
    9900012    2    1    2    0    0 -0.42814450461E+02 -0.10585057917E+01  0.70302699769E+01  0.47787282279E+02  0.20000051222E+02 0.  0.
         12    1    1    2    0    0  0.42814450461E+02  0.10585057917E+01 -0.70302699769E+01  0.43400717721E+02  0.00000000000E+00 0. -1.
         11    1    3    3    0    0 -0.24109276613E+01 -0.56996201424E+01  0.18850771525E+00  0.61914277332E+01  0.51100000000E-03 0. -1.
        -11    1    3    3    0    0 -0.30022919234E+02  0.22415826941E+01  0.29405478956E+01  0.30249747016E+02  0.51100000000E-03 0.  1.
         12    1    3    3    0    0 -0.10380603565E+02  0.23995316566E+01  0.39012143660E+01  0.11346107530E+02  0.00000000000E+00 0. -1.
</event>
<event>
 7    1  0.2751796E-010  0.4778727E+02  0.7816164E-02  0.1312668E+00
        -11   -1    0    0    0    0  0.00000000000E+00  0.00000000000E+00  0.45593999997E+02  0.45594000000E+02  0.51100000000E-03 0. -1.
         11   -1    0    0    0    0 -0.00000000000E+00 -0.00000000000E+00 -0.45593999997E+02  0.45594000000E+02  0.51100000000E-03 0.  1.
    9900012    2    1    2    0    0 -0.35495532783E+02  0.40170536218E+01 -0.24648608853E+02  0.47787268604E+02  0.19999988873E+02 0.  0.
         12    1    1    2    0    0  0.35495532783E+02 -0.40170536218E+01  0.24648608853E+02  0.43400731396E+02  0.00000000000E+00 0. -1.
         11    1    3    3    0    0 -0.17571901214E+02 -0.40095968684E+01 -0.14676348238E+02  0.23243144736E+02  0.51100000000E-03 0. -1.
        -11    1    3    3    0    0 -0.53189103440E+01 -0.14784994040E+00 -0.76855213774E+01  0.93477219661E+01  0.51100000000E-03 0.  1.
         12    1    3    3    0    0 -0.12604721224E+02  0.81745004306E+01 -0.22867392372E+01  0.15196401902E+02  0.00000000000E+00 0. -1.
</event>
<event>
 7    1  0.2751796E-010  0.4778727E+02  0.7816164E-02  0.1312668E+00
        -11   -1    0    0    0    0  0.00000000000E+00  0.00000000000E+00  0.45593999997E+02  0.45594000000E+02  0.51100000000E-03 0.  1.
         11   -1    0    0    0    0 -0.00000000000E+00 -0.00000000000E+00 -0.45593999997E+02  0.45594000000E+02  0.51100000000E-03 0. -1.
    9900012    2    1    2    0    0  0.10630773049E+02  0.28887510659E+02  0.30596106680E+02  0.47787270149E+02  0.19999995915E+02 0.  0.
         12    1    1    2    0    0 -0.10630773049E+02 -0.28887510659E+02 -0.30596106680E+02  0.43400729851E+02  0.00000000000E+00 0. -1.
         11    1    3    3    0    0  0.10176259474E+02  0.68481641388E+01  0.12660299318E+02  0.17627727819E+02  0.51100000000E-03 0. -1.
        -11    1    3    3    0    0 -0.17091020625E+01  0.18393534893E+02  0.18173126907E+02  0.25913426974E+02  0.51100000000E-03 0.  1.
        -12    1    3    3    0    0  0.21636156375E+01  0.36458116270E+01 -0.23731954539E+00  0.42461153556E+01  0.00000000000E+00 0.  1.
</event>
<event>
 7    1  0.2751796E-010  0.4778727E+02  0.7816164E-02  0.1312668E+00
        -11   -1    0    0    0    0  0.00000000000E+00  0.00000000000E+00  0.45593999997E+02  0.45594000000E+02  0.51100000000E-03 0.  1.
         11   -1    0    0    0    0 -0.00000000000E+00 -0.00000000000E+00 -0.45593999997E+02  0.45594000000E+02  0.51100000000E-03 0. -1.
    9900012    2    1    2    0    0 -0.12873829642E+02 -0.26040039275E+02  0.32245991345E+02  0.47787273129E+02  0.20000009506E+02 0.  0.
         12    1    1    2    0    0  0.12873829642E+02  0.26040039275E+02 -0.32245991345E+02  0.43400726871E+02  0.00000000000E+00 0. -1.
         11    1    3    3    0    0 -0.12021813603E+02 -0.98711204996E+01  0.57988513774E+01  0.16600894547E+02  0.51100000000E-03 0. -1.
        -11    1    3    3    0    0 -0.86926937234E+00 -0.79623365114E+01  0.16077948561E+02  0.17962596197E+02  0.51100000000E-03 0.  1.
         12    1    3    3    0    0  0.17253333262E-01 -0.82065822636E+01  0.10369191407E+02  0.13223782385E+02  0.00000000000E+00 0. -1.
</event>
<event>
 7    1  0.2751796E-010  0.4778727E+02  0.7816164E-02  0.1312668E+00
        -11   -1    0    0    0    0  0.00000000000E+00  0.00000000000E+00  0.45593999997E+02  0.45594000000E+02  0.51100000000E-03 0.  1.
         11   -1    0    0    0    0 -0.00000000000E+00 -0.00000000000E+00 -0.45593999997E+02  0.45594000000E+02  0.51100000000E-03 0. -1.
    9900012    2    1    2    0    0 -0.86753062743E+01  0.32698162408E+02  0.27188100681E+02  0.47787267489E+02  0.19999983791E+02 0.  0.
         12    1    1    2    0    0  0.86753062743E+01 -0.32698162408E+02 -0.27188100681E+02  0.43400732511E+02  0.00000000000E+00 0. -1.
         11    1    3    3    0    0  0.59127144721E+01  0.71181916236E+01  0.86531843760E+01  0.12669113802E+02  0.51100000000E-03 0. -1.
        -11    1    3    3    0    0 -0.67646822063E+01  0.80505655415E+01  0.80690110787E+01  0.13254488709E+02  0.51100000000E-03 0.  1.
         12    1    3    3    0    0 -0.78233385401E+01  0.17529405243E+02  0.10465905226E+02  0.21863664978E+02  0.00000000000E+00 0. -1.
</event>
<event>
 7    1  0.2751796E-010  0.4778727E+02  0.7816164E-02  0.1312668E+00
        -11   -1    0    0    0    0  0.00000000000E+00  0.00000000000E+00  0.45593999997E+02  0.45594000000E+02  0.51100000000E-03 0.  1.
         11   -1    0    0    0    0 -0.00000000000E+00 -0.00000000000E+00 -0.45593999997E+02  0.45594000000E+02  0.51100000000E-03 0. -1.
    9900012    2    1    2    0    0 -0.19134236560E+02  0.30393145145E+02  0.24367210197E+02  0.47787271742E+02  0.20000003179E+02 0.  0.
         12    1    1    2    0    0  0.19134236560E+02 -0.30393145145E+02 -0.24367210197E+02  0.43400728258E+02  0.00000000000E+00 0. -1.
         11    1    3    3    0    0 -0.16787146417E+02  0.12166259785E+02  0.13889266434E+02  0.24954716675E+02  0.51100000000E-03 0. -1.
        -11    1    3    3    0    0  0.18641148864E+01  0.55210713795E+01 -0.10488653440E-01  0.58272861403E+01  0.51100000000E-03 0.  1.
        -12    1    3    3    0    0 -0.42112050296E+01  0.12705813981E+02  0.10488432417E+02  0.17005268927E+02  0.00000000000E+00 0.  1.
</event>
<event>
 7    1  0.2751796E-010  0.4778727E+02  0.7816164E-02  0.1312668E+00
        -11   -1    0    0    0    0  0.00000000000E+00  0.00000000000E+00  0.45593999997E+02  0.45594000000E+02  0.51100000000E-03 0.  1.
         11   -1    0    0    0    0 -0.00000000000E+00 -0.00000000000E+00 -0.45593999997E+02  0.45594000000E+02  0.51100000000E-03 0. -1.
    9900012    2    1    2    0    0  0.37150633446E+02 -0.15907175348E+02  0.15824526005E+02  0.47787269404E+02  0.19999992519E+02 0.  0.
         12    1    1    2    0    0 -0.37150633446E+02  0.15907175348E+02 -0.15824526005E+02  0.43400730596E+02  0.00000000000E+00 0. -1.
         11    1    3    3    0    0  0.56826784368E+00 -0.59177450836E+01  0.34274287709E+01  0.68622083513E+01  0.51100000000E-03 0. -1.
        -11    1    3    3    0    0  0.11548282520E+02 -0.65657697992E+01  0.13639692549E+01  0.13354122008E+02  0.51100000000E-03 0.  1.
         12    1    3    3    0    0  0.25034083083E+02 -0.34236604653E+01  0.11033127979E+02  0.27570939045E+02  0.00000000000E+00 0. -1.
</event>
<event>
 7    1  0.2751796E-010  0.4778727E+02  0.7816164E-02  0.1312668E+00
        -11   -1    0    0    0    0  0.00000000000E+00  0.00000000000E+00  0.45593999997E+02  0.45594000000E+02  0.51100000000E-03 0. -1.
         11   -1    0    0    0    0 -0.00000000000E+00 -0.00000000000E+00 -0.45593999997E+02  0.45594000000E+02  0.51100000000E-03 0.  1.
    9900012    2    1    2    0    0  0.63021917372E+01  0.35136342394E+02 -0.24684872593E+02  0.47787272904E+02  0.20000008480E+02 0.  0.
         12    1    1    2    0    0 -0.63021917372E+01 -0.35136342394E+02  0.24684872593E+02  0.43400727096E+02  0.00000000000E+00 0. -1.
         11    1    3    3    0    0  0.44528838704E+01  0.25806419628E+02 -0.11445439937E+02  0.28579670474E+02  0.51100000000E-03 0. -1.
        -11    1    3    3    0    0 -0.22362450801E+01 -0.37127536649E+00 -0.60489064817E+01  0.64597141842E+01  0.51100000000E-03 0.  1.
        -12    1    3    3    0    0  0.40855529468E+01  0.97011981327E+01 -0.71905261735E+01  0.12747888246E+02  0.00000000000E+00 0.  1.
</event>
<event>
 7    1  0.2751796E-010  0.4778727E+02  0.7816164E-02  0.1312668E+00
        -11   -1    0    0    0    0  0.00000000000E+00  0.00000000000E+00  0.45593999997E+02  0.45594000000E+02  0.51100000000E-03 0.  1.
         11   -1    0    0    0    0 -0.00000000000E+00 -0.00000000000E+00 -0.45593999997E+02  0.45594000000E+02  0.51100000000E-03 0. -1.
    9900012    2    1    2    0    0 -0.39325576775E+02  0.35135775295E+01  0.18021563088E+02  0.47787274754E+02  0.20000016914E+02 0.  0.
         12    1    1    2    0    0  0.39325576775E+02 -0.35135775295E+01 -0.18021563088E+02  0.43400725246E+02  0.00000000000E+00 0. -1.
         11    1    3    3    0    0 -0.15025809471E+02  0.65682031860E+01  0.13907519145E+02  0.21501984383E+02  0.51100000000E-03 0. -1.
        -11    1    3    3    0    0 -0.10248226181E+02 -0.19606880038E+01 -0.24802776213E+01  0.10724841007E+02  0.51100000000E-03 0.  1.
         12    1    3    3    0    0 -0.14051541123E+02 -0.10939376527E+01  0.65943215634E+01  0.15560449364E+02  0.00000000000E+00 0. -1.
</event>
<event>
 7    1  0.2751796E-010  0.4778727E+02  0.7816164E-02  0.1312668E+00
        -11   -1    0    0    0    0  0.00000000000E+00  0.00000000000E+00  0.45593999997E+02  0.45594000000E+02  0.51100000000E-03 0.  1.
         11   -1    0    0    0    0 -0.00000000000E+00 -0.00000000000E+00 -0.45593999997E+02  0.45594000000E+02  0.51100000000E-03 0. -1.
    9900012    2    1    2    0    0  0.13589072698E+02  0.24162849255E+02  0.33393371570E+02  0.47787269064E+02  0.19999990973E+02 0.  0.
         12    1    1    2    0    0 -0.13589072698E+02 -0.24162849255E+02 -0.33393371570E+02  0.43400730936E+02  0.00000000000E+00 0. -1.
         11    1    3    3    0    0  0.39000787829E+01 -0.47949958660E+00  0.65825151714E+01  0.76661620521E+01  0.51100000000E-03 0. -1.
        -11    1    3    3    0    0  0.94243215056E+01  0.11258866522E+02  0.20768550584E+02  0.25434476696E+02  0.51100000000E-03 0.  1.
         12    1    3    3    0    0  0.26467240950E+00  0.13383482319E+02  0.60423058152E+01  0.14686630316E+02  0.00000000000E+00 0. -1.
</event>
<event>
 7    1  0.2751796E-010  0.4778727E+02  0.7816164E-02  0.1312668E+00
        -11   -1    0    0    0    0  0.00000000000E+00  0.00000000000E+00  0.45593999997E+02  0.45594000000E+02  0.51100000000E-03 0.  1.
         11   -1    0    0    0    0 -0.00000000000E+00 -0.00000000000E+00 -0.45593999997E+02  0.45594000000E+02  0.51100000000E-03 0. -1.
    9900012    2    1    2    0    0  0.67641062796E+01  0.56150189080E+01  0.42501076550E+02  0.47787273289E+02  0.20000010236E+02 0.  0.
         12    1    1    2    0    0 -0.67641062796E+01 -0.56150189080E+01 -0.42501076550E+02  0.43400726711E+02  0.00000000000E+00 0. -1.
         11    1    3    3    0    0 -0.16089310229E+01  0.30844753359E+01  0.22341715949E+02  0.22610946883E+02  0.51100000000E-03 0. -1.
        -11    1    3    3    0    0  0.11318105659E+02  0.14324488806E+01  0.18176175520E+02  0.21459841153E+02  0.51100000000E-03 0.  1.
         12    1    3    3    0    0 -0.29450683565E+01  0.10980946914E+01  0.19831850806E+01  0.37164852535E+01  0.00000000000E+00 0. -1.
</event>
<event>
 7    1  0.2751796E-010  0.4778727E+02  0.7816164E-02  0.1312668E+00
        -11   -1    0    0    0    0  0.00000000000E+00  0.00000000000E+00  0.45593999997E+02  0.45594000000E+02  0.51100000000E-03 0.  1.
         11   -1    0    0    0    0 -0.00000000000E+00 -0.00000000000E+00 -0.45593999997E+02  0.45594000000E+02  0.51100000000E-03 0. -1.
    9900012    2    1    2    0    0  0.27291766014E+02  0.13268483286E+02  0.31027892354E+02  0.47787271379E+02  0.20000001527E+02 0.  0.
         12    1    1    2    0    0 -0.27291766014E+02 -0.13268483286E+02 -0.31027892354E+02  0.43400728621E+02  0.00000000000E+00 0. -1.
         11    1    3    3    0    0  0.19675204922E+02  0.12126037016E+02  0.11279249414E+02  0.25717230217E+02  0.51100000000E-03 0. -1.
        -11    1    3    3    0    0  0.83658541794E+01  0.18005920304E+01  0.15494270572E+02  0.17700340918E+02  0.51100000000E-03 0.  1.
         12    1    3    3    0    0 -0.74929308742E+00 -0.65814576025E+00  0.42543723688E+01  0.43697002443E+01  0.00000000000E+00 0. -1.
</event>
<event>
 7    1  0.2751796E-010  0.4778727E+02  0.7816164E-02  0.1312668E+00
        -11   -1    0    0    0    0  0.00000000000E+00  0.00000000000E+00  0.45593999997E+02  0.45594000000E+02  0.51100000000E-03 0. -1.
         11   -1    0    0    0    0 -0.00000000000E+00 -0.00000000000E+00 -0.45593999997E+02  0.45594000000E+02  0.51100000000E-03 0.  1.
    9900012    2    1    2    0    0 -0.11554094905E+02  0.60133702478E+00 -0.41830191764E+02  0.47787266615E+02  0.19999979805E+02 0.  0.
         12    1    1    2    0    0  0.11554094905E+02 -0.60133702478E+00  0.41830191764E+02  0.43400733385E+02  0.00000000000E+00 0. -1.
         11    1    3    3    0    0 -0.91109670981E+01  0.29201076226E+01 -0.66245058656E+01  0.11637045511E+02  0.51100000000E-03 0. -1.
        -11    1    3    3    0    0 -0.34689386427E+01  0.13565816695E+01 -0.24570183841E+02  0.24850911117E+02  0.51100000000E-03 0.  1.
         12    1    3    3    0    0  0.10258108359E+01 -0.36753522673E+01 -0.10635502058E+02  0.11299309987E+02  0.00000000000E+00 0. -1.
</event>
<event>
 7    1  0.2751796E-010  0.4778729E+02  0.7816164E-02  0.1312668E+00
        -11   -1    0    0    0    0  0.00000000000E+00  0.00000000000E+00  0.45593999997E+02  0.45594000000E+02  0.51100000000E-03 0.  1.
         11   -1    0    0    0    0 -0.00000000000E+00 -0.00000000000E+00 -0.45593999997E+02  0.45594000000E+02  0.51100000000E-03 0. -1.
    9900012    2    1    2    0    0  0.20355798556E+01 -0.29434107933E+02  0.31829407483E+02  0.47787291758E+02  0.20000094442E+02 0.  0.
         12    1    1    2    0    0 -0.20355798556E+01  0.29434107933E+02 -0.31829407483E+02  0.43400708242E+02  0.00000000000E+00 0. -1.
         11    1    3    3    0    0  0.37193125780E+01 -0.20054160648E+02  0.77009824525E+01  0.21801554448E+02  0.51100000000E-03 0. -1.
        -11    1    3    3    0    0 -0.79834952128E+00 -0.76107831370E+01  0.18527634462E+02  0.20045813052E+02  0.51100000000E-03 0.  1.
         12    1    3    3    0    0 -0.88538320115E+00 -0.17691641481E+01  0.56007905693E+01  0.59399242585E+01  0.00000000000E+00 0. -1.
</event>
<event>
 7    1  0.2751796E-010  0.4778727E+02  0.7816164E-02  0.1312668E+00
        -11   -1    0    0    0    0  0.00000000000E+00  0.00000000000E+00  0.45593999997E+02  0.45594000000E+02  0.51100000000E-03 0. -1.
         11   -1    0    0    0    0 -0.00000000000E+00 -0.00000000000E+00 -0.45593999997E+02  0.45594000000E+02  0.51100000000E-03 0.  1.
    9900012    2    1    2    0    0 -0.27616152550E+02  0.24596616252E+02 -0.22715142750E+02  0.47787272784E+02  0.20000007930E+02 0.  0.
         12    1    1    2    0    0  0.27616152550E+02 -0.24596616252E+02  0.22715142750E+02  0.43400727216E+02  0.00000000000E+00 0. -1.
         11    1    3    3    0    0  0.96552587337E-02 -0.35696625404E+00 -0.19606723733E+01  0.19929261269E+01  0.51100000000E-03 0. -1.
        -11    1    3    3    0    0 -0.48167869270E+01 -0.21671634310E+01 -0.16386550859E+01  0.55302101577E+01  0.51100000000E-03 0.  1.
        -12    1    3    3    0    0 -0.22809020882E+02  0.27120745937E+02 -0.19115815291E+02  0.40264136499E+02  0.00000000000E+00 0.  1.
</event>
<event>
 7    1  0.2751796E-010  0.4778728E+02  0.7816164E-02  0.1312668E+00
        -11   -1    0    0    0    0  0.00000000000E+00  0.00000000000E+00  0.45593999997E+02  0.45594000000E+02  0.51100000000E-03 0.  1.
         11   -1    0    0    0    0 -0.00000000000E+00 -0.00000000000E+00 -0.45593999997E+02  0.45594000000E+02  0.51100000000E-03 0. -1.
    9900012    2    1    2    0    0 -0.61627797084E+01 -0.23051269923E+02  0.36253026079E+02  0.47787276519E+02  0.20000024959E+02 0.  0.
         12    1    1    2    0    0  0.61627797084E+01  0.23051269923E+02 -0.36253026079E+02  0.43400723481E+02  0.00000000000E+00 0. -1.
         11    1    3    3    0    0 -0.56121845611E+01 -0.62125640207E+01  0.22792291512E+01  0.86768342754E+01  0.51100000000E-03 0. -1.
        -11    1    3    3    0    0  0.36355109815E+01 -0.10902432317E+02  0.25361293733E+02  0.27843763944E+02  0.51100000000E-03 0.  1.
         12    1    3    3    0    0 -0.41861061288E+01 -0.59362735856E+01  0.86125031952E+01  0.11266678299E+02  0.00000000000E+00 0. -1.
</event>
<event>
 7    1  0.2751796E-010  0.4778727E+02  0.7816164E-02  0.1312668E+00
        -11   -1    0    0    0    0  0.00000000000E+00  0.00000000000E+00  0.45593999997E+02  0.45594000000E+02  0.51100000000E-03 0.  1.
         11   -1    0    0    0    0 -0.00000000000E+00 -0.00000000000E+00 -0.45593999997E+02  0.45594000000E+02  0.51100000000E-03 0. -1.
    9900012    2    1    2    0    0  0.21878423155E+02  0.14694736953E+02  0.34482209836E+02  0.47787268565E+02  0.19999988697E+02 0.  0.
         12    1    1    2    0    0 -0.21878423155E+02 -0.14694736953E+02 -0.34482209836E+02  0.43400731435E+02  0.00000000000E+00 0. -1.
         11    1    3    3    0    0 -0.28080379267E+01  0.52761146569E+01  0.38290827332E+01  0.70981925664E+01  0.51100000000E-03 0. -1.
        -11    1    3    3    0    0  0.17029824275E+02  0.85396207676E+01  0.21843914049E+02  0.28984420279E+02  0.51100000000E-03 0.  1.
        -12    1    3    3    0    0  0.76566368075E+01  0.87900152810E+00  0.88092130545E+01  0.11704655720E+02  0.00000000000E+00 0.  1.
</event>
<event>
 7    1  0.2751796E-010  0.4778727E+02  0.7816164E-02  0.1312668E+00
        -11   -1    0    0    0    0  0.00000000000E+00  0.00000000000E+00  0.45593999997E+02  0.45594000000E+02  0.51100000000E-03 0.  1.
         11   -1    0    0    0    0 -0.00000000000E+00 -0.00000000000E+00 -0.45593999997E+02  0.45594000000E+02  0.51100000000E-03 0. -1.
    9900012    2    1    2    0    0  0.10289263705E+02 -0.15356633590E+02  0.39267392090E+02  0.47787271615E+02  0.20000002601E+02 0.  0.
         12    1    1    2    0    0 -0.10289263705E+02  0.15356633590E+02 -0.39267392090E+02  0.43400728385E+02  0.00000000000E+00 0. -1.
         11    1    3    3    0    0  0.11943335487E+02 -0.10907577326E+02  0.25333312592E+02  0.30056533946E+02  0.51100000000E-03 0.  1.
        -11    1    3    3    0    0  0.31875583295E+01 -0.58894465700E+00  0.97056382320E+01  0.10232633955E+02  0.51100000000E-03 0. -1.
         12    1    3    3    0    0 -0.48416301124E+01 -0.38601116071E+01  0.42284412661E+01  0.74981037140E+01  0.00000000000E+00 0. -1.
</event>
<event>
 7    1  0.2751796E-010  0.4778727E+02  0.7816164E-02  0.1312668E+00
        -11   -1    0    0    0    0  0.00000000000E+00  0.00000000000E+00  0.45593999997E+02  0.45594000000E+02  0.51100000000E-03 0. -1.
         11   -1    0    0    0    0 -0.00000000000E+00 -0.00000000000E+00 -0.45593999997E+02  0.45594000000E+02  0.51100000000E-03 0.  1.
    9900012    2    1    2    0    0  0.38426491673E+02 -0.68587739034E+01 -0.18973278606E+02  0.47787270250E+02  0.19999996379E+02 0.  0.
         12    1    1    2    0    0 -0.38426491673E+02  0.68587739034E+01  0.18973278606E+02  0.43400729750E+02  0.00000000000E+00 0. -1.
         11    1    3    3    0    0  0.13459362011E+02  0.19642424966E+01  0.94426630083E+00  0.13634673206E+02  0.51100000000E-03 0. -1.
        -11    1    3    3    0    0  0.83411361282E+01 -0.70727158967E+01 -0.92294070457E+01  0.14310129865E+02  0.51100000000E-03 0.  1.
         12    1    3    3    0    0  0.16625993534E+02 -0.17503005033E+01 -0.10688137861E+02  0.19842467180E+02  0.00000000000E+00 0. -1.
</event>
<event>
 7    1  0.2751796E-010  0.4778727E+02  0.7816164E-02  0.1312668E+00
        -11   -1    0    0    0    0  0.00000000000E+00  0.00000000000E+00  0.45593999997E+02  0.45594000000E+02  0.51100000000E-03 0.  1.
         11   -1    0    0    0    0 -0.00000000000E+00 -0.00000000000E+00 -0.45593999997E+02  0.45594000000E+02  0.51100000000E-03 0. -1.
    9900012    2    1    2    0    0  0.24560493785E+02  0.17141439187E+02  0.31409810908E+02  0.47787274042E+02  0.20000013669E+02 0.  0.
         12    1    1    2    0    0 -0.24560493785E+02 -0.17141439187E+02 -0.31409810908E+02  0.43400725958E+02  0.00000000000E+00 0. -1.
         11    1    3    3    0    0  0.12820254365E+02  0.15941962772E+00  0.91255156485E+01  0.15737197105E+02  0.51100000000E-03 0. -1.
        -11    1    3    3    0    0  0.70720783350E+01  0.62555835512E+01  0.16475222394E+02  0.18988932849E+02  0.51100000000E-03 0.  1.
         12    1    3    3    0    0  0.46681610857E+01  0.10726436008E+02  0.58090728654E+01  0.13061144089E+02  0.00000000000E+00 0. -1.
</event>
<event>
 7    1  0.2751796E-010  0.4778727E+02  0.7816164E-02  0.1312668E+00
        -11   -1    0    0    0    0  0.00000000000E+00  0.00000000000E+00  0.45593999997E+02  0.45594000000E+02  0.51100000000E-03 0.  1.
         11   -1    0    0    0    0 -0.00000000000E+00 -0.00000000000E+00 -0.45593999997E+02  0.45594000000E+02  0.51100000000E-03 0. -1.
    9900012    2    1    2    0    0  0.18636377844E+02  0.19980914312E+02  0.33720499815E+02  0.47787267015E+02  0.19999981627E+02 0.  0.
         12    1    1    2    0    0 -0.18636377844E+02 -0.19980914312E+02 -0.33720499815E+02  0.43400732985E+02  0.00000000000E+00 0. -1.
         11    1    3    3    0    0  0.64120471930E+00  0.53913266891E+01 -0.27980529188E+00  0.54365281406E+01  0.51100000000E-03 0. -1.
        -11    1    3    3    0    0  0.66907394549E+01  0.10341685890E+02  0.22625183062E+02  0.25760733110E+02  0.51100000000E-03 0.  1.
        -12    1    3    3    0    0  0.11304433670E+02  0.42479017333E+01  0.11375122045E+02  0.16590005764E+02  0.00000000000E+00 0.  1.
</event>
<event>
 7    1  0.2751796E-010  0.4778727E+02  0.7816164E-02  0.1312668E+00
        -11   -1    0    0    0    0  0.00000000000E+00  0.00000000000E+00  0.45593999997E+02  0.45594000000E+02  0.51100000000E-03 0.  1.
         11   -1    0    0    0    0 -0.00000000000E+00 -0.00000000000E+00 -0.45593999997E+02  0.45594000000E+02  0.51100000000E-03 0. -1.
    9900012    2    1    2    0    0 -0.22141904042E+02 -0.27302624312E+02  0.25454398545E+02  0.47787267123E+02  0.19999982123E+02 0.  0.
         12    1    1    2    0    0  0.22141904042E+02  0.27302624312E+02 -0.25454398545E+02  0.43400732877E+02  0.00000000000E+00 0. -1.
         11    1    3    3    0    0 -0.58284596390E+01 -0.14148896277E+02  0.47732692326E+01  0.16029544817E+02  0.51100000000E-03 0. -1.
        -11    1    3    3    0    0 -0.15800230082E+02 -0.72252648437E+01  0.11564085508E+02  0.20870548546E+02  0.51100000000E-03 0.  1.
        -12    1    3    3    0    0 -0.51321432092E+00 -0.59284631912E+01  0.91170438044E+01  0.10887173760E+02  0.00000000000E+00 0.  1.
</event>
<event>
 7    1  0.2751796E-010  0.4778727E+02  0.7816164E-02  0.1312668E+00
        -11   -1    0    0    0    0  0.00000000000E+00  0.00000000000E+00  0.45593999997E+02  0.45594000000E+02  0.51100000000E-03 0.  1.
         11   -1    0    0    0    0 -0.00000000000E+00 -0.00000000000E+00 -0.45593999997E+02  0.45594000000E+02  0.51100000000E-03 0. -1.
    9900012    2    1    2    0    0  0.27421037735E+02 -0.82519772210E+01  0.32613108331E+02  0.47787271049E+02  0.20000000019E+02 0.  0.
         12    1    1    2    0    0 -0.27421037735E+02  0.82519772210E+01 -0.32613108331E+02  0.43400728951E+02  0.00000000000E+00 0. -1.
         11    1    3    3    0    0  0.15593782916E+02  0.50396920327E+01  0.10817666515E+02  0.19636355836E+02  0.51100000000E-03 0. -1.
        -11    1    3    3    0    0  0.71966555708E+01 -0.73922462291E+01  0.12666084730E+02  0.16336060062E+02  0.51100000000E-03 0.  1.
         12    1    3    3    0    0  0.46305992481E+01 -0.58994230247E+01  0.91293570859E+01  0.11814855150E+02  0.00000000000E+00 0. -1.
</event>
<event>
 7    1  0.2751796E-010  0.4778727E+02  0.7816164E-02  0.1312668E+00
        -11   -1    0    0    0    0  0.00000000000E+00  0.00000000000E+00  0.45593999997E+02  0.45594000000E+02  0.51100000000E-03 0. -1.
         11   -1    0    0    0    0 -0.00000000000E+00 -0.00000000000E+00 -0.45593999997E+02  0.45594000000E+02  0.51100000000E-03 0.  1.
    9900012    2    1    2    0    0  0.40215388905E+02 -0.13058689534E+02 -0.97885963806E+01  0.47787268482E+02  0.19999988319E+02 0.  0.
         12    1    1    2    0    0 -0.40215388905E+02  0.13058689534E+02  0.97885963806E+01  0.43400731518E+02  0.00000000000E+00 0. -1.
         11    1    3    3    0    0  0.27034851628E+02 -0.12694197747E+02 -0.22762593169E+01  0.29953417430E+02  0.51100000000E-03 0. -1.
        -11    1    3    3    0    0  0.76715281280E+01  0.10740119136E+01  0.76857032900E+00  0.77843783324E+01  0.51100000000E-03 0.  1.
         12    1    3    3    0    0  0.55090091492E+01 -0.14385037003E+01 -0.82809073928E+01  0.10049472720E+02  0.00000000000E+00 0. -1.
</event>
<event>
 7    1  0.2751796E-010  0.4778725E+02  0.7816164E-02  0.1312668E+00
        -11   -1    0    0    0    0  0.00000000000E+00  0.00000000000E+00  0.45593999997E+02  0.45594000000E+02  0.51100000000E-03 0.  1.
         11   -1    0    0    0    0 -0.00000000000E+00 -0.00000000000E+00 -0.45593999997E+02  0.45594000000E+02  0.51100000000E-03 0. -1.
    9900012    2    1    2    0    0  0.28857412671E+02  0.28993415821E+02  0.14500221756E+02  0.47787252795E+02  0.19999916793E+02 0.  0.
         12    1    1    2    0    0 -0.28857412671E+02 -0.28993415821E+02 -0.14500221756E+02  0.43400747205E+02  0.00000000000E+00 0. -1.
         11    1    3    3    0    0 -0.40881867041E+00  0.39389428775E+01  0.74731153341E+01  0.84575325453E+01  0.51100000000E-03 0. -1.
        -11    1    3    3    0    0  0.28062494628E+01  0.31687291474E+01  0.17846852390E+01  0.45935805338E+01  0.51100000000E-03 0.  1.
         12    1    3    3    0    0  0.26459981878E+02  0.21885743796E+02  0.52424211830E+01  0.34736139716E+02  0.00000000000E+00 0. -1.
</event>
<event>
 7    1  0.2751796E-010  0.4778728E+02  0.7816164E-02  0.1312668E+00
        -11   -1    0    0    0    0  0.00000000000E+00  0.00000000000E+00  0.45593999997E+02  0.45594000000E+02  0.51100000000E-03 0. -1.
         11   -1    0    0    0    0 -0.00000000000E+00 -0.00000000000E+00 -0.45593999997E+02  0.45594000000E+02  0.51100000000E-03 0.  1.
    9900012    2    1    2    0    0 -0.27018028554E+02  0.98669974809E+01 -0.32500636871E+02  0.47787275314E+02  0.20000019466E+02 0.  0.
         12    1    1    2    0    0  0.27018028554E+02 -0.98669974809E+01  0.32500636871E+02  0.43400724686E+02  0.00000000000E+00 0. -1.
         11    1    3    3    0    0 -0.47167486986E+01 -0.11467482709E+01  0.14391639863E+01  0.50629974445E+01  0.51100000000E-03 0. -1.
        -11    1    3    3    0    0 -0.22498178629E+02  0.98283266936E+01 -0.33271741566E+02  0.41349399443E+02  0.51100000000E-03 0.  1.
        -12    1    3    3    0    0  0.19689877299E+00  0.11854190582E+01 -0.66805929108E+00  0.13748784262E+01  0.00000000000E+00 0.  1.
</event>
<event>
 7    1  0.2751796E-010  0.4778729E+02  0.7816164E-02  0.1312668E+00
        -11   -1    0    0    0    0  0.00000000000E+00  0.00000000000E+00  0.45593999997E+02  0.45594000000E+02  0.51100000000E-03 0. -1.
         11   -1    0    0    0    0 -0.00000000000E+00 -0.00000000000E+00 -0.45593999997E+02  0.45594000000E+02  0.51100000000E-03 0.  1.
    9900012    2    1    2    0    0  0.27254001324E+02  0.11073635078E+02 -0.31909496752E+02  0.47787286124E+02  0.20000068754E+02 0.  0.
         12    1    1    2    0    0 -0.27254001324E+02 -0.11073635078E+02  0.31909496752E+02  0.43400713876E+02  0.00000000000E+00 0. -1.
         11    1    3    3    0    0  0.20152598606E+00 -0.52780642717E+00  0.19024981616E+01  0.19846137820E+01  0.51100000000E-03 0. -1.
        -11    1    3    3    0    0  0.14250561372E+02  0.55286495226E+01 -0.24399463609E+02  0.28791983079E+02  0.51100000000E-03 0.  1.
        -12    1    3    3    0    0  0.12801913965E+02  0.60727919824E+01 -0.94125313044E+01  0.17010689263E+02  0.00000000000E+00 0.  1.
</event>
<event>
 7    1  0.2751796E-010  0.4778728E+02  0.7816164E-02  0.1312668E+00
        -11   -1    0    0    0    0  0.00000000000E+00  0.00000000000E+00  0.45593999997E+02  0.45594000000E+02  0.51100000000E-03 0. -1.
         11   -1    0    0    0    0 -0.00000000000E+00 -0.00000000000E+00 -0.45593999997E+02  0.45594000000E+02  0.51100000000E-03 0.  1.
    9900012    2    1    2    0    0  0.23665356158E+02  0.86628047262E+00  0.36370635186E+02  0.47787278488E+02  0.20000033937E+02 0.  0.
         12    1    1    2    0    0 -0.23665356158E+02 -0.86628047262E+00 -0.36370635186E+02  0.43400721512E+02  0.00000000000E+00 0. -1.
         11    1    3    3    0    0  0.29976225442E+01 -0.20503598517E+01 -0.12202935635E+01  0.38312965274E+01  0.51100000000E-03 0. -1.
        -11    1    3    3    0    0  0.12850683510E+02  0.38450266685E+00  0.30513160679E+02  0.33111038701E+02  0.51100000000E-03 0.  1.
        -12    1    3    3    0    0  0.78170501034E+01  0.25321376574E+01  0.70777680710E+01  0.10844943260E+02  0.00000000000E+00 0.  1.
</event>
<event>
 7    1  0.2751796E-010  0.4778726E+02  0.7816164E-02  0.1312668E+00
        -11   -1    0    0    0    0  0.00000000000E+00  0.00000000000E+00  0.45593999997E+02  0.45594000000E+02  0.51100000000E-03 0.  1.
         11   -1    0    0    0    0 -0.00000000000E+00 -0.00000000000E+00 -0.45593999997E+02  0.45594000000E+02  0.51100000000E-03 0. -1.
    9900012    2    1    2    0    0 -0.32389852334E+02  0.27134834117E+02  0.99107369518E+01  0.47787257337E+02  0.19999937503E+02 0.  0.
         12    1    1    2    0    0  0.32389852334E+02 -0.27134834117E+02 -0.99107369518E+01  0.43400742663E+02  0.00000000000E+00 0. -1.
         11    1    3    3    0    0 -0.13404217462E+02  0.11651194700E+02 -0.35463491290E+01  0.18110769617E+02  0.51100000000E-03 0. -1.
        -11    1    3    3    0    0 -0.10037517865E+01  0.98670743371E+00 -0.15793917174E+01  0.21155584763E+01  0.51100000000E-03 0.  1.
         12    1    3    3    0    0 -0.17981883085E+02  0.14496931983E+02  0.15036477798E+02  0.27560929244E+02  0.00000000000E+00 0. -1.
</event>
<event>
 7    1  0.2751796E-010  0.4778727E+02  0.7816164E-02  0.1312668E+00
        -11   -1    0    0    0    0  0.00000000000E+00  0.00000000000E+00  0.45593999997E+02  0.45594000000E+02  0.51100000000E-03 0. -1.
         11   -1    0    0    0    0 -0.00000000000E+00 -0.00000000000E+00 -0.45593999997E+02  0.45594000000E+02  0.51100000000E-03 0.  1.
    9900012    2    1    2    0    0  0.41303869259E+02  0.15919358989E+01 -0.13231748225E+02  0.47787273776E+02  0.20000012453E+02 0.  0.
         12    1    1    2    0    0 -0.41303869259E+02 -0.15919358989E+01  0.13231748225E+02  0.43400726224E+02  0.00000000000E+00 0. -1.
         11    1    3    3    0    0  0.61959302682E+00  0.10252413565E+01 -0.21106194102E+01  0.24268765757E+01  0.51100000000E-03 0. -1.
        -11    1    3    3    0    0  0.41869534480E+02 -0.10023528263E+01 -0.11318823404E+02  0.43384079941E+02  0.51100000000E-03 0.  1.
        -12    1    3    3    0    0 -0.11852582476E+01  0.15690473688E+01  0.19769458931E+00  0.19763172593E+01  0.00000000000E+00 0.  1.
</event>
<event>
 7    1  0.2751796E-010  0.4778727E+02  0.7816164E-02  0.1312668E+00
        -11   -1    0    0    0    0  0.00000000000E+00  0.00000000000E+00  0.45593999997E+02  0.45594000000E+02  0.51100000000E-03 0.  1.
         11   -1    0    0    0    0 -0.00000000000E+00 -0.00000000000E+00 -0.45593999997E+02  0.45594000000E+02  0.51100000000E-03 0. -1.
    9900012    2    1    2    0    0  0.39783897954E+02  0.28492059718E+01 -0.17109840147E+02  0.47787272576E+02  0.20000006981E+02 0.  0.
         12    1    1    2    0    0 -0.39783897954E+02 -0.28492059718E+01  0.17109840147E+02  0.43400727424E+02  0.00000000000E+00 0. -1.
         11    1    3    3    0    0  0.50320332663E+01 -0.48059506891E+01 -0.29465839834E+01  0.75565123074E+01  0.51100000000E-03 0. -1.
        -11    1    3    3    0    0  0.34813335631E+02  0.92726033346E+01 -0.13367010629E+02  0.38426897920E+02  0.51100000000E-03 0.  1.
        -12    1    3    3    0    0 -0.61470942885E-01 -0.16174466736E+01 -0.79624553550E+00  0.18038623483E+01  0.00000000000E+00 0.  1.
</event>
<event>
 7    1  0.2751796E-010  0.4778727E+02  0.7816164E-02  0.1312668E+00
        -11   -1    0    0    0    0  0.00000000000E+00  0.00000000000E+00  0.45593999997E+02  0.45594000000E+02  0.51100000000E-03 0.  1.
         11   -1    0    0    0    0 -0.00000000000E+00 -0.00000000000E+00 -0.45593999997E+02  0.45594000000E+02  0.51100000000E-03 0. -1.
    9900012    2    1    2    0    0  0.11139083291E+01 -0.17956127361E+02  0.39496326219E+02  0.47787273205E+02  0.20000009849E+02 0.  0.
         12    1    1    2    0    0 -0.11139083291E+01  0.17956127361E+02 -0.39496326219E+02  0.43400726795E+02  0.00000000000E+00 0. -1.
         11    1    3    3    0    0  0.79163586855E+01 -0.21205110331E+01  0.16189025751E+02  0.18145243368E+02  0.51100000000E-03 0. -1.
        -11    1    3    3    0    0 -0.56395932231E+01 -0.53836329881E+01  0.97488737323E+01  0.12483150852E+02  0.51100000000E-03 0.  1.
         12    1    3    3    0    0 -0.11628571333E+01 -0.10451983340E+02  0.13558426736E+02  0.17158878985E+02  0.00000000000E+00 0. -1.
</event>
<event>
 7    1  0.2751796E-010  0.4778727E+02  0.7816164E-02  0.1312668E+00
        -11   -1    0    0    0    0  0.00000000000E+00  0.00000000000E+00  0.45593999997E+02  0.45594000000E+02  0.51100000000E-03 0.  1.
         11   -1    0    0    0    0 -0.00000000000E+00 -0.00000000000E+00 -0.45593999997E+02  0.45594000000E+02  0.51100000000E-03 0. -1.
    9900012    2    1    2    0    0 -0.16129165519E+02 -0.10244730573E+02  0.38968173314E+02  0.47787274012E+02  0.20000013530E+02 0.  0.
         12    1    1    2    0    0  0.16129165519E+02  0.10244730573E+02 -0.38968173314E+02  0.43400725988E+02  0.00000000000E+00 0. -1.
         11    1    3    3    0    0  0.34428042618E+01 -0.78362277234E+00  0.46498650139E+01  0.58385110039E+01  0.51100000000E-03 0. -1.
        -11    1    3    3    0    0 -0.13196019748E+02 -0.38760077416E+01  0.12668894552E+02  0.18699178127E+02  0.51100000000E-03 0.  1.
        -12    1    3    3    0    0 -0.63759500330E+01 -0.55851000594E+01  0.21649413748E+02  0.23249584881E+02  0.00000000000E+00 0.  1.
</event>
<event>
 7    1  0.2751796E-010  0.4778721E+02  0.7816164E-02  0.1312668E+00
        -11   -1    0    0    0    0  0.00000000000E+00  0.00000000000E+00  0.45593999997E+02  0.45594000000E+02  0.51100000000E-03 0. -1.
         11   -1    0    0    0    0 -0.00000000000E+00 -0.00000000000E+00 -0.45593999997E+02  0.45594000000E+02  0.51100000000E-03 0.  1.
    9900012    2    1    2    0    0 -0.25619350053E+02 -0.26507278330E+02 -0.22905058392E+02  0.47787209667E+02  0.19999720152E+02 0.  0.
         12    1    1    2    0    0  0.25619350053E+02  0.26507278330E+02  0.22905058392E+02  0.43400790333E+02  0.00000000000E+00 0. -1.
         11    1    3    3    0    0 -0.46683218586E+01 -0.15398367257E+02 -0.11974079905E+02  0.20056957222E+02  0.51100000000E-03 0. -1.
        -11    1    3    3    0    0 -0.53226874345E+01 -0.31812329835E+01 -0.77407015838E+01  0.99181503362E+01  0.51100000000E-03 0.  1.
         12    1    3    3    0    0 -0.15628340760E+02 -0.79276780901E+01 -0.31902769027E+01  0.17812102109E+02  0.00000000000E+00 0. -1.
</event>
<event>
 7    1  0.2751796E-010  0.4778727E+02  0.7816164E-02  0.1312668E+00
        -11   -1    0    0    0    0  0.00000000000E+00  0.00000000000E+00  0.45593999997E+02  0.45594000000E+02  0.51100000000E-03 0.  1.
         11   -1    0    0    0    0 -0.00000000000E+00 -0.00000000000E+00 -0.45593999997E+02  0.45594000000E+02  0.51100000000E-03 0. -1.
    9900012    2    1    2    0    0  0.22716017741E+02 -0.19936203380E+02  0.31147287717E+02  0.47787271903E+02  0.20000003913E+02 0.  0.
         12    1    1    2    0    0 -0.22716017741E+02  0.19936203380E+02 -0.31147287717E+02  0.43400728097E+02  0.00000000000E+00 0. -1.
         11    1    3    3    0    0  0.11821000520E+02 -0.20141016927E+02  0.25575297646E+02  0.34633689756E+02  0.51100000000E-03 0. -1.
        -11    1    3    3    0    0  0.50891269495E+01  0.10841460433E+01  0.21927106111E+00  0.52079425698E+01  0.51100000000E-03 0.  1.
         12    1    3    3    0    0  0.58058902714E+01 -0.87933249632E+00  0.53527190099E+01  0.79456395766E+01  0.00000000000E+00 0. -1.
</event>
<event>
 7    1  0.2751796E-010  0.4778727E+02  0.7816164E-02  0.1312668E+00
        -11   -1    0    0    0    0  0.00000000000E+00  0.00000000000E+00  0.45593999997E+02  0.45594000000E+02  0.51100000000E-03 0. -1.
         11   -1    0    0    0    0 -0.00000000000E+00 -0.00000000000E+00 -0.45593999997E+02  0.45594000000E+02  0.51100000000E-03 0.  1.
    9900012    2    1    2    0    0  0.16648669638E+02  0.23221594245E+02 -0.32668065000E+02  0.47787272923E+02  0.20000008564E+02 0.  0.
         12    1    1    2    0    0 -0.16648669638E+02 -0.23221594245E+02  0.32668065000E+02  0.43400727077E+02  0.00000000000E+00 0. -1.
         11    1    3    3    0    0  0.19598853464E+02  0.18597628517E+02 -0.21584125658E+02  0.34581227917E+02  0.51100000000E-03 0. -1.
        -11    1    3    3    0    0 -0.22785234140E+01  0.42108140593E+01 -0.11393751816E+02  0.12358810812E+02  0.51100000000E-03 0.  1.
        -12    1    3    3    0    0 -0.67166041174E+00  0.41315166874E+00  0.30981247387E+00  0.84723419375E+00  0.00000000000E+00 0.  1.
</event>
<event>
 7    1  0.2751796E-010  0.4778726E+02  0.7816164E-02  0.1312668E+00
        -11   -1    0    0    0    0  0.00000000000E+00  0.00000000000E+00  0.45593999997E+02  0.45594000000E+02  0.51100000000E-03 0. -1.
         11   -1    0    0    0    0 -0.00000000000E+00 -0.00000000000E+00 -0.45593999997E+02  0.45594000000E+02  0.51100000000E-03 0.  1.
    9900012    2    1    2    0    0 -0.40754633808E+02 -0.82103556663E+01 -0.12460906340E+02  0.47787259179E+02  0.19999945902E+02 0.  0.
         12    1    1    2    0    0  0.40754633808E+02  0.82103556663E+01  0.12460906340E+02  0.43400740821E+02  0.00000000000E+00 0. -1.
         11    1    3    3    0    0 -0.25393831635E+01 -0.35766318677E+01 -0.34233293608E+01  0.55641662935E+01  0.51100000000E-03 0. -1.
        -11    1    3    3    0    0 -0.26543030629E+02  0.19775849304E+01 -0.11069453287E+01  0.26639606705E+02  0.51100000000E-03 0.  1.
        -12    1    3    3    0    0 -0.11672220015E+02 -0.66113087289E+01 -0.79306316504E+01  0.15583486181E+02  0.00000000000E+00 0.  1.
</event>
<event>
 7    1  0.2751796E-010  0.4778728E+02  0.7816164E-02  0.1312668E+00
        -11   -1    0    0    0    0  0.00000000000E+00  0.00000000000E+00  0.45593999997E+02  0.45594000000E+02  0.51100000000E-03 0.  1.
         11   -1    0    0    0    0 -0.00000000000E+00 -0.00000000000E+00 -0.45593999997E+02  0.45594000000E+02  0.51100000000E-03 0. -1.
    9900012    2    1    2    0    0  0.29151398948E+02  0.26626530497E+02  0.18023486504E+02  0.47787282810E+02  0.20000053642E+02 0.  0.
         12    1    1    2    0    0 -0.29151398948E+02 -0.26626530497E+02 -0.18023486504E+02  0.43400717190E+02  0.00000000000E+00 0. -1.
         11    1    3    3    0    0  0.41916433501E+01  0.48004039488E+01  0.11885758180E+02  0.13486474700E+02  0.51100000000E-03 0. -1.
        -11    1    3    3    0    0  0.16745666418E+02  0.14974297646E+02  0.71033047888E+01  0.23560642456E+02  0.51100000000E-03 0.  1.
         12    1    3    3    0    0  0.82140891798E+01  0.68518289020E+01 -0.96557646567E+00  0.10740165654E+02  0.00000000000E+00 0. -1.
</event>
<event>
 7    1  0.2751796E-010  0.4778727E+02  0.7816164E-02  0.1312668E+00
        -11   -1    0    0    0    0  0.00000000000E+00  0.00000000000E+00  0.45593999997E+02  0.45594000000E+02  0.51100000000E-03 0.  1.
         11   -1    0    0    0    0 -0.00000000000E+00 -0.00000000000E+00 -0.45593999997E+02  0.45594000000E+02  0.51100000000E-03 0. -1.
    9900012    2    1    2    0    0  0.26100512704E+02  0.13766691860E+02  0.31825531221E+02  0.47787274135E+02  0.20000014090E+02 0.  0.
         12    1    1    2    0    0 -0.26100512704E+02 -0.13766691860E+02 -0.31825531221E+02  0.43400725865E+02  0.00000000000E+00 0. -1.
         11    1    3    3    0    0  0.37501943149E+01 -0.35834455157E+01  0.13055638705E+01  0.53487883156E+01  0.51100000000E-03 0. -1.
        -11    1    3    3    0    0  0.98410967682E+01  0.40078793792E+01  0.15391299611E+02  0.18703004751E+02  0.51100000000E-03 0.  1.
         12    1    3    3    0    0  0.12509221620E+02  0.13342257997E+02  0.15128667739E+02  0.23735481069E+02  0.00000000000E+00 0. -1.
</event>
<event>
 7    1  0.2751796E-010  0.4778723E+02  0.7816164E-02  0.1312668E+00
        -11   -1    0    0    0    0  0.00000000000E+00  0.00000000000E+00  0.45593999997E+02  0.45594000000E+02  0.51100000000E-03 0.  1.
         11   -1    0    0    0    0 -0.00000000000E+00 -0.00000000000E+00 -0.45593999997E+02  0.45594000000E+02  0.51100000000E-03 0. -1.
    9900012    2    1    2    0    0 -0.22959059834E+02  0.12762866822E+02  0.34548767305E+02  0.47787233644E+02  0.19999829475E+02 0.  0.
         12    1    1    2    0    0  0.22959059834E+02 -0.12762866822E+02 -0.34548767305E+02  0.43400766356E+02  0.00000000000E+00 0. -1.
         11    1    3    3    0    0 -0.79750199406E+01  0.50590506973E+00  0.20408808506E+02  0.21917489544E+02  0.51100000000E-03 0. -1.
        -11    1    3    3    0    0 -0.11304158936E+02  0.13146026321E+02  0.13621297370E+02  0.22048622623E+02  0.51100000000E-03 0.  1.
         12    1    3    3    0    0 -0.36798809573E+01 -0.88906456789E+00  0.51866142920E+00  0.38211214772E+01  0.00000000000E+00 0. -1.
</event>
<event>
 7    1  0.2751796E-010  0.4778727E+02  0.7816164E-02  0.1312668E+00
        -11   -1    0    0    0    0  0.00000000000E+00  0.00000000000E+00  0.45593999997E+02  0.45594000000E+02  0.51100000000E-03 0.  1.
         11   -1    0    0    0    0 -0.00000000000E+00 -0.00000000000E+00 -0.45593999997E+02  0.45594000000E+02  0.51100000000E-03 0. -1.
    9900012    2    1    2    0    0 -0.11583065274E+02  0.28342367970E+02  0.30759812008E+02  0.47787271227E+02  0.20000000831E+02 0.  0.
         12    1    1    2    0    0  0.11583065274E+02 -0.28342367970E+02 -0.30759812008E+02  0.43400728773E+02  0.00000000000E+00 0. -1.
         11    1    3    3    0    0  0.45923151542E+01  0.62602761335E+01  0.51021333066E+01  0.92904348812E+01  0.51100000000E-03 0. -1.
        -11    1    3    3    0    0 -0.14580881071E+02  0.21593190775E+02  0.20733322945E+02  0.33297727570E+02  0.51100000000E-03 0.  1.
         12    1    3    3    0    0 -0.15944993568E+01  0.48890106058E+00  0.49243557566E+01  0.51991087759E+01  0.00000000000E+00 0. -1.
</event>
<event>
 7    1  0.2751796E-010  0.4778727E+02  0.7816164E-02  0.1312668E+00
        -11   -1    0    0    0    0  0.00000000000E+00  0.00000000000E+00  0.45593999997E+02  0.45594000000E+02  0.51100000000E-03 0.  1.
         11   -1    0    0    0    0 -0.00000000000E+00 -0.00000000000E+00 -0.45593999997E+02  0.45594000000E+02  0.51100000000E-03 0. -1.
    9900012    2    1    2    0    0  0.35051990506E+02 -0.12215809085E+02  0.22489004442E+02  0.47787270158E+02  0.19999995957E+02 0.  0.
         12    1    1    2    0    0 -0.35051990506E+02  0.12215809085E+02 -0.22489004442E+02  0.43400729842E+02  0.00000000000E+00 0. -1.
         11    1    3    3    0    0  0.17360262297E+01  0.18301309107E+01 -0.77188998329E+00  0.26379879886E+01  0.51100000000E-03 0. -1.
        -11    1    3    3    0    0  0.14658705945E+02 -0.68856565172E+01  0.18535535671E+02  0.24614142450E+02  0.51100000000E-03 0.  1.
        -12    1    3    3    0    0  0.18657258331E+02 -0.71602834789E+01  0.47253587539E+01  0.20535139719E+02  0.00000000000E+00 0.  1.
</event>
<event>
 7    1  0.2751796E-010  0.4778727E+02  0.7816164E-02  0.1312668E+00
        -11   -1    0    0    0    0  0.00000000000E+00  0.00000000000E+00  0.45593999997E+02  0.45594000000E+02  0.51100000000E-03 0.  1.
         11   -1    0    0    0    0 -0.00000000000E+00 -0.00000000000E+00 -0.45593999997E+02  0.45594000000E+02  0.51100000000E-03 0. -1.
    9900012    2    1    2    0    0 -0.25063737283E+02  0.15059724498E+02  0.32072372879E+02  0.47787270390E+02  0.19999997017E+02 0.  0.
         12    1    1    2    0    0  0.25063737283E+02 -0.15059724498E+02 -0.32072372879E+02  0.43400729610E+02  0.00000000000E+00 0. -1.
         11    1    3    3    0    0 -0.57384635608E+01  0.17040163231E+01  0.16873477569E+02  0.17903851015E+02  0.51100000000E-03 0. -1.
        -11    1    3    3    0    0 -0.80964688244E+01  0.83123166685E+01  0.12918119704E+02  0.17364481932E+02  0.51100000000E-03 0.  1.
         12    1    3    3    0    0 -0.11228804898E+02  0.50433915064E+01  0.22807756071E+01  0.12518937443E+02  0.00000000000E+00 0. -1.
</event>
<event>
 7    1  0.2751796E-010  0.4778727E+02  0.7816164E-02  0.1312668E+00
        -11   -1    0    0    0    0  0.00000000000E+00  0.00000000000E+00  0.45593999997E+02  0.45594000000E+02  0.51100000000E-03 0.  1.
         11   -1    0    0    0    0 -0.00000000000E+00 -0.00000000000E+00 -0.45593999997E+02  0.45594000000E+02  0.51100000000E-03 0. -1.
    9900012    2    1    2    0    0  0.29967477880E+02 -0.28751874187E+02  0.12605684029E+02  0.47787271094E+02  0.20000000225E+02 0.  0.
         12    1    1    2    0    0 -0.29967477880E+02  0.28751874187E+02 -0.12605684029E+02  0.43400728906E+02  0.00000000000E+00 0. -1.
         11    1    3    3    0    0  0.25879189063E+01 -0.33465968823E+01 -0.17777814625E+01  0.45888497630E+01  0.51100000000E-03 0. -1.
        -11    1    3    3    0    0  0.14140251539E+02 -0.14246779082E+02 -0.91488387921E+00  0.20093641795E+02  0.51100000000E-03 0.  1.
        -12    1    3    3    0    0  0.13239307434E+02 -0.11158498223E+02  0.15298349370E+02  0.23104779535E+02  0.00000000000E+00 0.  1.
</event>
<event>
 7    1  0.2751796E-010  0.4778727E+02  0.7816164E-02  0.1312668E+00
        -11   -1    0    0    0    0  0.00000000000E+00  0.00000000000E+00  0.45593999997E+02  0.45594000000E+02  0.51100000000E-03 0. -1.
         11   -1    0    0    0    0 -0.00000000000E+00 -0.00000000000E+00 -0.45593999997E+02  0.45594000000E+02  0.51100000000E-03 0.  1.
    9900012    2    1    2    0    0  0.15261882032E+01  0.43207170481E+02 -0.37992480931E+01  0.47787272846E+02  0.20000008213E+02 0.  0.
         12    1    1    2    0    0 -0.15261882032E+01 -0.43207170481E+02  0.37992480931E+01  0.43400727154E+02  0.00000000000E+00 0. -1.
         11    1    3    3    0    0  0.43312986440E+01  0.20715697894E+02 -0.89565478323E+01  0.22980862397E+02  0.51100000000E-03 0. -1.
        -11    1    3    3    0    0  0.45370900000E-01  0.10017841395E+02  0.64985509609E+01  0.11941120952E+02  0.51100000000E-03 0.  1.
         12    1    3    3    0    0 -0.28504813408E+01  0.12473631192E+02 -0.13412512216E+01  0.12865289497E+02  0.00000000000E+00 0. -1.
</event>
<event>
 7    1  0.2751796E-010  0.4778727E+02  0.7816164E-02  0.1312668E+00
        -11   -1    0    0    0    0  0.00000000000E+00  0.00000000000E+00  0.45593999997E+02  0.45594000000E+02  0.51100000000E-03 0.  1.
         11   -1    0    0    0    0 -0.00000000000E+00 -0.00000000000E+00 -0.45593999997E+02  0.45594000000E+02  0.51100000000E-03 0. -1.
    9900012    2    1    2    0    0 -0.40657606767E+02  0.11379198445E+02  0.10054668119E+02  0.47787268483E+02  0.19999988320E+02 0.  0.
         12    1    1    2    0    0  0.40657606767E+02 -0.11379198445E+02 -0.10054668119E+02  0.43400731517E+02  0.00000000000E+00 0. -1.
         11    1    3    3    0    0 -0.29840579606E+01 -0.29785219244E+01 -0.97815994772E+00  0.43281626484E+01  0.51100000000E-03 0. -1.
        -11    1    3    3    0    0 -0.23235684928E+02  0.11321598579E+02  0.14937821568E+01  0.25890288408E+02  0.51100000000E-03 0.  1.
        -12    1    3    3    0    0 -0.14437863878E+02  0.30361217907E+01  0.95390459099E+01  0.17568817426E+02  0.00000000000E+00 0.  1.
</event>
<event>
 7    1  0.2751796E-010  0.4778727E+02  0.7816164E-02  0.1312668E+00
        -11   -1    0    0    0    0  0.00000000000E+00  0.00000000000E+00  0.45593999997E+02  0.45594000000E+02  0.51100000000E-03 0.  1.
         11   -1    0    0    0    0 -0.00000000000E+00 -0.00000000000E+00 -0.45593999997E+02  0.45594000000E+02  0.51100000000E-03 0. -1.
    9900012    2    1    2    0    0 -0.33508122258E+02  0.87402193650E+01  0.26161757595E+02  0.47787271293E+02  0.20000001134E+02 0.  0.
         12    1    1    2    0    0  0.33508122258E+02 -0.87402193650E+01 -0.26161757595E+02  0.43400728707E+02  0.00000000000E+00 0. -1.
         11    1    3    3    0    0 -0.26895732729E+02  0.14444538315E+02  0.16453834032E+02  0.34680740776E+02  0.51100000000E-03 0. -1.
        -11    1    3    3    0    0 -0.55280704233E+01 -0.43713322545E+01  0.82729735329E+01  0.10867851656E+02  0.51100000000E-03 0.  1.
         12    1    3    3    0    0 -0.10843191063E+01 -0.13329866957E+01  0.14349500298E+01  0.22386788611E+01  0.00000000000E+00 0. -1.
</event>
<event>
 7    1  0.2751796E-010  0.4778726E+02  0.7816164E-02  0.1312668E+00
        -11   -1    0    0    0    0  0.00000000000E+00  0.00000000000E+00  0.45593999997E+02  0.45594000000E+02  0.51100000000E-03 0. -1.
         11   -1    0    0    0    0 -0.00000000000E+00 -0.00000000000E+00 -0.45593999997E+02  0.45594000000E+02  0.51100000000E-03 0.  1.
    9900012    2    1    2    0    0 -0.87777004515E+01  0.40620767564E+02 -0.12511158581E+02  0.47787264157E+02  0.19999968596E+02 0.  0.
         12    1    1    2    0    0  0.87777004515E+01 -0.40620767564E+02  0.12511158581E+02  0.43400735843E+02  0.00000000000E+00 0. -1.
         11    1    3    3    0    0 -0.37093175614E+01  0.16176696215E+02  0.74342460948E+00  0.16613163986E+02  0.51100000000E-03 0. -1.
        -11    1    3    3    0    0 -0.67422864789E+01  0.12131473149E+02 -0.13143613854E+01  0.13941255820E+02  0.51100000000E-03 0.  1.
         12    1    3    3    0    0  0.16739035887E+01  0.12312598200E+02 -0.11940221805E+02  0.17232844351E+02  0.00000000000E+00 0. -1.
</event>
<event>
 7    1  0.2751796E-010  0.4778727E+02  0.7816164E-02  0.1312668E+00
        -11   -1    0    0    0    0  0.00000000000E+00  0.00000000000E+00  0.45593999997E+02  0.45594000000E+02  0.51100000000E-03 0. -1.
         11   -1    0    0    0    0 -0.00000000000E+00 -0.00000000000E+00 -0.45593999997E+02  0.45594000000E+02  0.51100000000E-03 0.  1.
    9900012    2    1    2    0    0 -0.22448398236E+02  0.22261325184E+02 -0.29734258390E+02  0.47787270694E+02  0.19999998402E+02 0.  0.
         12    1    1    2    0    0  0.22448398236E+02 -0.22261325184E+02  0.29734258390E+02  0.43400729306E+02  0.00000000000E+00 0. -1.
         11    1    3    3    0    0 -0.17423728494E+02  0.32893020967E+01 -0.14476009820E+02  0.22890187493E+02  0.51100000000E-03 0. -1.
        -11    1    3    3    0    0 -0.49939256393E+01  0.17504875371E+02 -0.14006962191E+02  0.22968564281E+02  0.51100000000E-03 0.  1.
         12    1    3    3    0    0 -0.30744102684E-01  0.14671477163E+01 -0.12512863790E+01  0.19285189197E+01  0.00000000000E+00 0. -1.
</event>
<event>
 7    1  0.2751796E-010  0.4778727E+02  0.7816164E-02  0.1312668E+00
        -11   -1    0    0    0    0  0.00000000000E+00  0.00000000000E+00  0.45593999997E+02  0.45594000000E+02  0.51100000000E-03 0.  1.
         11   -1    0    0    0    0 -0.00000000000E+00 -0.00000000000E+00 -0.45593999997E+02  0.45594000000E+02  0.51100000000E-03 0. -1.
    9900012    2    1    2    0    0  0.19817933047E+02  0.10947170957E+01  0.38596298503E+02  0.47787272657E+02  0.20000007350E+02 0.  0.
         12    1    1    2    0    0 -0.19817933047E+02 -0.10947170957E+01 -0.38596298503E+02  0.43400727343E+02  0.00000000000E+00 0. -1.
         11    1    3    3    0    0  0.17846677826E+01 -0.33457335121E+01 -0.19805863741E+00  0.37971304051E+01  0.51100000000E-03 0. -1.
        -11    1    3    3    0    0  0.15755554504E+02  0.20304732622E+01  0.36892698882E+02  0.40167543496E+02  0.51100000000E-03 0.  1.
        -12    1    3    3    0    0  0.22777107603E+01  0.24099773456E+01  0.19016582585E+01  0.38225987556E+01  0.00000000000E+00 0.  1.
</event>
<event>
 7    1  0.2751796E-010  0.4778726E+02  0.7816164E-02  0.1312668E+00
        -11   -1    0    0    0    0  0.00000000000E+00  0.00000000000E+00  0.45593999997E+02  0.45594000000E+02  0.51100000000E-03 0.  1.
         11   -1    0    0    0    0 -0.00000000000E+00 -0.00000000000E+00 -0.45593999997E+02  0.45594000000E+02  0.51100000000E-03 0. -1.
    9900012    2    1    2    0    0 -0.14346242121E+02  0.34120111717E+02  0.22663344735E+02  0.47787264049E+02  0.19999968103E+02 0.  0.
         12    1    1    2    0    0  0.14346242121E+02 -0.34120111717E+02 -0.22663344735E+02  0.43400735951E+02  0.00000000000E+00 0. -1.
         11    1    3    3    0    0  0.85986392547E-01  0.23835557513E+00 -0.91463171387E+00  0.94908296425E+00  0.51100000000E-03 0. -1.
        -11    1    3    3    0    0 -0.47313493402E+01  0.20513464552E+02  0.43622588041E+01  0.21499237117E+02  0.51100000000E-03 0.  1.
        -12    1    3    3    0    0 -0.97008791731E+01  0.13368291590E+02  0.19215717644E+02  0.25338943967E+02  0.00000000000E+00 0.  1.
</event>
<event>
 7    1  0.2751796E-010  0.4778727E+02  0.7816164E-02  0.1312668E+00
        -11   -1    0    0    0    0  0.00000000000E+00  0.00000000000E+00  0.45593999997E+02  0.45594000000E+02  0.51100000000E-03 0.  1.
         11   -1    0    0    0    0 -0.00000000000E+00 -0.00000000000E+00 -0.45593999997E+02  0.45594000000E+02  0.51100000000E-03 0. -1.
    9900012    2    1    2    0    0 -0.22941812231E+02  0.32187631966E+02  0.17923528537E+02  0.47787271028E+02  0.19999999927E+02 0.  0.
         12    1    1    2    0    0  0.22941812231E+02 -0.32187631966E+02 -0.17923528537E+02  0.43400728972E+02  0.00000000000E+00 0. -1.
         11    1    3    3    0    0  0.31711778741E+01  0.40405241500E+01  0.42085207591E+00  0.51535736385E+01  0.51100000000E-03 0. -1.
        -11    1    3    3    0    0 -0.14663700741E+02  0.14795978877E+02  0.12716644990E+02  0.24406109284E+02  0.51100000000E-03 0.  1.
         12    1    3    3    0    0 -0.11449289363E+02  0.13351128940E+02  0.47860314720E+01  0.18227588106E+02  0.00000000000E+00 0. -1.
</event>
<event>
 7    1  0.2751796E-010  0.4778727E+02  0.7816164E-02  0.1312668E+00
        -11   -1    0    0    0    0  0.00000000000E+00  0.00000000000E+00  0.45593999997E+02  0.45594000000E+02  0.51100000000E-03 0. -1.
         11   -1    0    0    0    0 -0.00000000000E+00 -0.00000000000E+00 -0.45593999997E+02  0.45594000000E+02  0.51100000000E-03 0.  1.
    9900012    2    1    2    0    0  0.25323699039E+02 -0.24583829758E+02 -0.25258044618E+02  0.47787271474E+02  0.20000001960E+02 0.  0.
         12    1    1    2    0    0 -0.25323699039E+02  0.24583829758E+02  0.25258044618E+02  0.43400728526E+02  0.00000000000E+00 0. -1.
         11    1    3    3    0    0  0.64412920708E+01 -0.15045061477E+02 -0.71510332287E+01  0.17860050248E+02  0.51100000000E-03 0. -1.
        -11    1    3    3    0    0  0.20341092848E+02 -0.92111062165E+01 -0.16843336529E+02  0.27969671462E+02  0.51100000000E-03 0.  1.
        -12    1    3    3    0    0 -0.14586858799E+01 -0.32766206525E+00 -0.12636748606E+01  0.19575497640E+01  0.00000000000E+00 0.  1.
</event>
<event>
 7    1  0.2751796E-010  0.4778727E+02  0.7816164E-02  0.1312668E+00
        -11   -1    0    0    0    0  0.00000000000E+00  0.00000000000E+00  0.45593999997E+02  0.45594000000E+02  0.51100000000E-03 0. -1.
         11   -1    0    0    0    0 -0.00000000000E+00 -0.00000000000E+00 -0.45593999997E+02  0.45594000000E+02  0.51100000000E-03 0.  1.
    9900012    2    1    2    0    0 -0.76775723614E+01 -0.22325099336E+02 -0.36417960121E+02  0.47787274233E+02  0.20000014536E+02 0.  0.
         12    1    1    2    0    0  0.76775723614E+01  0.22325099336E+02  0.36417960121E+02  0.43400725767E+02  0.00000000000E+00 0. -1.
         11    1    3    3    0    0 -0.29139312840E+01 -0.80958025724E+00 -0.42384565095E+00  0.30538600357E+01  0.51100000000E-03 0. -1.
        -11    1    3    3    0    0  0.18101758870E+01 -0.17227661578E+02 -0.30751734457E+02  0.35295017106E+02  0.51100000000E-03 0.  1.
        -12    1    3    3    0    0 -0.65738169645E+01 -0.42878575011E+01 -0.52423800135E+01  0.94383970905E+01  0.00000000000E+00 0.  1.
</event>
<event>
 7    1  0.2751796E-010  0.4778727E+02  0.7816164E-02  0.1312668E+00
        -11   -1    0    0    0    0  0.00000000000E+00  0.00000000000E+00  0.45593999997E+02  0.45594000000E+02  0.51100000000E-03 0. -1.
         11   -1    0    0    0    0 -0.00000000000E+00 -0.00000000000E+00 -0.45593999997E+02  0.45594000000E+02  0.51100000000E-03 0.  1.
    9900012    2    1    2    0    0 -0.19612799225E+02  0.50749992836E+01 -0.38382364571E+02  0.47787269347E+02  0.19999992262E+02 0.  0.
         12    1    1    2    0    0  0.19612799225E+02 -0.50749992836E+01  0.38382364571E+02  0.43400730653E+02  0.00000000000E+00 0. -1.
         11    1    3    3    0    0  0.34296148201E+01  0.31700404929E+00 -0.74388932011E+01  0.81975533972E+01  0.51100000000E-03 0. -1.
        -11    1    3    3    0    0 -0.28116633760E+01  0.34081641987E+01 -0.53946848229E+01  0.69730666672E+01  0.51100000000E-03 0.  1.
         12    1    3    3    0    0 -0.20230750669E+02  0.13498310357E+01 -0.25548786547E+02  0.32616649283E+02  0.00000000000E+00 0. -1.
</event>
<event>
 7    1  0.2751796E-010  0.4778728E+02  0.7816164E-02  0.1312668E+00
        -11   -1    0    0    0    0  0.00000000000E+00  0.00000000000E+00  0.45593999997E+02  0.45594000000E+02  0.51100000000E-03 0.  1.
         11   -1    0    0    0    0 -0.00000000000E+00 -0.00000000000E+00 -0.45593999997E+02  0.45594000000E+02  0.51100000000E-03 0. -1.
    9900012    2    1    2    0    0 -0.10701724546E+02 -0.75481320655E+01  0.41377790390E+02  0.47787277154E+02  0.20000027857E+02 0.  0.
         12    1    1    2    0    0  0.10701724546E+02  0.75481320655E+01 -0.41377790390E+02  0.43400722846E+02  0.00000000000E+00 0. -1.
         11    1    3    3    0    0  0.33305612385E+01 -0.27300974441E+01  0.23887679864E+02  0.24272769100E+02  0.51100000000E-03 0. -1.
        -11    1    3    3    0    0 -0.30476655733E+01 -0.25460421340E+01  0.75325732679E+01  0.85152954319E+01  0.51100000000E-03 0.  1.
         12    1    3    3    0    0 -0.10984620211E+02 -0.22719924873E+01  0.99575372581E+01  0.14999212622E+02  0.00000000000E+00 0. -1.
</event>
<event>
 7    1  0.2751796E-010  0.4778727E+02  0.7816164E-02  0.1312668E+00
        -11   -1    0    0    0    0  0.00000000000E+00  0.00000000000E+00  0.45593999997E+02  0.45594000000E+02  0.51100000000E-03 0.  1.
         11   -1    0    0    0    0 -0.00000000000E+00 -0.00000000000E+00 -0.45593999997E+02  0.45594000000E+02  0.51100000000E-03 0. -1.
    9900012    2    1    2    0    0  0.18856033865E+02 -0.38894876886E+02  0.39066466443E+01  0.47787270177E+02  0.19999996046E+02 0.  0.
         12    1    1    2    0    0 -0.18856033865E+02  0.38894876886E+02 -0.39066466443E+01  0.43400729823E+02  0.00000000000E+00 0. -1.
         11    1    3    3    0    0  0.12025154318E+02 -0.22852838049E+02 -0.44734193270E+00  0.25827440026E+02  0.51100000000E-03 0. -1.
        -11    1    3    3    0    0 -0.32616328188E+01 -0.15407576429E+01 -0.48948597239E+00  0.36402993747E+01  0.51100000000E-03 0.  1.
        -12    1    3    3    0    0  0.10092512366E+02 -0.14501281195E+02  0.48434745493E+01  0.18319530776E+02  0.00000000000E+00 0.  1.
</event>
<event>
 7    1  0.2751796E-010  0.4778727E+02  0.7816164E-02  0.1312668E+00
        -11   -1    0    0    0    0  0.00000000000E+00  0.00000000000E+00  0.45593999997E+02  0.45594000000E+02  0.51100000000E-03 0.  1.
         11   -1    0    0    0    0 -0.00000000000E+00 -0.00000000000E+00 -0.45593999997E+02  0.45594000000E+02  0.51100000000E-03 0. -1.
    9900012    2    1    2    0    0 -0.26616456976E+02 -0.11498333412E+02  0.32295138446E+02  0.47787269355E+02  0.19999992299E+02 0.  0.
         12    1    1    2    0    0  0.26616456976E+02  0.11498333412E+02 -0.32295138446E+02  0.43400730645E+02  0.00000000000E+00 0. -1.
         11    1    3    3    0    0 -0.63434865610E+01 -0.33358140886E+01  0.19196816663E+02  0.20491101670E+02  0.51100000000E-03 0. -1.
        -11    1    3    3    0    0 -0.16689910242E+02 -0.39559060325E+01  0.57259747129E+01  0.18082839464E+02  0.51100000000E-03 0.  1.
        -12    1    3    3    0    0 -0.35830601735E+01 -0.42066132909E+01  0.73723470700E+01  0.92133282209E+01  0.00000000000E+00 0.  1.
</event>
<event>
 7    1  0.2751796E-010  0.4778727E+02  0.7816164E-02  0.1312668E+00
        -11   -1    0    0    0    0  0.00000000000E+00  0.00000000000E+00  0.45593999997E+02  0.45594000000E+02  0.51100000000E-03 0.  1.
         11   -1    0    0    0    0 -0.00000000000E+00 -0.00000000000E+00 -0.45593999997E+02  0.45594000000E+02  0.51100000000E-03 0. -1.
    9900012    2    1    2    0    0  0.74629766422E+01  0.32766566944E+02  0.27464144364E+02  0.47787272411E+02  0.20000006229E+02 0.  0.
         12    1    1    2    0    0 -0.74629766422E+01 -0.32766566944E+02 -0.27464144364E+02  0.43400727589E+02  0.00000000000E+00 0. -1.
         11    1    3    3    0    0  0.56978737134E+00  0.10068560335E+02 -0.75204971184E+00  0.10112672441E+02  0.51100000000E-03 0. -1.
        -11    1    3    3    0    0  0.72180068210E+01  0.21473118268E+02  0.22909208270E+02  0.32218414834E+02  0.51100000000E-03 0.  1.
        -12    1    3    3    0    0 -0.32481755019E+00  0.12248883409E+01  0.53069858057E+01  0.54561851353E+01  0.00000000000E+00 0.  1.
</event>
<event>
 7    1  0.2751796E-010  0.4778727E+02  0.7816164E-02  0.1312668E+00
        -11   -1    0    0    0    0  0.00000000000E+00  0.00000000000E+00  0.45593999997E+02  0.45594000000E+02  0.51100000000E-03 0.  1.
         11   -1    0    0    0    0 -0.00000000000E+00 -0.00000000000E+00 -0.45593999997E+02  0.45594000000E+02  0.51100000000E-03 0. -1.
    9900012    2    1    2    0    0 -0.23460805484E+02 -0.35604865139E+02 -0.80936817338E+01  0.47787268445E+02  0.19999988146E+02 0.  0.
         12    1    1    2    0    0  0.23460805484E+02  0.35604865139E+02  0.80936817338E+01  0.43400731555E+02  0.00000000000E+00 0. -1.
         11    1    3    3    0    0 -0.59024828695E+01 -0.12933341677E+02  0.18827061853E-01  0.14216574330E+02  0.51100000000E-03 0.  1.
        -11    1    3    3    0    0 -0.57489700998E+00 -0.12923551454E+02 -0.42042211538E+01  0.13602358785E+02  0.51100000000E-03 0. -1.
        -12    1    3    3    0    0 -0.16983425605E+02 -0.97479720085E+01 -0.39082876418E+01  0.19968335330E+02  0.00000000000E+00 0.  1.
</event>
<event>
 7    1  0.2751796E-010  0.4778727E+02  0.7816164E-02  0.1312668E+00
        -11   -1    0    0    0    0  0.00000000000E+00  0.00000000000E+00  0.45593999997E+02  0.45594000000E+02  0.51100000000E-03 0.  1.
         11   -1    0    0    0    0 -0.00000000000E+00 -0.00000000000E+00 -0.45593999997E+02  0.45594000000E+02  0.51100000000E-03 0. -1.
    9900012    2    1    2    0    0 -0.13921085785E+01 -0.62833254333E+01  0.42920916196E+02  0.47787271988E+02  0.20000004304E+02 0.  0.
         12    1    1    2    0    0  0.13921085785E+01  0.62833254333E+01 -0.42920916196E+02  0.43400728012E+02  0.00000000000E+00 0. -1.
         11    1    3    3    0    0 -0.22550096396E+01 -0.33536936082E+01 -0.57312963604E+00  0.40817651982E+01  0.51100000000E-03 0. -1.
        -11    1    3    3    0    0 -0.53877829625E+00 -0.21575351045E+01  0.34394882268E+02  0.34466696481E+02  0.51100000000E-03 0.  1.
         12    1    3    3    0    0  0.14016793573E+01 -0.77209672062E+00  0.90991635643E+01  0.92388103096E+01  0.00000000000E+00 0. -1.
</event>
<event>
 7    1  0.2751796E-010  0.4778727E+02  0.7816164E-02  0.1312668E+00
        -11   -1    0    0    0    0  0.00000000000E+00  0.00000000000E+00  0.45593999997E+02  0.45594000000E+02  0.51100000000E-03 0.  1.
         11   -1    0    0    0    0 -0.00000000000E+00 -0.00000000000E+00 -0.45593999997E+02  0.45594000000E+02  0.51100000000E-03 0. -1.
    9900012    2    1    2    0    0  0.34198417769E+01 -0.43156758939E+02 -0.30696153769E+01  0.47787266153E+02  0.19999977700E+02 0.  0.
         12    1    1    2    0    0 -0.34198417769E+01  0.43156758939E+02  0.30696153769E+01  0.43400733847E+02  0.00000000000E+00 0. -1.
         11    1    3    3    0    0  0.14711106238E+01 -0.23446283045E+01 -0.46877285496E+01  0.54439184021E+01  0.51100000000E-03 0. -1.
        -11    1    3    3    0    0 -0.26872867881E+01 -0.25537605361E+02  0.46476932284E+01  0.26095820555E+02  0.51100000000E-03 0.  1.
        -12    1    3    3    0    0  0.46360179412E+01 -0.15274525273E+02 -0.30295800557E+01  0.16247527196E+02  0.00000000000E+00 0.  1.
</event>
<event>
 7    1  0.2751796E-010  0.4778727E+02  0.7816164E-02  0.1312668E+00
        -11   -1    0    0    0    0  0.00000000000E+00  0.00000000000E+00  0.45593999997E+02  0.45594000000E+02  0.51100000000E-03 0.  1.
         11   -1    0    0    0    0 -0.00000000000E+00 -0.00000000000E+00 -0.45593999997E+02  0.45594000000E+02  0.51100000000E-03 0. -1.
    9900012    2    1    2    0    0  0.27399489173E+02  0.17377109770E+02  0.28825809850E+02  0.47787271154E+02  0.20000000500E+02 0.  0.
         12    1    1    2    0    0 -0.27399489173E+02 -0.17377109770E+02 -0.28825809850E+02  0.43400728846E+02  0.00000000000E+00 0. -1.
         11    1    3    3    0    0 -0.18562617112E+01 -0.59658678579E+00 -0.15694027495E-01  0.19498384285E+01  0.51100000000E-03 0. -1.
        -11    1    3    3    0    0  0.23980155829E+02  0.10264821705E+02  0.19017469208E+02  0.32281241822E+02  0.51100000000E-03 0.  1.
         12    1    3    3    0    0  0.52755950549E+01  0.77088748502E+01  0.98240346686E+01  0.13556190903E+02  0.00000000000E+00 0. -1.
</event>
<event>
 7    1  0.2751796E-010  0.4778727E+02  0.7816164E-02  0.1312668E+00
        -11   -1    0    0    0    0  0.00000000000E+00  0.00000000000E+00  0.45593999997E+02  0.45594000000E+02  0.51100000000E-03 0. -1.
         11   -1    0    0    0    0 -0.00000000000E+00 -0.00000000000E+00 -0.45593999997E+02  0.45594000000E+02  0.51100000000E-03 0.  1.
    9900012    2    1    2    0    0  0.40876728176E+01  0.32596170198E+02 -0.28362015776E+02  0.47787270518E+02  0.19999997600E+02 0.  0.
         12    1    1    2    0    0 -0.40876728176E+01 -0.32596170198E+02  0.28362015776E+02  0.43400729482E+02  0.00000000000E+00 0. -1.
         11    1    3    3    0    0 -0.25117945485E+01 -0.44788213075E+00  0.10845498699E+01  0.27723562070E+01  0.51100000000E-03 0. -1.
        -11    1    3    3    0    0  0.25822721879E+01  0.17862455979E+02 -0.18679549112E+02  0.25974237593E+02  0.51100000000E-03 0.  1.
         12    1    3    3    0    0  0.40171951782E+01  0.15181596350E+02 -0.10767016534E+02  0.19040676718E+02  0.00000000000E+00 0. -1.
</event>
<event>
 7    1  0.2751796E-010  0.4778726E+02  0.7816164E-02  0.1312668E+00
        -11   -1    0    0    0    0  0.00000000000E+00  0.00000000000E+00  0.45593999997E+02  0.45594000000E+02  0.51100000000E-03 0. -1.
         11   -1    0    0    0    0 -0.00000000000E+00 -0.00000000000E+00 -0.45593999997E+02  0.45594000000E+02  0.51100000000E-03 0.  1.
    9900012    2    1    2    0    0 -0.13135484795E+02 -0.41250141336E+02 -0.30836270294E+01  0.47787264099E+02  0.19999968334E+02 0.  0.
         12    1    1    2    0    0  0.13135484795E+02  0.41250141336E+02  0.30836270294E+01  0.43400735901E+02  0.00000000000E+00 0. -1.
         11    1    3    3    0    0 -0.13663419886E+02 -0.29194127819E+02 -0.59452826904E+01  0.32777012198E+02  0.51100000000E-03 0.  1.
        -11    1    3    3    0    0  0.11065514093E+01 -0.12885479283E+02  0.11008484206E+01  0.12979672565E+02  0.51100000000E-03 0. -1.
         12    1    3    3    0    0 -0.57861631884E+00  0.82946576636E+00  0.17608072405E+01  0.20305793361E+01  0.00000000000E+00 0. -1.
</event>
<event>
 7    1  0.2751796E-010  0.4778727E+02  0.7816164E-02  0.1312668E+00
        -11   -1    0    0    0    0  0.00000000000E+00  0.00000000000E+00  0.45593999997E+02  0.45594000000E+02  0.51100000000E-03 0. -1.
         11   -1    0    0    0    0 -0.00000000000E+00 -0.00000000000E+00 -0.45593999997E+02  0.45594000000E+02  0.51100000000E-03 0.  1.
    9900012    2    1    2    0    0 -0.31953772868E+02 -0.28846465176E+02 -0.55191835762E+01  0.47787267967E+02  0.19999985971E+02 0.  0.
         12    1    1    2    0    0  0.31953772868E+02  0.28846465176E+02  0.55191835762E+01  0.43400732033E+02  0.00000000000E+00 0. -1.
         11    1    3    3    0    0 -0.22301321702E+02 -0.16857705408E+02 -0.10698095359E+02  0.29932932129E+02  0.51100000000E-03 0.  1.
        -11    1    3    3    0    0 -0.82461672776E+01 -0.62120971961E+01  0.58474949793E+00  0.10340761992E+02  0.51100000000E-03 0. -1.
         12    1    3    3    0    0 -0.14062838876E+01 -0.57766625719E+01  0.45941622845E+01  0.75135738460E+01  0.00000000000E+00 0. -1.
</event>
<event>
 7    1  0.2751796E-010  0.4778727E+02  0.7816164E-02  0.1312668E+00
        -11   -1    0    0    0    0  0.00000000000E+00  0.00000000000E+00  0.45593999997E+02  0.45594000000E+02  0.51100000000E-03 0.  1.
         11   -1    0    0    0    0 -0.00000000000E+00 -0.00000000000E+00 -0.45593999997E+02  0.45594000000E+02  0.51100000000E-03 0. -1.
    9900012    2    1    2    0    0  0.65620902854E+01  0.37986550085E+02 -0.19939526094E+02  0.47787265938E+02  0.19999976718E+02 0.  0.
         12    1    1    2    0    0 -0.65620902854E+01 -0.37986550085E+02  0.19939526094E+02  0.43400734062E+02  0.00000000000E+00 0. -1.
         11    1    3    3    0    0  0.99225522289E+01  0.25075223253E+02 -0.13690697611E+02  0.30243330923E+02  0.51100000000E-03 0. -1.
        -11    1    3    3    0    0 -0.47982959309E+01  0.11562069678E+02 -0.17602237342E+01  0.12641340393E+02  0.51100000000E-03 0.  1.
        -12    1    3    3    0    0  0.14378339873E+01  0.13492571535E+01 -0.44886047487E+01  0.49025946224E+01  0.00000000000E+00 0.  1.
</event>
<event>
 7    1  0.2751796E-010  0.4778727E+02  0.7816164E-02  0.1312668E+00
        -11   -1    0    0    0    0  0.00000000000E+00  0.00000000000E+00  0.45593999997E+02  0.45594000000E+02  0.51100000000E-03 0.  1.
         11   -1    0    0    0    0 -0.00000000000E+00 -0.00000000000E+00 -0.45593999997E+02  0.45594000000E+02  0.51100000000E-03 0. -1.
    9900012    2    1    2    0    0 -0.22329817395E+02  0.26353991062E+02  0.26276796707E+02  0.47787266884E+02  0.19999981032E+02 0.  0.
         12    1    1    2    0    0  0.22329817395E+02 -0.26353991062E+02 -0.26276796707E+02  0.43400733116E+02  0.00000000000E+00 0. -1.
         11    1    3    3    0    0 -0.18870614612E+01  0.49882251147E+00 -0.67207030075E+00  0.20643409618E+01  0.51100000000E-03 0. -1.
        -11    1    3    3    0    0 -0.92087306259E+00  0.63358178862E+01  0.13657257024E+02  0.15083476561E+02  0.51100000000E-03 0.  1.
        -12    1    3    3    0    0 -0.19521882871E+02  0.19519350665E+02  0.13291609984E+02  0.30639449361E+02  0.00000000000E+00 0.  1.
</event>
<event>
 7    1  0.2751796E-010  0.4778727E+02  0.7816164E-02  0.1312668E+00
        -11   -1    0    0    0    0  0.00000000000E+00  0.00000000000E+00  0.45593999997E+02  0.45594000000E+02  0.51100000000E-03 0.  1.
         11   -1    0    0    0    0 -0.00000000000E+00 -0.00000000000E+00 -0.45593999997E+02  0.45594000000E+02  0.51100000000E-03 0. -1.
    9900012    2    1    2    0    0 -0.29296618692E+02 -0.26138709090E+02  0.18495928551E+02  0.47787270137E+02  0.19999995862E+02 0.  0.
         12    1    1    2    0    0  0.29296618692E+02  0.26138709090E+02 -0.18495928551E+02  0.43400729863E+02  0.00000000000E+00 0. -1.
         11    1    3    3    0    0 -0.14915936703E+02 -0.21580342317E+02  0.73688278565E+01  0.27248779174E+02  0.51100000000E-03 0. -1.
        -11    1    3    3    0    0 -0.74333062518E+01 -0.63723290476E+01  0.82499550443E+01  0.12803217479E+02  0.51100000000E-03 0.  1.
         12    1    3    3    0    0 -0.69473757381E+01  0.18139622748E+01  0.28771456504E+01  0.77352734841E+01  0.00000000000E+00 0. -1.
</event>
<event>
 7    1  0.2751796E-010  0.4778727E+02  0.7816164E-02  0.1312668E+00
        -11   -1    0    0    0    0  0.00000000000E+00  0.00000000000E+00  0.45593999997E+02  0.45594000000E+02  0.51100000000E-03 0.  1.
         11   -1    0    0    0    0 -0.00000000000E+00 -0.00000000000E+00 -0.45593999997E+02  0.45594000000E+02  0.51100000000E-03 0. -1.
    9900012    2    1    2    0    0  0.29848147453E+02 -0.26390169104E+02  0.17212505815E+02  0.47787270880E+02  0.19999999249E+02 0.  0.
         12    1    1    2    0    0 -0.29848147453E+02  0.26390169104E+02 -0.17212505815E+02  0.43400729120E+02  0.00000000000E+00 0. -1.
         11    1    3    3    0    0  0.15832063167E+01 -0.59064183465E+01  0.24057615002E+01  0.65711497154E+01  0.51100000000E-03 0. -1.
        -11    1    3    3    0    0  0.18277908083E+02 -0.19928726910E+02  0.55865593463E+01  0.27612419774E+02  0.51100000000E-03 0.  1.
        -12    1    3    3    0    0  0.99870330531E+01 -0.55502384745E+00  0.92201849685E+01  0.13603701391E+02  0.00000000000E+00 0.  1.
</event>
<event>
 7    1  0.2751796E-010  0.4778727E+02  0.7816164E-02  0.1312668E+00
        -11   -1    0    0    0    0  0.00000000000E+00  0.00000000000E+00  0.45593999997E+02  0.45594000000E+02  0.51100000000E-03 0.  1.
         11   -1    0    0    0    0 -0.00000000000E+00 -0.00000000000E+00 -0.45593999997E+02  0.45594000000E+02  0.51100000000E-03 0. -1.
    9900012    2    1    2    0    0  0.20618470392E+01  0.10657310214E+02  0.42021352991E+02  0.47787267502E+02  0.19999983848E+02 0.  0.
         12    1    1    2    0    0 -0.20618470392E+01 -0.10657310214E+02 -0.42021352991E+02  0.43400732498E+02  0.00000000000E+00 0. -1.
         11    1    3    3    0    0  0.41421999874E+01 -0.25419919742E+01  0.23925142791E+01  0.54169796723E+01  0.51100000000E-03 0. -1.
        -11    1    3    3    0    0  0.86234642244E+00  0.88583896905E+01  0.17558357027E+02  0.19685289203E+02  0.51100000000E-03 0.  1.
         12    1    3    3    0    0 -0.29426993707E+01  0.43409124979E+01  0.22070481684E+02  0.22684998626E+02  0.00000000000E+00 0. -1.
</event>
<event>
 7    1  0.2751796E-010  0.4778727E+02  0.7816164E-02  0.1312668E+00
        -11   -1    0    0    0    0  0.00000000000E+00  0.00000000000E+00  0.45593999997E+02  0.45594000000E+02  0.51100000000E-03 0.  1.
         11   -1    0    0    0    0 -0.00000000000E+00 -0.00000000000E+00 -0.45593999997E+02  0.45594000000E+02  0.51100000000E-03 0. -1.
    9900012    2    1    2    0    0  0.14598397329E+02  0.40851805750E+02  0.12806319113E+01  0.47787271254E+02  0.20000000954E+02 0.  0.
         12    1    1    2    0    0 -0.14598397329E+02 -0.40851805750E+02 -0.12806319113E+01  0.43400728746E+02  0.00000000000E+00 0. -1.
         11    1    3    3    0    0  0.46573468387E+01 -0.22724024475E-02 -0.42177142702E+00  0.46764063273E+01  0.51100000000E-03 0. -1.
        -11    1    3    3    0    0  0.79673529854E+01  0.13690595468E+02  0.42715148255E+00  0.15845932491E+02  0.51100000000E-03 0.  1.
         12    1    3    3    0    0  0.19736975047E+01  0.27163482684E+02  0.12752518558E+01  0.27264932435E+02  0.00000000000E+00 0. -1.
</event>
<event>
 7    1  0.2751796E-010  0.4778726E+02  0.7816164E-02  0.1312668E+00
        -11   -1    0    0    0    0  0.00000000000E+00  0.00000000000E+00  0.45593999997E+02  0.45594000000E+02  0.51100000000E-03 0.  1.
         11   -1    0    0    0    0 -0.00000000000E+00 -0.00000000000E+00 -0.45593999997E+02  0.45594000000E+02  0.51100000000E-03 0. -1.
    9900012    2    1    2    0    0 -0.19241581158E+02  0.10048890569E+02  0.37581984603E+02  0.47787260216E+02  0.19999950628E+02 0.  0.
         12    1    1    2    0    0  0.19241581158E+02 -0.10048890569E+02 -0.37581984603E+02  0.43400739784E+02  0.00000000000E+00 0. -1.
         11    1    3    3    0    0 -0.92850570841E+01  0.11266401685E+02  0.12050973173E+02  0.18930664189E+02  0.51100000000E-03 0. -1.
        -11    1    3    3    0    0  0.91825500110E+00  0.17999600830E+01  0.25459892672E+01  0.32504015379E+01  0.51100000000E-03 0.  1.
         12    1    3    3    0    0 -0.10874779075E+02 -0.30174711988E+01  0.22985022163E+02  0.25606194489E+02  0.00000000000E+00 0. -1.
</event>
<event>
 7    1  0.2751796E-010  0.4778726E+02  0.7816164E-02  0.1312668E+00
        -11   -1    0    0    0    0  0.00000000000E+00  0.00000000000E+00  0.45593999997E+02  0.45594000000E+02  0.51100000000E-03 0.  1.
         11   -1    0    0    0    0 -0.00000000000E+00 -0.00000000000E+00 -0.45593999997E+02  0.45594000000E+02  0.51100000000E-03 0. -1.
    9900012    2    1    2    0    0  0.19473199253E+02 -0.20858400132E+02  0.32700855282E+02  0.47787259438E+02  0.19999947080E+02 0.  0.
         12    1    1    2    0    0 -0.19473199253E+02  0.20858400132E+02 -0.32700855282E+02  0.43400740562E+02  0.00000000000E+00 0. -1.
         11    1    3    3    0    0  0.36110844066E+00 -0.18467010212E+01 -0.93027625942E+00  0.20990755459E+01  0.51100000000E-03 0. -1.
        -11    1    3    3    0    0  0.19703453843E+02 -0.19200265487E+02  0.34802117076E+02  0.44362863313E+02  0.51100000000E-03 0.  1.
        -12    1    3    3    0    0 -0.59136303099E+00  0.18856637647E+00 -0.11709855347E+01  0.13253205783E+01  0.00000000000E+00 0.  1.
</event>
<event>
 7    1  0.2751796E-010  0.4778727E+02  0.7816164E-02  0.1312668E+00
        -11   -1    0    0    0    0  0.00000000000E+00  0.00000000000E+00  0.45593999997E+02  0.45594000000E+02  0.51100000000E-03 0. -1.
         11   -1    0    0    0    0 -0.00000000000E+00 -0.00000000000E+00 -0.45593999997E+02  0.45594000000E+02  0.51100000000E-03 0.  1.
    9900012    2    1    2    0    0  0.24853191982E+02 -0.11312891651E+02 -0.33733672466E+02  0.47787270430E+02  0.19999997197E+02 0.  0.
         12    1    1    2    0    0 -0.24853191982E+02  0.11312891651E+02  0.33733672466E+02  0.43400729570E+02  0.00000000000E+00 0. -1.
         11    1    3    3    0    0  0.14274929353E+02 -0.13408345893E+02 -0.20189703638E+02  0.28127948394E+02  0.51100000000E-03 0. -1.
        -11    1    3    3    0    0  0.44134758611E+01 -0.13790517806E+01 -0.11341720092E+02  0.12248067925E+02  0.51100000000E-03 0.  1.
         12    1    3    3    0    0  0.61647867685E+01  0.34745060225E+01 -0.22022487360E+01  0.74112541109E+01  0.00000000000E+00 0. -1.
</event>
<event>
 7    1  0.2751796E-010  0.4778734E+02  0.7816164E-02  0.1312667E+00
        -11   -1    0    0    0    0  0.00000000000E+00  0.00000000000E+00  0.45593999997E+02  0.45594000000E+02  0.51100000000E-03 0. -1.
         11   -1    0    0    0    0 -0.00000000000E+00 -0.00000000000E+00 -0.45593999997E+02  0.45594000000E+02  0.51100000000E-03 0.  1.
    9900012    2    1    2    0    0 -0.65881648413E+01 -0.35529107697E+02  0.24039471317E+02  0.47787336515E+02  0.20000298506E+02 0.  0.
         12    1    1    2    0    0  0.65881648413E+01  0.35529107697E+02 -0.24039471317E+02  0.43400663485E+02  0.00000000000E+00 0. -1.
         11    1    3    3    0    0 -0.74298696030E+01 -0.19271689540E+02  0.41302279648E+01  0.21063232499E+02  0.51100000000E-03 0. -1.
        -11    1    3    3    0    0 -0.15949422770E+01 -0.81191892289E+01  0.53054960487E+01  0.98292096928E+01  0.51100000000E-03 0.  1.
         12    1    3    3    0    0  0.24366470387E+01 -0.81382289282E+01  0.14603747304E+02  0.16894894323E+02  0.00000000000E+00 0. -1.
</event>
<event>
 7    1  0.2751796E-010  0.4778727E+02  0.7816164E-02  0.1312668E+00
        -11   -1    0    0    0    0  0.00000000000E+00  0.00000000000E+00  0.45593999997E+02  0.45594000000E+02  0.51100000000E-03 0. -1.
         11   -1    0    0    0    0 -0.00000000000E+00 -0.00000000000E+00 -0.45593999997E+02  0.45594000000E+02  0.51100000000E-03 0.  1.
    9900012    2    1    2    0    0 -0.27894828745E+02 -0.19416711463E+02 -0.26990612102E+02  0.47787270785E+02  0.19999998816E+02 0.  0.
         12    1    1    2    0    0  0.27894828745E+02  0.19416711463E+02  0.26990612102E+02  0.43400729215E+02  0.00000000000E+00 0. -1.
         11    1    3    3    0    0 -0.18016980758E+02 -0.88404875348E+01 -0.23694075236E+02  0.31051167724E+02  0.51100000000E-03 0. -1.
        -11    1    3    3    0    0 -0.36566096577E+01 -0.50246941970E+01 -0.52922941678E+01  0.81625194506E+01  0.51100000000E-03 0.  1.
         12    1    3    3    0    0 -0.62212383293E+01 -0.55515297312E+01  0.19957573015E+01  0.85735836097E+01  0.00000000000E+00 0. -1.
</event>
<event>
 7    1  0.2751796E-010  0.4778727E+02  0.7816164E-02  0.1312668E+00
        -11   -1    0    0    0    0  0.00000000000E+00  0.00000000000E+00  0.45593999997E+02  0.45594000000E+02  0.51100000000E-03 0.  1.
         11   -1    0    0    0    0 -0.00000000000E+00 -0.00000000000E+00 -0.45593999997E+02  0.45594000000E+02  0.51100000000E-03 0. -1.
    9900012    2    1    2    0    0 -0.21816765536E+02 -0.33733066529E+02  0.16423526699E+02  0.47787271145E+02  0.20000000457E+02 0.  0.
         12    1    1    2    0    0  0.21816765536E+02  0.33733066529E+02 -0.16423526699E+02  0.43400728855E+02  0.00000000000E+00 0. -1.
         11    1    3    3    0    0 -0.23870214739E+02 -0.21565494215E+02  0.10739993561E+02  0.33914674617E+02  0.51100000000E-03 0. -1.
        -11    1    3    3    0    0  0.15778596309E+01 -0.72706571153E+01  0.48536756753E+01  0.88831449232E+01  0.51100000000E-03 0.  1.
         12    1    3    3    0    0  0.47558957187E+00 -0.48969151989E+01  0.82985746289E+00  0.49894516046E+01  0.00000000000E+00 0. -1.
</event>
<event>
 7    1  0.2751796E-010  0.4778727E+02  0.7816164E-02  0.1312668E+00
        -11   -1    0    0    0    0  0.00000000000E+00  0.00000000000E+00  0.45593999997E+02  0.45594000000E+02  0.51100000000E-03 0.  1.
         11   -1    0    0    0    0 -0.00000000000E+00 -0.00000000000E+00 -0.45593999997E+02  0.45594000000E+02  0.51100000000E-03 0. -1.
    9900012    2    1    2    0    0 -0.41626821212E+02  0.11985978951E+02 -0.26772036526E+01  0.47787270109E+02  0.19999995735E+02 0.  0.
         12    1    1    2    0    0  0.41626821212E+02 -0.11985978951E+02  0.26772036526E+01  0.43400729891E+02  0.00000000000E+00 0. -1.
         11    1    3    3    0    0 -0.64079890814E+01  0.55242578712E+01  0.49338155789E+01  0.97939923179E+01  0.51100000000E-03 0. -1.
        -11    1    3    3    0    0 -0.25822507787E+02  0.79482843354E+01 -0.87791554020E+01  0.28408637808E+02  0.51100000000E-03 0.  1.
        -12    1    3    3    0    0 -0.93963243438E+01 -0.14865632554E+01  0.11681361705E+01  0.95846399827E+01  0.00000000000E+00 0.  1.
</event>
<event>
 7    1  0.2751796E-010  0.4778727E+02  0.7816164E-02  0.1312668E+00
        -11   -1    0    0    0    0  0.00000000000E+00  0.00000000000E+00  0.45593999997E+02  0.45594000000E+02  0.51100000000E-03 0.  1.
         11   -1    0    0    0    0 -0.00000000000E+00 -0.00000000000E+00 -0.45593999997E+02  0.45594000000E+02  0.51100000000E-03 0. -1.
    9900012    2    1    2    0    0  0.22908457570E+02  0.36862238702E+02  0.40432792580E-01  0.47787266076E+02  0.19999977348E+02 0.  0.
         12    1    1    2    0    0 -0.22908457570E+02 -0.36862238702E+02 -0.40432792580E-01  0.43400733924E+02  0.00000000000E+00 0. -1.
         11    1    3    3    0    0  0.57152241735E+00 -0.41444164655E+00 -0.69191731662E+00  0.98850876885E+00  0.51100000000E-03 0. -1.
        -11    1    3    3    0    0  0.19609036615E+02  0.22193991684E+02 -0.57297247193E+01  0.30164835976E+02  0.51100000000E-03 0.  1.
        -12    1    3    3    0    0  0.27278985374E+01  0.15082688664E+02  0.64620748285E+01  0.16633921331E+02  0.00000000000E+00 0.  1.
</event>
<event>
 7    1  0.2751796E-010  0.4778727E+02  0.7816164E-02  0.1312668E+00
        -11   -1    0    0    0    0  0.00000000000E+00  0.00000000000E+00  0.45593999997E+02  0.45594000000E+02  0.51100000000E-03 0. -1.
         11   -1    0    0    0    0 -0.00000000000E+00 -0.00000000000E+00 -0.45593999997E+02  0.45594000000E+02  0.51100000000E-03 0.  1.
    9900012    2    1    2    0    0 -0.20558367136E+02 -0.38066737769E+02 -0.34496670941E+01  0.47787272049E+02  0.20000004579E+02 0.  0.
         12    1    1    2    0    0  0.20558367136E+02  0.38066737769E+02  0.34496670941E+01  0.43400727951E+02  0.00000000000E+00 0. -1.
         11    1    3    3    0    0 -0.14685088959E+01  0.11454347187E+01 -0.36529518527E+00  0.18978882753E+01  0.51100000000E-03 0. -1.
        -11    1    3    3    0    0 -0.19542326190E+02 -0.40019772436E+02 -0.38300211530E+01  0.44700713205E+02  0.51100000000E-03 0.  1.
        -12    1    3    3    0    0  0.45246795051E+00  0.80759994896E+00  0.74564924418E+00  0.11886705680E+01  0.00000000000E+00 0.  1.
</event>
<event>
 7    1  0.2751796E-010  0.4778728E+02  0.7816164E-02  0.1312668E+00
        -11   -1    0    0    0    0  0.00000000000E+00  0.00000000000E+00  0.45593999997E+02  0.45594000000E+02  0.51100000000E-03 0.  1.
         11   -1    0    0    0    0 -0.00000000000E+00 -0.00000000000E+00 -0.45593999997E+02  0.45594000000E+02  0.51100000000E-03 0. -1.
    9900012    2    1    2    0    0  0.18205938713E+02 -0.28405788507E+02 -0.27299771928E+02  0.47787279125E+02  0.20000036844E+02 0.  0.
         12    1    1    2    0    0 -0.18205938713E+02  0.28405788507E+02  0.27299771928E+02  0.43400720875E+02  0.00000000000E+00 0. -1.
         11    1    3    3    0    0  0.63949402919E+01 -0.31553900126E+01 -0.10932902782E+01  0.72143628522E+01  0.51100000000E-03 0. -1.
        -11    1    3    3    0    0 -0.10931680217E+00 -0.13881709153E+02 -0.16051650572E+02  0.21221905794E+02  0.51100000000E-03 0.  1.
        -12    1    3    3    0    0  0.11920315223E+02 -0.11368689341E+02 -0.10154831078E+02  0.19351010479E+02  0.00000000000E+00 0.  1.
</event>
<event>
 7    1  0.2751796E-010  0.4778727E+02  0.7816164E-02  0.1312668E+00
        -11   -1    0    0    0    0  0.00000000000E+00  0.00000000000E+00  0.45593999997E+02  0.45594000000E+02  0.51100000000E-03 0.  1.
         11   -1    0    0    0    0 -0.00000000000E+00 -0.00000000000E+00 -0.45593999997E+02  0.45594000000E+02  0.51100000000E-03 0. -1.
    9900012    2    1    2    0    0  0.12896238872E+02  0.87911775453E+01  0.40497229068E+02  0.47787270261E+02  0.19999996428E+02 0.  0.
         12    1    1    2    0    0 -0.12896238872E+02 -0.87911775453E+01 -0.40497229068E+02  0.43400729739E+02  0.00000000000E+00 0. -1.
         11    1    3    3    0    0  0.13265581588E+00  0.30134115447E+00 -0.60074547807E+00  0.68505433902E+00  0.51100000000E-03 0. -1.
        -11    1    3    3    0    0  0.53378502678E+01  0.83925505461E+01  0.68953064438E+01  0.12102594820E+02  0.51100000000E-03 0.  1.
        -12    1    3    3    0    0  0.74257327879E+01  0.97285844745E-01  0.34202668103E+02  0.34999621102E+02  0.00000000000E+00 0.  1.
</event>
<event>
 7    1  0.2751796E-010  0.4778727E+02  0.7816164E-02  0.1312668E+00
        -11   -1    0    0    0    0  0.00000000000E+00  0.00000000000E+00  0.45593999997E+02  0.45594000000E+02  0.51100000000E-03 0. -1.
         11   -1    0    0    0    0 -0.00000000000E+00 -0.00000000000E+00 -0.45593999997E+02  0.45594000000E+02  0.51100000000E-03 0.  1.
    9900012    2    1    2    0    0  0.35401318120E+02  0.23674148716E+02 -0.83608937866E+01  0.47787272046E+02  0.20000004566E+02 0.  0.
         12    1    1    2    0    0 -0.35401318120E+02 -0.23674148716E+02  0.83608937866E+01  0.43400727954E+02  0.00000000000E+00 0. -1.
         11    1    3    3    0    0  0.20819250722E+02  0.17033272378E+02  0.30506787262E+01  0.27071760369E+02  0.51100000000E-03 0. -1.
        -11    1    3    3    0    0  0.13279947508E+02  0.78006224470E+01 -0.10992953125E+02  0.18922255020E+02  0.51100000000E-03 0.  1.
        -12    1    3    3    0    0  0.13021198893E+01 -0.11597461092E+01 -0.41861938820E+00  0.17932566565E+01  0.00000000000E+00 0.  1.
</event>
<event>
 7    1  0.2751796E-010  0.4778727E+02  0.7816164E-02  0.1312668E+00
        -11   -1    0    0    0    0  0.00000000000E+00  0.00000000000E+00  0.45593999997E+02  0.45594000000E+02  0.51100000000E-03 0.  1.
         11   -1    0    0    0    0 -0.00000000000E+00 -0.00000000000E+00 -0.45593999997E+02  0.45594000000E+02  0.51100000000E-03 0. -1.
    9900012    2    1    2    0    0  0.19076976443E+02 -0.28770753646E+02  0.26304680659E+02  0.47787268207E+02  0.19999987064E+02 0.  0.
         12    1    1    2    0    0 -0.19076976443E+02  0.28770753646E+02 -0.26304680659E+02  0.43400731793E+02  0.00000000000E+00 0. -1.
         11    1    3    3    0    0  0.87403081334E+01 -0.50533476289E+01  0.29734551151E+01  0.10524768126E+02  0.51100000000E-03 0. -1.
        -11    1    3    3    0    0 -0.94845053397E+00 -0.14170218911E+02  0.12729849826E+02  0.19072066989E+02  0.51100000000E-03 0.  1.
        -12    1    3    3    0    0  0.11285118843E+02 -0.95471871065E+01  0.10601375718E+02  0.18190433092E+02  0.00000000000E+00 0.  1.
</event>
<event>
 7    1  0.2751796E-010  0.4778727E+02  0.7816164E-02  0.1312668E+00
        -11   -1    0    0    0    0  0.00000000000E+00  0.00000000000E+00  0.45593999997E+02  0.45594000000E+02  0.51100000000E-03 0. -1.
         11   -1    0    0    0    0 -0.00000000000E+00 -0.00000000000E+00 -0.45593999997E+02  0.45594000000E+02  0.51100000000E-03 0.  1.
    9900012    2    1    2    0    0 -0.11014476718E+02 -0.58277665021E+01 -0.41573327742E+02  0.47787272595E+02  0.20000007068E+02 0.  0.
         12    1    1    2    0    0  0.11014476718E+02  0.58277665021E+01  0.41573327742E+02  0.43400727405E+02  0.00000000000E+00 0. -1.
         11    1    3    3    0    0  0.25710295859E+01 -0.52055877903E+01 -0.16110250162E+02  0.17124499932E+02  0.51100000000E-03 0. -1.
        -11    1    3    3    0    0 -0.12863349574E+02  0.24276670113E+01 -0.23678699941E+02  0.27056240695E+02  0.51100000000E-03 0.  1.
        -12    1    3    3    0    0 -0.72215672948E+00 -0.30498457231E+01 -0.17843776388E+01  0.36065319678E+01  0.00000000000E+00 0.  1.
</event>
<event>
 7    1  0.2751796E-010  0.4778727E+02  0.7816164E-02  0.1312668E+00
        -11   -1    0    0    0    0  0.00000000000E+00  0.00000000000E+00  0.45593999997E+02  0.45594000000E+02  0.51100000000E-03 0.  1.
         11   -1    0    0    0    0 -0.00000000000E+00 -0.00000000000E+00 -0.45593999997E+02  0.45594000000E+02  0.51100000000E-03 0. -1.
    9900012    2    1    2    0    0  0.29018789482E+02 -0.48600226736E+01  0.31904755668E+02  0.47787269619E+02  0.19999993500E+02 0.  0.
         12    1    1    2    0    0 -0.29018789482E+02  0.48600226736E+01 -0.31904755668E+02  0.43400730381E+02  0.00000000000E+00 0. -1.
         11    1    3    3    0    0  0.51791392299E+00  0.54295489254E+00  0.55501016002E+01  0.56005948684E+01  0.51100000000E-03 0. -1.
        -11    1    3    3    0    0  0.20835991640E+02 -0.72637472201E+01  0.10410749489E+02  0.24398448239E+02  0.51100000000E-03 0.  1.
        -12    1    3    3    0    0  0.76648839192E+01  0.18607696540E+01  0.15943904579E+02  0.17788226511E+02  0.00000000000E+00 0.  1.
</event>
<event>
 7    1  0.2751796E-010  0.4778730E+02  0.7816164E-02  0.1312668E+00
        -11   -1    0    0    0    0  0.00000000000E+00  0.00000000000E+00  0.45593999997E+02  0.45594000000E+02  0.51100000000E-03 0.  1.
         11   -1    0    0    0    0 -0.00000000000E+00 -0.00000000000E+00 -0.45593999997E+02  0.45594000000E+02  0.51100000000E-03 0. -1.
    9900012    2    1    2    0    0  0.15553510161E+02  0.38317817732E+02 -0.13170196751E+02  0.47787298203E+02  0.20000123824E+02 0.  0.
         12    1    1    2    0    0 -0.15553510161E+02 -0.38317817732E+02  0.13170196751E+02  0.43400701797E+02  0.00000000000E+00 0. -1.
         11    1    3    3    0    0  0.10664781934E+02  0.12731959170E+02 -0.70908312858E+01  0.18058799699E+02  0.51100000000E-03 0.  1.
        -11    1    3    3    0    0 -0.43806545653E+01  0.68870205077E+01 -0.26276881630E+01  0.85747263068E+01  0.51100000000E-03 0. -1.
         12    1    3    3    0    0  0.92693827930E+01  0.18698838054E+02 -0.34516773019E+01  0.21153772196E+02  0.00000000000E+00 0. -1.
</event>
<event>
 7    1  0.2751796E-010  0.4778727E+02  0.7816164E-02  0.1312668E+00
        -11   -1    0    0    0    0  0.00000000000E+00  0.00000000000E+00  0.45593999997E+02  0.45594000000E+02  0.51100000000E-03 0.  1.
         11   -1    0    0    0    0 -0.00000000000E+00 -0.00000000000E+00 -0.45593999997E+02  0.45594000000E+02  0.51100000000E-03 0. -1.
    9900012    2    1    2    0    0  0.36440941573E+02  0.13562553422E+02  0.19280515937E+02  0.47787269904E+02  0.19999994800E+02 0.  0.
         12    1    1    2    0    0 -0.36440941573E+02 -0.13562553422E+02 -0.19280515937E+02  0.43400730096E+02  0.00000000000E+00 0. -1.
         11    1    3    3    0    0  0.12262306416E+02 -0.31778189083E+01  0.50584934526E+01  0.13640053076E+02  0.51100000000E-03 0. -1.
        -11    1    3    3    0    0  0.23084071577E+02  0.13753879938E+02  0.95954187824E+01  0.28532711679E+02  0.51100000000E-03 0.  1.
        -12    1    3    3    0    0  0.10945635805E+01  0.29864923927E+01  0.46266037021E+01  0.56145051482E+01  0.00000000000E+00 0.  1.
</event>
<event>
 7    1  0.2751796E-010  0.4778726E+02  0.7816164E-02  0.1312668E+00
        -11   -1    0    0    0    0  0.00000000000E+00  0.00000000000E+00  0.45593999997E+02  0.45594000000E+02  0.51100000000E-03 0.  1.
         11   -1    0    0    0    0 -0.00000000000E+00 -0.00000000000E+00 -0.45593999997E+02  0.45594000000E+02  0.51100000000E-03 0. -1.
    9900012    2    1    2    0    0  0.29658766668E+02  0.30819002372E+02  0.73600662803E+01  0.47787263565E+02  0.19999965898E+02 0.  0.
         12    1    1    2    0    0 -0.29658766668E+02 -0.30819002372E+02 -0.73600662803E+01  0.43400736435E+02  0.00000000000E+00 0. -1.
         11    1    3    3    0    0  0.12737619217E+01  0.32187615815E+01 -0.17448374831E+01  0.38765130795E+01  0.51100000000E-03 0. -1.
        -11    1    3    3    0    0  0.10360024576E+02  0.45421640572E+00  0.23312946470E+01  0.10628798462E+02  0.51100000000E-03 0.  1.
        -12    1    3    3    0    0  0.18024980171E+02  0.27146024384E+02  0.67736091165E+01  0.33281952023E+02  0.00000000000E+00 0.  1.
</event>
<event>
 7    1  0.2751796E-010  0.4778727E+02  0.7816164E-02  0.1312668E+00
        -11   -1    0    0    0    0  0.00000000000E+00  0.00000000000E+00  0.45593999997E+02  0.45594000000E+02  0.51100000000E-03 0.  1.
         11   -1    0    0    0    0 -0.00000000000E+00 -0.00000000000E+00 -0.45593999997E+02  0.45594000000E+02  0.51100000000E-03 0. -1.
    9900012    2    1    2    0    0 -0.12027256762E+02  0.38826076850E+02  0.15215258436E+02  0.47787271458E+02  0.20000001884E+02 0.  0.
         12    1    1    2    0    0  0.12027256762E+02 -0.38826076850E+02 -0.15215258436E+02  0.43400728542E+02  0.00000000000E+00 0. -1.
         11    1    3    3    0    0 -0.11391393242E+02  0.14400838727E+02  0.10977374583E+02  0.21392773290E+02  0.51100000000E-03 0.  1.
        -11    1    3    3    0    0  0.30179704046E+01  0.15709171104E+02 -0.97213930649E-01  0.15996738822E+02  0.51100000000E-03 0. -1.
         12    1    3    3    0    0 -0.36538339241E+01  0.87160670182E+01  0.43350977834E+01  0.10397759345E+02  0.00000000000E+00 0. -1.
</event>
<event>
 7    1  0.2751796E-010  0.4778724E+02  0.7816164E-02  0.1312668E+00
        -11   -1    0    0    0    0  0.00000000000E+00  0.00000000000E+00  0.45593999997E+02  0.45594000000E+02  0.51100000000E-03 0.  1.
         11   -1    0    0    0    0 -0.00000000000E+00 -0.00000000000E+00 -0.45593999997E+02  0.45594000000E+02  0.51100000000E-03 0. -1.
    9900012    2    1    2    0    0 -0.22901932437E+02  0.14792477832E+02  0.33768480768E+02  0.47787237298E+02  0.19999846138E+02 0.  0.
         12    1    1    2    0    0  0.22901932437E+02 -0.14792477832E+02 -0.33768480768E+02  0.43400762702E+02  0.00000000000E+00 0. -1.
         11    1    3    3    0    0 -0.17544572246E+02  0.30782294943E+01  0.11362330497E+02  0.21127945160E+02  0.51100000000E-03 0. -1.
        -11    1    3    3    0    0  0.55711621755E+00  0.54852735292E+01  0.11694313553E+02  0.12928865917E+02  0.51100000000E-03 0.  1.
         12    1    3    3    0    0 -0.59144764084E+01  0.62289748082E+01  0.10711836718E+02  0.13730426221E+02  0.00000000000E+00 0. -1.
</event>
<event>
 7    1  0.2751796E-010  0.4778727E+02  0.7816164E-02  0.1312668E+00
        -11   -1    0    0    0    0  0.00000000000E+00  0.00000000000E+00  0.45593999997E+02  0.45594000000E+02  0.51100000000E-03 0. -1.
         11   -1    0    0    0    0 -0.00000000000E+00 -0.00000000000E+00 -0.45593999997E+02  0.45594000000E+02  0.51100000000E-03 0.  1.
    9900012    2    1    2    0    0  0.37946791411E+02  0.20764661894E+02  0.35345440734E+01  0.47787272313E+02  0.20000005783E+02 0.  0.
         12    1    1    2    0    0 -0.37946791411E+02 -0.20764661894E+02 -0.35345440734E+01  0.43400727687E+02  0.00000000000E+00 0. -1.
         11    1    3    3    0    0  0.46396162635E+01  0.10934472540E+02  0.52531560040E+01  0.12987854984E+02  0.51100000000E-03 0. -1.
        -11    1    3    3    0    0  0.20466596974E+02  0.59867934876E+01 -0.35977544835E+00  0.21327276587E+02  0.51100000000E-03 0.  1.
         12    1    3    3    0    0  0.12840578173E+02  0.38433958664E+01 -0.13588364823E+01  0.13472140742E+02  0.00000000000E+00 0. -1.
</event>
<event>
 7    1  0.2751796E-010  0.4778727E+02  0.7816164E-02  0.1312668E+00
        -11   -1    0    0    0    0  0.00000000000E+00  0.00000000000E+00  0.45593999997E+02  0.45594000000E+02  0.51100000000E-03 0. -1.
         11   -1    0    0    0    0 -0.00000000000E+00 -0.00000000000E+00 -0.45593999997E+02  0.45594000000E+02  0.51100000000E-03 0.  1.
    9900012    2    1    2    0    0 -0.31153361783E+02  0.28279796628E+02 -0.10646342586E+02  0.47787268921E+02  0.19999990320E+02 0.  0.
         12    1    1    2    0    0  0.31153361783E+02 -0.28279796628E+02  0.10646342586E+02  0.43400731079E+02  0.00000000000E+00 0. -1.
         11    1    3    3    0    0 -0.54974031914E+01 -0.16563953741E+01 -0.52247791148E+01  0.77629507627E+01  0.51100000000E-03 0. -1.
        -11    1    3    3    0    0 -0.17654175873E+02  0.17843391143E+02 -0.24283783407E+01  0.25218119575E+02  0.51100000000E-03 0.  1.
        -12    1    3    3    0    0 -0.80017827184E+01  0.12092800859E+02 -0.29931851310E+01  0.14806198584E+02  0.00000000000E+00 0.  1.
</event>
<event>
 7    1  0.2751796E-010  0.4778727E+02  0.7816164E-02  0.1312668E+00
        -11   -1    0    0    0    0  0.00000000000E+00  0.00000000000E+00  0.45593999997E+02  0.45594000000E+02  0.51100000000E-03 0.  1.
         11   -1    0    0    0    0 -0.00000000000E+00 -0.00000000000E+00 -0.45593999997E+02  0.45594000000E+02  0.51100000000E-03 0. -1.
    9900012    2    1    2    0    0 -0.20009881337E+02 -0.77882849805E+00  0.38504820524E+02  0.47787272719E+02  0.20000007635E+02 0.  0.
         12    1    1    2    0    0  0.20009881337E+02  0.77882849805E+00 -0.38504820524E+02  0.43400727281E+02  0.00000000000E+00 0. -1.
         11    1    3    3    0    0 -0.21184926224E+02  0.15607192382E+01  0.22894034179E+02  0.31230974127E+02  0.51100000000E-03 0.  1.
        -11    1    3    3    0    0  0.25401848708E+01 -0.11719503230E+01  0.44815423569E+01  0.52830132402E+01  0.51100000000E-03 0. -1.
         12    1    3    3    0    0 -0.13651399840E+01 -0.11675974132E+01  0.11129243988E+02  0.11273285352E+02  0.00000000000E+00 0. -1.
</event>
<event>
 7    1  0.2751796E-010  0.4778725E+02  0.7816164E-02  0.1312668E+00
        -11   -1    0    0    0    0  0.00000000000E+00  0.00000000000E+00  0.45593999997E+02  0.45594000000E+02  0.51100000000E-03 0.  1.
         11   -1    0    0    0    0 -0.00000000000E+00 -0.00000000000E+00 -0.45593999997E+02  0.45594000000E+02  0.51100000000E-03 0. -1.
    9900012    2    1    2    0    0 -0.86988274575E+01  0.19922916257E+02  0.37563720512E+02  0.47787247817E+02  0.19999894097E+02 0.  0.
         12    1    1    2    0    0  0.86988274575E+01 -0.19922916257E+02 -0.37563720512E+02  0.43400752183E+02  0.00000000000E+00 0. -1.
         11    1    3    3    0    0  0.83555241442E+00  0.71190673646E+01  0.14132898227E+02  0.15846705668E+02  0.51100000000E-03 0. -1.
        -11    1    3    3    0    0 -0.41492231705E+00  0.38443163726E+01 -0.13177576367E+01  0.40850231765E+01  0.51100000000E-03 0.  1.
        -12    1    3    3    0    0 -0.91194575549E+01  0.89595325198E+01  0.24748579922E+02  0.27855518973E+02  0.00000000000E+00 0.  1.
</event>
<event>
 7    1  0.2751796E-010  0.4778727E+02  0.7816164E-02  0.1312668E+00
        -11   -1    0    0    0    0  0.00000000000E+00  0.00000000000E+00  0.45593999997E+02  0.45594000000E+02  0.51100000000E-03 0. -1.
         11   -1    0    0    0    0 -0.00000000000E+00 -0.00000000000E+00 -0.45593999997E+02  0.45594000000E+02  0.51100000000E-03 0.  1.
    9900012    2    1    2    0    0 -0.33997196766E+02  0.24270749295E+02 -0.11779006474E+02  0.47787266679E+02  0.19999980096E+02 0.  0.
         12    1    1    2    0    0  0.33997196766E+02 -0.24270749295E+02  0.11779006474E+02  0.43400733321E+02  0.00000000000E+00 0. -1.
         11    1    3    3    0    0 -0.49149893400E+01  0.86569963088E+01  0.29061912578E+01  0.10370470249E+02  0.51100000000E-03 0. -1.
        -11    1    3    3    0    0 -0.22185909988E+02  0.14119402461E+02 -0.75005548472E+01  0.27346488826E+02  0.51100000000E-03 0.  1.
         12    1    3    3    0    0 -0.68962974380E+01  0.14943505253E+01 -0.71846428847E+01  0.10070307603E+02  0.00000000000E+00 0. -1.
</event>
<event>
 7    1  0.2751796E-010  0.4778727E+02  0.7816164E-02  0.1312668E+00
        -11   -1    0    0    0    0  0.00000000000E+00  0.00000000000E+00  0.45593999997E+02  0.45594000000E+02  0.51100000000E-03 0. -1.
         11   -1    0    0    0    0 -0.00000000000E+00 -0.00000000000E+00 -0.45593999997E+02  0.45594000000E+02  0.51100000000E-03 0.  1.
    9900012    2    1    2    0    0  0.21815259948E+01  0.39837778933E+02 -0.17082613588E+02  0.47787269903E+02  0.19999994795E+02 0.  0.
         12    1    1    2    0    0 -0.21815259948E+01 -0.39837778933E+02  0.17082613588E+02  0.43400730097E+02  0.00000000000E+00 0. -1.
         11    1    3    3    0    0  0.16480860954E+01  0.16076137885E+01  0.98435149427E+00  0.25039085439E+01  0.51100000000E-03 0. -1.
        -11    1    3    3    0    0 -0.54494407274E+01  0.30334318608E+02 -0.17309134843E+02  0.35347891577E+02  0.51100000000E-03 0.  1.
        -12    1    3    3    0    0  0.59828806268E+01  0.78958465364E+01 -0.75783023950E+00  0.99354697822E+01  0.00000000000E+00 0.  1.
</event>
<event>
 7    1  0.2751796E-010  0.4778727E+02  0.7816164E-02  0.1312668E+00
        -11   -1    0    0    0    0  0.00000000000E+00  0.00000000000E+00  0.45593999997E+02  0.45594000000E+02  0.51100000000E-03 0.  1.
         11   -1    0    0    0    0 -0.00000000000E+00 -0.00000000000E+00 -0.45593999997E+02  0.45594000000E+02  0.51100000000E-03 0. -1.
    9900012    2    1    2    0    0 -0.21978393837E+02 -0.37277630680E+02  0.33093274005E+01  0.47787271981E+02  0.20000004269E+02 0.  0.
         12    1    1    2    0    0  0.21978393837E+02  0.37277630680E+02 -0.33093274005E+01  0.43400728019E+02  0.00000000000E+00 0. -1.
         11    1    3    3    0    0 -0.73040609963E+01 -0.36674973017E+01 -0.44902609460E+01  0.93253572114E+01  0.51100000000E-03 0. -1.
        -11    1    3    3    0    0 -0.89035339610E+01 -0.14785879019E+02 -0.66566123050E-01  0.17259767283E+02  0.51100000000E-03 0.  1.
         12    1    3    3    0    0 -0.57707988798E+01 -0.18824254359E+02  0.78661544695E+01  0.21202147486E+02  0.00000000000E+00 0. -1.
</event>
<event>
 7    1  0.2751796E-010  0.4778727E+02  0.7816164E-02  0.1312668E+00
        -11   -1    0    0    0    0  0.00000000000E+00  0.00000000000E+00  0.45593999997E+02  0.45594000000E+02  0.51100000000E-03 0.  1.
         11   -1    0    0    0    0 -0.00000000000E+00 -0.00000000000E+00 -0.45593999997E+02  0.45594000000E+02  0.51100000000E-03 0. -1.
    9900012    2    1    2    0    0 -0.31586844304E+01 -0.44020560041E+01  0.43061214395E+02  0.47787267638E+02  0.19999984470E+02 0.  0.
         12    1    1    2    0    0  0.31586844304E+01  0.44020560041E+01 -0.43061214395E+02  0.43400732362E+02  0.00000000000E+00 0. -1.
         11    1    3    3    0    0 -0.27166673534E+01 -0.25512429728E+01 -0.56137086301E+00  0.37688539004E+01  0.51100000000E-03 0. -1.
        -11    1    3    3    0    0 -0.23273932974E+01 -0.29005652956E+01  0.28993186787E+02  0.29230718755E+02  0.51100000000E-03 0.  1.
        -12    1    3    3    0    0  0.18853762204E+01  0.10497522642E+01  0.14629398470E+02  0.14787694983E+02  0.00000000000E+00 0.  1.
</event>
<event>
 7    1  0.2751796E-010  0.4778727E+02  0.7816164E-02  0.1312668E+00
        -11   -1    0    0    0    0  0.00000000000E+00  0.00000000000E+00  0.45593999997E+02  0.45594000000E+02  0.51100000000E-03 0. -1.
         11   -1    0    0    0    0 -0.00000000000E+00 -0.00000000000E+00 -0.45593999997E+02  0.45594000000E+02  0.51100000000E-03 0.  1.
    9900012    2    1    2    0    0  0.18815173364E+01 -0.14543613156E+02 -0.40848091630E+02  0.47787269811E+02  0.19999994376E+02 0.  0.
         12    1    1    2    0    0 -0.18815173364E+01  0.14543613156E+02  0.40848091630E+02  0.43400730189E+02  0.00000000000E+00 0. -1.
         11    1    3    3    0    0  0.96698292457E+01 -0.63740440849E+01 -0.19621852145E+02  0.22784887919E+02  0.51100000000E-03 0. -1.
        -11    1    3    3    0    0 -0.56536946844E+01 -0.17033076682E+01 -0.65213755326E+01  0.87973780012E+01  0.51100000000E-03 0.  1.
         12    1    3    3    0    0 -0.21346172250E+01 -0.64662614031E+01 -0.14704863953E+02  0.16205003891E+02  0.00000000000E+00 0. -1.
</event>
<event>
 7    1  0.2751796E-010  0.4778724E+02  0.7816164E-02  0.1312668E+00
        -11   -1    0    0    0    0  0.00000000000E+00  0.00000000000E+00  0.45593999997E+02  0.45594000000E+02  0.51100000000E-03 0.  1.
         11   -1    0    0    0    0 -0.00000000000E+00 -0.00000000000E+00 -0.45593999997E+02  0.45594000000E+02  0.51100000000E-03 0. -1.
    9900012    2    1    2    0    0  0.25912635735E+02 -0.30687038216E+02  0.16445884589E+02  0.47787238197E+02  0.19999850234E+02 0.  0.
         12    1    1    2    0    0 -0.25912635735E+02  0.30687038216E+02 -0.16445884589E+02  0.43400761803E+02  0.00000000000E+00 0. -1.
         11    1    3    3    0    0  0.15764053969E+01 -0.12383455067E+02  0.60501215259E+01  0.13872237891E+02  0.51100000000E-03 0. -1.
        -11    1    3    3    0    0  0.21165764895E+02 -0.15080132511E+02  0.12603598114E+02  0.28883398100E+02  0.51100000000E-03 0.  1.
         12    1    3    3    0    0  0.31704654430E+01 -0.32234506376E+01 -0.22078350511E+01  0.50316022052E+01  0.00000000000E+00 0. -1.
</event>
<event>
 7    1  0.2751796E-010  0.4778727E+02  0.7816164E-02  0.1312668E+00
        -11   -1    0    0    0    0  0.00000000000E+00  0.00000000000E+00  0.45593999997E+02  0.45594000000E+02  0.51100000000E-03 0.  1.
         11   -1    0    0    0    0 -0.00000000000E+00 -0.00000000000E+00 -0.45593999997E+02  0.45594000000E+02  0.51100000000E-03 0. -1.
    9900012    2    1    2    0    0  0.14600063876E+02 -0.35757708219E+02  0.19795144934E+02  0.47787270453E+02  0.19999997304E+02 0.  0.
         12    1    1    2    0    0 -0.14600063876E+02  0.35757708219E+02 -0.19795144934E+02  0.43400729547E+02  0.00000000000E+00 0. -1.
         11    1    3    3    0    0 -0.40079393272E+01 -0.27223563180E+01  0.95931985043E+00  0.49391392377E+01  0.51100000000E-03 0. -1.
        -11    1    3    3    0    0  0.15798090189E+02 -0.22607121653E+02  0.14941245698E+02  0.31367218976E+02  0.51100000000E-03 0.  1.
         12    1    3    3    0    0  0.28099130139E+01 -0.10428230248E+02  0.38945793864E+01  0.11480912239E+02  0.00000000000E+00 0. -1.
</event>
<event>
 7    1  0.2751796E-010  0.4778728E+02  0.7816164E-02  0.1312668E+00
        -11   -1    0    0    0    0  0.00000000000E+00  0.00000000000E+00  0.45593999997E+02  0.45594000000E+02  0.51100000000E-03 0.  1.
         11   -1    0    0    0    0 -0.00000000000E+00 -0.00000000000E+00 -0.45593999997E+02  0.45594000000E+02  0.51100000000E-03 0. -1.
    9900012    2    1    2    0    0  0.42634875472E+02  0.25692232235E+01  0.76999564743E+01  0.47787275994E+02  0.20000022568E+02 0.  0.
         12    1    1    2    0    0 -0.42634875472E+02 -0.25692232235E+01 -0.76999564743E+01  0.43400724006E+02  0.00000000000E+00 0. -1.
         11    1    3    3    0    0  0.14533164409E+02  0.72290861976E+01  0.71251678585E+01  0.17726831986E+02  0.51100000000E-03 0. -1.
        -11    1    3    3    0    0  0.70553008660E+01  0.23223684902E+01  0.24134855232E+01  0.78099666033E+01  0.51100000000E-03 0.  1.
         12    1    3    3    0    0  0.21046410198E+02 -0.69822314643E+01 -0.18386969074E+01  0.22250477405E+02  0.00000000000E+00 0. -1.
</event>
<event>
 7    1  0.2751796E-010  0.4778727E+02  0.7816164E-02  0.1312668E+00
        -11   -1    0    0    0    0  0.00000000000E+00  0.00000000000E+00  0.45593999997E+02  0.45594000000E+02  0.51100000000E-03 0.  1.
         11   -1    0    0    0    0 -0.00000000000E+00 -0.00000000000E+00 -0.45593999997E+02  0.45594000000E+02  0.51100000000E-03 0. -1.
    9900012    2    1    2    0    0 -0.97240881827E+01 -0.29187701563E+02  0.30612795060E+02  0.47787273797E+02  0.20000012550E+02 0.  0.
         12    1    1    2    0    0  0.97240881827E+01  0.29187701563E+02 -0.30612795060E+02  0.43400726203E+02  0.00000000000E+00 0. -1.
         11    1    3    3    0    0 -0.21092323642E+00 -0.19392680156E+02  0.14119226617E+02  0.23989020255E+02  0.51100000000E-03 0. -1.
        -11    1    3    3    0    0 -0.48659815042E+01 -0.18513956521E+01  0.12913169457E+02  0.13923196024E+02  0.51100000000E-03 0.  1.
         12    1    3    3    0    0 -0.46471834421E+01 -0.79436257551E+01  0.35803989867E+01  0.98750575181E+01  0.00000000000E+00 0. -1.
</event>
<event>
 7    1  0.2751796E-010  0.4778727E+02  0.7816164E-02  0.1312668E+00
        -11   -1    0    0    0    0  0.00000000000E+00  0.00000000000E+00  0.45593999997E+02  0.45594000000E+02  0.51100000000E-03 0.  1.
         11   -1    0    0    0    0 -0.00000000000E+00 -0.00000000000E+00 -0.45593999997E+02  0.45594000000E+02  0.51100000000E-03 0. -1.
    9900012    2    1    2    0    0  0.38431607215E+01  0.12741987872E+01  0.43211454390E+02  0.47787271234E+02  0.20000000866E+02 0.  0.
         12    1    1    2    0    0 -0.38431607215E+01 -0.12741987872E+01 -0.43211454390E+02  0.43400728766E+02  0.00000000000E+00 0. -1.
         11    1    3    3    0    0  0.36230080085E+01 -0.28597406404E+00  0.28988454451E+01  0.46487926788E+01  0.51100000000E-03 0. -1.
        -11    1    3    3    0    0 -0.52671461478E+01  0.34863630216E+01  0.33892246797E+02  0.34475816870E+02  0.51100000000E-03 0.  1.
        -12    1    3    3    0    0  0.54872988608E+01 -0.19261901704E+01  0.64203621480E+01  0.86626616852E+01  0.00000000000E+00 0.  1.
</event>
<event>
 7    1  0.2751796E-010  0.4778727E+02  0.7816164E-02  0.1312668E+00
        -11   -1    0    0    0    0  0.00000000000E+00  0.00000000000E+00  0.45593999997E+02  0.45594000000E+02  0.51100000000E-03 0. -1.
         11   -1    0    0    0    0 -0.00000000000E+00 -0.00000000000E+00 -0.45593999997E+02  0.45594000000E+02  0.51100000000E-03 0.  1.
    9900012    2    1    2    0    0  0.43331533389E+02 -0.21243456870E+01 -0.12202107860E+01  0.47787267924E+02  0.19999985771E+02 0.  0.
         12    1    1    2    0    0 -0.43331533389E+02  0.21243456870E+01  0.12202107860E+01  0.43400732076E+02  0.00000000000E+00 0. -1.
         11    1    3    3    0    0  0.18443038801E+01 -0.28341044051E+01  0.35248111147E+01  0.48844547533E+01  0.51100000000E-03 0. -1.
        -11    1    3    3    0    0  0.24437775476E+02  0.52474969224E+01 -0.29757348947E+01  0.25171334740E+02  0.51100000000E-03 0.  1.
        -12    1    3    3    0    0  0.17049454033E+02 -0.45377382043E+01 -0.17692870060E+01  0.17731478430E+02  0.00000000000E+00 0.  1.
</event>
<event>
 7    1  0.2751796E-010  0.4778727E+02  0.7816164E-02  0.1312668E+00
        -11   -1    0    0    0    0  0.00000000000E+00  0.00000000000E+00  0.45593999997E+02  0.45594000000E+02  0.51100000000E-03 0.  1.
         11   -1    0    0    0    0 -0.00000000000E+00 -0.00000000000E+00 -0.45593999997E+02  0.45594000000E+02  0.51100000000E-03 0. -1.
    9900012    2    1    2    0    0 -0.50735234180E+00 -0.43395909202E+02 -0.40142071784E+00  0.47787268664E+02  0.19999989148E+02 0.  0.
         12    1    1    2    0    0  0.50735234180E+00  0.43395909202E+02  0.40142071784E+00  0.43400731336E+02  0.00000000000E+00 0. -1.
         11    1    3    3    0    0  0.25708074601E+01 -0.45259347108E+01 -0.57617012171E+01  0.77646852595E+01  0.51100000000E-03 0.  1.
        -11    1    3    3    0    0 -0.12172257256E+01 -0.36896793251E+02  0.54017840278E+01  0.37309975363E+02  0.51100000000E-03 0. -1.
         12    1    3    3    0    0 -0.18609340763E+01 -0.19731812405E+01 -0.41503528552E-01  0.27126080415E+01  0.00000000000E+00 0. -1.
</event>
<event>
 7    1  0.2751796E-010  0.4778728E+02  0.7816164E-02  0.1312668E+00
        -11   -1    0    0    0    0  0.00000000000E+00  0.00000000000E+00  0.45593999997E+02  0.45594000000E+02  0.51100000000E-03 0. -1.
         11   -1    0    0    0    0 -0.00000000000E+00 -0.00000000000E+00 -0.45593999997E+02  0.45594000000E+02  0.51100000000E-03 0.  1.
    9900012    2    1    2    0    0 -0.36201772437E+02  0.13358884544E+02 -0.19864407125E+02  0.47787276570E+02  0.20000025192E+02 0.  0.
         12    1    1    2    0    0  0.36201772437E+02 -0.13358884544E+02  0.19864407125E+02  0.43400723430E+02  0.00000000000E+00 0. -1.
         11    1    3    3    0    0 -0.15531522128E+02  0.18279079703E+01 -0.14573685370E+02  0.21376663273E+02  0.51100000000E-03 0.  1.
        -11    1    3    3    0    0 -0.95007786853E+01  0.15898792511E+01 -0.61576772691E+01  0.11432825603E+02  0.51100000000E-03 0. -1.
         12    1    3    3    0    0 -0.11169471624E+02  0.99410973221E+01  0.86695551481E+00  0.14977787693E+02  0.00000000000E+00 0. -1.
</event>
<event>
 7    1  0.2751796E-010  0.4778727E+02  0.7816164E-02  0.1312668E+00
        -11   -1    0    0    0    0  0.00000000000E+00  0.00000000000E+00  0.45593999997E+02  0.45594000000E+02  0.51100000000E-03 0.  1.
         11   -1    0    0    0    0 -0.00000000000E+00 -0.00000000000E+00 -0.45593999997E+02  0.45594000000E+02  0.51100000000E-03 0. -1.
    9900012    2    1    2    0    0 -0.18056740508E+02 -0.49993864500E+00  0.39462991689E+02  0.47787268099E+02  0.19999986573E+02 0.  0.
         12    1    1    2    0    0  0.18056740508E+02  0.49993864500E+00 -0.39462991689E+02  0.43400731901E+02  0.00000000000E+00 0. -1.
         11    1    3    3    0    0 -0.15769629863E+02 -0.23743256650E+01  0.18048700501E+02  0.24084730400E+02  0.51100000000E-03 0. -1.
        -11    1    3    3    0    0  0.22139583192E+01 -0.28564590330E+01  0.69894481123E+01  0.78685039761E+01  0.51100000000E-03 0.  1.
         12    1    3    3    0    0 -0.45010689642E+01  0.47308460530E+01  0.14424843076E+02  0.15834033723E+02  0.00000000000E+00 0. -1.
</event>
<event>
 7    1  0.2751796E-010  0.4778727E+02  0.7816164E-02  0.1312668E+00
        -11   -1    0    0    0    0  0.00000000000E+00  0.00000000000E+00  0.45593999997E+02  0.45594000000E+02  0.51100000000E-03 0.  1.
         11   -1    0    0    0    0 -0.00000000000E+00 -0.00000000000E+00 -0.45593999997E+02  0.45594000000E+02  0.51100000000E-03 0. -1.
    9900012    2    1    2    0    0  0.18557920764E+02 -0.10628306453E+01  0.39218582451E+02  0.47787271416E+02  0.20000001696E+02 0.  0.
         12    1    1    2    0    0 -0.18557920764E+02  0.10628306453E+01 -0.39218582451E+02  0.43400728584E+02  0.00000000000E+00 0. -1.
         11    1    3    3    0    0  0.10779866036E+02 -0.58675273542E+01  0.17768751718E+02  0.21595414488E+02  0.51100000000E-03 0. -1.
        -11    1    3    3    0    0  0.50827604366E+01  0.84685542096E+01  0.10933594350E+02  0.14734121953E+02  0.51100000000E-03 0.  1.
         12    1    3    3    0    0  0.26952942919E+01 -0.36638575008E+01  0.10516236384E+02  0.11457734976E+02  0.00000000000E+00 0. -1.
</event>
<event>
 7    1  0.2751796E-010  0.4778728E+02  0.7816164E-02  0.1312668E+00
        -11   -1    0    0    0    0  0.00000000000E+00  0.00000000000E+00  0.45593999997E+02  0.45594000000E+02  0.51100000000E-03 0.  1.
         11   -1    0    0    0    0 -0.00000000000E+00 -0.00000000000E+00 -0.45593999997E+02  0.45594000000E+02  0.51100000000E-03 0. -1.
    9900012    2    1    2    0    0 -0.12399138325E+02 -0.20770592588E+02  0.36034239147E+02  0.47787279515E+02  0.20000038622E+02 0.  0.
         12    1    1    2    0    0  0.12399138325E+02  0.20770592588E+02 -0.36034239147E+02  0.43400720485E+02  0.00000000000E+00 0. -1.
         11    1    3    3    0    0  0.23772790122E+01 -0.34555772334E+01  0.36280621051E+01  0.55457465158E+01  0.51100000000E-03 0. -1.
        -11    1    3    3    0    0 -0.17760723745E+02 -0.13964345084E+02  0.27561133856E+02  0.35637934021E+02  0.51100000000E-03 0.  1.
        -12    1    3    3    0    0  0.29843064075E+01 -0.33506702707E+01  0.48450431859E+01  0.66035989786E+01  0.00000000000E+00 0.  1.
</event>
<event>
 7    1  0.2751796E-010  0.4778728E+02  0.7816164E-02  0.1312668E+00
        -11   -1    0    0    0    0  0.00000000000E+00  0.00000000000E+00  0.45593999997E+02  0.45594000000E+02  0.51100000000E-03 0. -1.
         11   -1    0    0    0    0 -0.00000000000E+00 -0.00000000000E+00 -0.45593999997E+02  0.45594000000E+02  0.51100000000E-03 0.  1.
    9900012    2    1    2    0    0 -0.41758719021E+02  0.11710159554E+02 -0.16444815860E+01  0.47787276841E+02  0.20000026427E+02 0.  0.
         12    1    1    2    0    0  0.41758719021E+02 -0.11710159554E+02  0.16444815860E+01  0.43400723159E+02  0.00000000000E+00 0. -1.
         11    1    3    3    0    0 -0.54764603173E+01  0.18326245379E+01 -0.71809628974E+01  0.92150072544E+01  0.51100000000E-03 0. -1.
        -11    1    3    3    0    0 -0.10963234832E+02  0.44042060032E+01 -0.99813709844E+00  0.11856889408E+02  0.51100000000E-03 0.  1.
         12    1    3    3    0    0 -0.25319023872E+02  0.54733290132E+01  0.65346184098E+01  0.26715380179E+02  0.00000000000E+00 0. -1.
</event>
<event>
 7    1  0.2751796E-010  0.4778727E+02  0.7816164E-02  0.1312668E+00
        -11   -1    0    0    0    0  0.00000000000E+00  0.00000000000E+00  0.45593999997E+02  0.45594000000E+02  0.51100000000E-03 0.  1.
         11   -1    0    0    0    0 -0.00000000000E+00 -0.00000000000E+00 -0.45593999997E+02  0.45594000000E+02  0.51100000000E-03 0. -1.
    9900012    2    1    2    0    0 -0.31961832891E+02 -0.20589646215E+02  0.20931583705E+02  0.47787268561E+02  0.19999988678E+02 0.  0.
         12    1    1    2    0    0  0.31961832891E+02  0.20589646215E+02 -0.20931583705E+02  0.43400731439E+02  0.00000000000E+00 0. -1.
         11    1    3    3    0    0 -0.52696571071E+01 -0.12541146154E+02  0.55800738799E+01  0.14703294109E+02  0.51100000000E-03 0. -1.
        -11    1    3    3    0    0 -0.16932102087E+02 -0.66527822270E+01  0.14356254937E+02  0.23174504278E+02  0.51100000000E-03 0.  1.
         12    1    3    3    0    0 -0.97600736976E+01 -0.13957178339E+01  0.99525488782E+00  0.99094701748E+01  0.00000000000E+00 0. -1.
</event>
<event>
 7    1  0.2751796E-010  0.4778727E+02  0.7816164E-02  0.1312668E+00
        -11   -1    0    0    0    0  0.00000000000E+00  0.00000000000E+00  0.45593999997E+02  0.45594000000E+02  0.51100000000E-03 0.  1.
         11   -1    0    0    0    0 -0.00000000000E+00 -0.00000000000E+00 -0.45593999997E+02  0.45594000000E+02  0.51100000000E-03 0. -1.
    9900012    2    1    2    0    0  0.13334791531E+02 -0.41242845025E+02  0.21987061511E+01  0.47787271439E+02  0.20000001798E+02 0.  0.
         12    1    1    2    0    0 -0.13334791531E+02  0.41242845025E+02 -0.21987061511E+01  0.43400728561E+02  0.00000000000E+00 0. -1.
         11    1    3    3    0    0  0.27569625935E+00 -0.94274454959E+01 -0.40529586076E+00  0.94401801890E+01  0.51100000000E-03 0. -1.
        -11    1    3    3    0    0  0.11022593013E+02 -0.27935762912E+02 -0.41286478624E+01  0.30314190400E+02  0.51100000000E-03 0.  1.
        -12    1    3    3    0    0  0.20365022584E+01 -0.38796366173E+01  0.67326498743E+01  0.80329008497E+01  0.00000000000E+00 0.  1.
</event>
<event>
 7    1  0.2751796E-010  0.4778727E+02  0.7816164E-02  0.1312668E+00
        -11   -1    0    0    0    0  0.00000000000E+00  0.00000000000E+00  0.45593999997E+02  0.45594000000E+02  0.51100000000E-03 0.  1.
         11   -1    0    0    0    0 -0.00000000000E+00 -0.00000000000E+00 -0.45593999997E+02  0.45594000000E+02  0.51100000000E-03 0. -1.
    9900012    2    1    2    0    0  0.32631979464E+02  0.14920635181E+02  0.24416227568E+02  0.47787267211E+02  0.19999982524E+02 0.  0.
         12    1    1    2    0    0 -0.32631979464E+02 -0.14920635181E+02 -0.24416227568E+02  0.43400732789E+02  0.00000000000E+00 0. -1.
         11    1    3    3    0    0 -0.14178228537E+01  0.27660443344E+01  0.39167134242E+01  0.50001867178E+01  0.51100000000E-03 0. -1.
        -11    1    3    3    0    0  0.22139932072E+02  0.81868406733E+01  0.76266856908E+01  0.24806597656E+02  0.51100000000E-03 0.  1.
        -12    1    3    3    0    0  0.11909870246E+02  0.39677501730E+01  0.12872828453E+02  0.17980482838E+02  0.00000000000E+00 0.  1.
</event>
<event>
 7    1  0.2751796E-010  0.4778727E+02  0.7816164E-02  0.1312668E+00
        -11   -1    0    0    0    0  0.00000000000E+00  0.00000000000E+00  0.45593999997E+02  0.45594000000E+02  0.51100000000E-03 0.  1.
         11   -1    0    0    0    0 -0.00000000000E+00 -0.00000000000E+00 -0.45593999997E+02  0.45594000000E+02  0.51100000000E-03 0. -1.
    9900012    2    1    2    0    0  0.34142772194E+02 -0.25849996146E+02  0.70478275732E+01  0.47787273424E+02  0.20000010850E+02 0.  0.
         12    1    1    2    0    0 -0.34142772194E+02  0.25849996146E+02 -0.70478275732E+01  0.43400726576E+02  0.00000000000E+00 0. -1.
         11    1    3    3    0    0  0.86463859628E+01 -0.18102030042E+02  0.25470545558E+01  0.20222041663E+02  0.51100000000E-03 0. -1.
        -11    1    3    3    0    0  0.20185736378E+02 -0.63788511966E+01  0.57578767146E+01  0.21938706439E+02  0.51100000000E-03 0.  1.
         12    1    3    3    0    0  0.53106498532E+01 -0.13691149072E+01 -0.12571036972E+01  0.56265253219E+01  0.00000000000E+00 0. -1.
</event>
<event>
 7    1  0.2751796E-010  0.4778727E+02  0.7816164E-02  0.1312668E+00
        -11   -1    0    0    0    0  0.00000000000E+00  0.00000000000E+00  0.45593999997E+02  0.45594000000E+02  0.51100000000E-03 0.  1.
         11   -1    0    0    0    0 -0.00000000000E+00 -0.00000000000E+00 -0.45593999997E+02  0.45594000000E+02  0.51100000000E-03 0. -1.
    9900012    2    1    2    0    0  0.11791956836E+02  0.39256288807E+02  0.14265920317E+02  0.47787274897E+02  0.20000017567E+02 0.  0.
         12    1    1    2    0    0 -0.11791956836E+02 -0.39256288807E+02 -0.14265920317E+02  0.43400725103E+02  0.00000000000E+00 0. -1.
         11    1    3    3    0    0  0.17209431821E+01  0.13882134758E+02  0.97681531077E+01  0.17061422165E+02  0.51100000000E-03 0. -1.
        -11    1    3    3    0    0  0.69806674917E+01  0.33415652834E+01 -0.10130124844E+01  0.78052528292E+01  0.51100000000E-03 0.  1.
        -12    1    3    3    0    0  0.30903461626E+01  0.22032588765E+02  0.55107796938E+01  0.22920599904E+02  0.00000000000E+00 0.  1.
</event>
<event>
 7    1  0.2751796E-010  0.4778727E+02  0.7816164E-02  0.1312668E+00
        -11   -1    0    0    0    0  0.00000000000E+00  0.00000000000E+00  0.45593999997E+02  0.45594000000E+02  0.51100000000E-03 0.  1.
         11   -1    0    0    0    0 -0.00000000000E+00 -0.00000000000E+00 -0.45593999997E+02  0.45594000000E+02  0.51100000000E-03 0. -1.
    9900012    2    1    2    0    0  0.18440973435E+02 -0.60750964135E+01  0.38815550909E+02  0.47787270858E+02  0.19999999149E+02 0.  0.
         12    1    1    2    0    0 -0.18440973435E+02  0.60750964135E+01 -0.38815550909E+02  0.43400729142E+02  0.00000000000E+00 0. -1.
         11    1    3    3    0    0  0.61370577496E+01  0.14078833453E+01  0.14689914448E+02  0.15982465394E+02  0.51100000000E-03 0.  1.
        -11    1    3    3    0    0  0.14701045572E+02 -0.21864404923E+01  0.18289623212E+02  0.23567171669E+02  0.51100000000E-03 0. -1.
        -12    1    3    3    0    0 -0.23971298866E+01 -0.52965392664E+01  0.58360132496E+01  0.82376337951E+01  0.00000000000E+00 0.  1.
</event>
<event>
 7    1  0.2751796E-010  0.4778727E+02  0.7816164E-02  0.1312668E+00
        -11   -1    0    0    0    0  0.00000000000E+00  0.00000000000E+00  0.45593999997E+02  0.45594000000E+02  0.51100000000E-03 0. -1.
         11   -1    0    0    0    0 -0.00000000000E+00 -0.00000000000E+00 -0.45593999997E+02  0.45594000000E+02  0.51100000000E-03 0.  1.
    9900012    2    1    2    0    0 -0.13294102044E+02  0.36223918796E+02 -0.19867503382E+02  0.47787272670E+02  0.20000007411E+02 0.  0.
         12    1    1    2    0    0  0.13294102044E+02 -0.36223918796E+02  0.19867503382E+02  0.43400727330E+02  0.00000000000E+00 0. -1.
         11    1    3    3    0    0 -0.89739585099E+00  0.85691957339E+01  0.23109424752E+01  0.89205879976E+01  0.51100000000E-03 0. -1.
        -11    1    3    3    0    0 -0.12866106658E+01  0.14504483481E+02 -0.11989654274E+02  0.18862322708E+02  0.51100000000E-03 0.  1.
         12    1    3    3    0    0 -0.11110095527E+02  0.13150239581E+02 -0.10188791584E+02  0.20004361965E+02  0.00000000000E+00 0. -1.
</event>
<event>
 7    1  0.2751796E-010  0.4778727E+02  0.7816164E-02  0.1312668E+00
        -11   -1    0    0    0    0  0.00000000000E+00  0.00000000000E+00  0.45593999997E+02  0.45594000000E+02  0.51100000000E-03 0. -1.
         11   -1    0    0    0    0 -0.00000000000E+00 -0.00000000000E+00 -0.45593999997E+02  0.45594000000E+02  0.51100000000E-03 0.  1.
    9900012    2    1    2    0    0 -0.26564476938E+02  0.31135502902E+02 -0.14440642389E+02  0.47787272718E+02  0.20000007631E+02 0.  0.
         12    1    1    2    0    0  0.26564476938E+02 -0.31135502902E+02  0.14440642389E+02  0.43400727282E+02  0.00000000000E+00 0. -1.
         11    1    3    3    0    0  0.13286343363E+01  0.66427518306E+01 -0.25853516471E+01  0.72508940471E+01  0.51100000000E-03 0. -1.
        -11    1    3    3    0    0 -0.15852958012E+02  0.12730090066E+02 -0.70081743018E+00  0.20343613645E+02  0.51100000000E-03 0.  1.
        -12    1    3    3    0    0 -0.12040153263E+02  0.11762661006E+02 -0.11154473312E+02  0.20192765026E+02  0.00000000000E+00 0.  1.
</event>
<event>
 7    1  0.2751796E-010  0.4778727E+02  0.7816164E-02  0.1312668E+00
        -11   -1    0    0    0    0  0.00000000000E+00  0.00000000000E+00  0.45593999997E+02  0.45594000000E+02  0.51100000000E-03 0. -1.
         11   -1    0    0    0    0 -0.00000000000E+00 -0.00000000000E+00 -0.45593999997E+02  0.45594000000E+02  0.51100000000E-03 0.  1.
    9900012    2    1    2    0    0  0.14238049750E+02  0.17661874361E+02 -0.36999453519E+02  0.47787269277E+02  0.19999991940E+02 0.  0.
         12    1    1    2    0    0 -0.14238049750E+02 -0.17661874361E+02  0.36999453519E+02  0.43400730723E+02  0.00000000000E+00 0. -1.
         11    1    3    3    0    0  0.62745502837E+01  0.15291399285E+01 -0.91912243878E+00  0.65232688510E+01  0.51100000000E-03 0. -1.
        -11    1    3    3    0    0  0.94319752902E+01  0.15648131352E+02 -0.31330735893E+02  0.36269011354E+02  0.51100000000E-03 0.  1.
        -12    1    3    3    0    0 -0.14684758243E+01  0.48460308017E+00 -0.47495951867E+01  0.49949890720E+01  0.00000000000E+00 0.  1.
</event>
<event>
 7    1  0.2751796E-010  0.4778727E+02  0.7816164E-02  0.1312668E+00
        -11   -1    0    0    0    0  0.00000000000E+00  0.00000000000E+00  0.45593999997E+02  0.45594000000E+02  0.51100000000E-03 0.  1.
         11   -1    0    0    0    0 -0.00000000000E+00 -0.00000000000E+00 -0.45593999997E+02  0.45594000000E+02  0.51100000000E-03 0. -1.
    9900012    2    1    2    0    0  0.21931807246E+02 -0.13435310441E+02  0.34958714974E+02  0.47787268574E+02  0.19999988734E+02 0.  0.
         12    1    1    2    0    0 -0.21931807246E+02  0.13435310441E+02 -0.34958714974E+02  0.43400731426E+02  0.00000000000E+00 0. -1.
         11    1    3    3    0    0  0.12545499267E+01  0.10860858362E+01 -0.39678392472E+00  0.17061405881E+01  0.51100000000E-03 0. -1.
        -11    1    3    3    0    0  0.12839765390E+02 -0.13388856150E+00  0.18991536711E+02  0.22925007488E+02  0.51100000000E-03 0.  1.
        -12    1    3    3    0    0  0.78374919291E+01 -0.14387507716E+02  0.16363962187E+02  0.23156120497E+02  0.00000000000E+00 0.  1.
</event>
<event>
 7    1  0.2751796E-010  0.4778727E+02  0.7816164E-02  0.1312668E+00
        -11   -1    0    0    0    0  0.00000000000E+00  0.00000000000E+00  0.45593999997E+02  0.45594000000E+02  0.51100000000E-03 0.  1.
         11   -1    0    0    0    0 -0.00000000000E+00 -0.00000000000E+00 -0.45593999997E+02  0.45594000000E+02  0.51100000000E-03 0. -1.
    9900012    2    1    2    0    0 -0.24651897355E+01  0.20700054502E+02  0.38066440437E+02  0.47787270693E+02  0.19999998398E+02 0.  0.
         12    1    1    2    0    0  0.24651897355E+01 -0.20700054502E+02 -0.38066440437E+02  0.43400729307E+02  0.00000000000E+00 0. -1.
         11    1    3    3    0    0 -0.49067446102E+01 -0.75903150577E+00  0.56698121445E+01  0.75365138832E+01  0.51100000000E-03 0. -1.
        -11    1    3    3    0    0 -0.28430944809E+01  0.15826982634E+02  0.23419070021E+02  0.28408262995E+02  0.51100000000E-03 0.  1.
         12    1    3    3    0    0  0.52846493555E+01  0.56321033740E+01  0.89775582721E+01  0.11842493815E+02  0.00000000000E+00 0. -1.
</event>
<event>
 7    1  0.2751796E-010  0.4778726E+02  0.7816164E-02  0.1312668E+00
        -11   -1    0    0    0    0  0.00000000000E+00  0.00000000000E+00  0.45593999997E+02  0.45594000000E+02  0.51100000000E-03 0.  1.
         11   -1    0    0    0    0 -0.00000000000E+00 -0.00000000000E+00 -0.45593999997E+02  0.45594000000E+02  0.51100000000E-03 0. -1.
    9900012    2    1    2    0    0  0.23824133754E+02 -0.73134490932E+01  0.35532355735E+02  0.47787260481E+02  0.19999951835E+02 0.  0.
         12    1    1    2    0    0 -0.23824133754E+02  0.73134490932E+01 -0.35532355735E+02  0.43400739519E+02  0.00000000000E+00 0. -1.
         11    1    3    3    0    0  0.17737315290E-01 -0.85876826520E+00  0.76079794507E+01  0.76563143306E+01  0.51100000000E-03 0. -1.
        -11    1    3    3    0    0  0.43131983273E+01 -0.81446780362E+01  0.99374658037E+01  0.13553327524E+02  0.51100000000E-03 0.  1.
        -12    1    3    3    0    0  0.19493198112E+02  0.16899972082E+01  0.17986910480E+02  0.26577618626E+02  0.00000000000E+00 0.  1.
</event>
<event>
 7    1  0.2751796E-010  0.4778727E+02  0.7816164E-02  0.1312668E+00
        -11   -1    0    0    0    0  0.00000000000E+00  0.00000000000E+00  0.45593999997E+02  0.45594000000E+02  0.51100000000E-03 0. -1.
         11   -1    0    0    0    0 -0.00000000000E+00 -0.00000000000E+00 -0.45593999997E+02  0.45594000000E+02  0.51100000000E-03 0.  1.
    9900012    2    1    2    0    0 -0.15991220073E+02 -0.37455600389E+02  0.14999408513E+02  0.47787269871E+02  0.19999994652E+02 0.  0.
         12    1    1    2    0    0  0.15991220073E+02  0.37455600389E+02 -0.14999408513E+02  0.43400730129E+02  0.00000000000E+00 0. -1.
         11    1    3    3    0    0  0.74046828068E+00 -0.16214448096E+02  0.65426658420E+01  0.17500374194E+02  0.51100000000E-03 0. -1.
        -11    1    3    3    0    0 -0.10818202288E+02 -0.55174942353E+01  0.20928844914E+01  0.12323003251E+02  0.51100000000E-03 0.  1.
        -12    1    3    3    0    0 -0.59134860657E+01 -0.15723658058E+02  0.63638581798E+01  0.17963892426E+02  0.00000000000E+00 0.  1.
</event>
<event>
 7    1  0.2751796E-010  0.4778727E+02  0.7816164E-02  0.1312668E+00
        -11   -1    0    0    0    0  0.00000000000E+00  0.00000000000E+00  0.45593999997E+02  0.45594000000E+02  0.51100000000E-03 0. -1.
         11   -1    0    0    0    0 -0.00000000000E+00 -0.00000000000E+00 -0.45593999997E+02  0.45594000000E+02  0.51100000000E-03 0.  1.
    9900012    2    1    2    0    0 -0.19746516154E+02 -0.30326726202E+02 -0.23958051573E+02  0.47787268929E+02  0.19999990353E+02 0.  0.
         12    1    1    2    0    0  0.19746516154E+02  0.30326726202E+02  0.23958051573E+02  0.43400731071E+02  0.00000000000E+00 0. -1.
         11    1    3    3    0    0 -0.25775819335E+01  0.15980411526E+01 -0.13019384164E+01  0.33004102852E+01  0.51100000000E-03 0. -1.
        -11    1    3    3    0    0 -0.16640434739E+02 -0.32845714654E+02 -0.20646599777E+02  0.42214063084E+02  0.51100000000E-03 0.  1.
        -12    1    3    3    0    0 -0.52849948117E+00  0.92094729952E+00 -0.20095133801E+01  0.22727955594E+01  0.00000000000E+00 0.  1.
</event>
<event>
 7    1  0.2751796E-010  0.4778727E+02  0.7816164E-02  0.1312668E+00
        -11   -1    0    0    0    0  0.00000000000E+00  0.00000000000E+00  0.45593999997E+02  0.45594000000E+02  0.51100000000E-03 0.  1.
         11   -1    0    0    0    0 -0.00000000000E+00 -0.00000000000E+00 -0.45593999997E+02  0.45594000000E+02  0.51100000000E-03 0. -1.
    9900012    2    1    2    0    0  0.41060398640E+02  0.11927192819E+02  0.74437097883E+01  0.47787273273E+02  0.20000010162E+02 0.  0.
         12    1    1    2    0    0 -0.41060398640E+02 -0.11927192819E+02 -0.74437097883E+01  0.43400726727E+02  0.00000000000E+00 0. -1.
         11    1    3    3    0    0  0.14049453849E+02  0.81097867954E+01  0.68939877277E+01  0.17626198183E+02  0.51100000000E-03 0. -1.
        -11    1    3    3    0    0  0.23422836237E+02 -0.15693569763E+01 -0.10327088037E+01  0.23498055801E+02  0.51100000000E-03 0.  1.
        -12    1    3    3    0    0  0.35881085532E+01  0.53867629997E+01  0.15824308643E+01  0.66630192890E+01  0.00000000000E+00 0.  1.
</event>
<event>
 7    1  0.2751796E-010  0.4778727E+02  0.7816164E-02  0.1312668E+00
        -11   -1    0    0    0    0  0.00000000000E+00  0.00000000000E+00  0.45593999997E+02  0.45594000000E+02  0.51100000000E-03 0. -1.
         11   -1    0    0    0    0 -0.00000000000E+00 -0.00000000000E+00 -0.45593999997E+02  0.45594000000E+02  0.51100000000E-03 0.  1.
    9900012    2    1    2    0    0  0.30017160072E+02  0.29632786237E+02 -0.10222104664E+02  0.47787270251E+02  0.19999996385E+02 0.  0.
         12    1    1    2    0    0 -0.30017160072E+02 -0.29632786237E+02  0.10222104664E+02  0.43400729749E+02  0.00000000000E+00 0. -1.
         11    1    3    3    0    0  0.39419116422E+01  0.12947769861E+02  0.19312467431E+01  0.13671617535E+02  0.51100000000E-03 0.  1.
        -11    1    3    3    0    0  0.16855655158E+02  0.76390994639E+01 -0.42987622109E+01  0.18998639641E+02  0.51100000000E-03 0. -1.
         12    1    3    3    0    0  0.92195932717E+01  0.90459169122E+01 -0.78545891967E+01  0.15117013076E+02  0.00000000000E+00 0. -1.
</event>
<event>
 7    1  0.2751796E-010  0.4778728E+02  0.7816164E-02  0.1312668E+00
        -11   -1    0    0    0    0  0.00000000000E+00  0.00000000000E+00  0.45593999997E+02  0.45594000000E+02  0.51100000000E-03 0.  1.
         11   -1    0    0    0    0 -0.00000000000E+00 -0.00000000000E+00 -0.45593999997E+02  0.45594000000E+02  0.51100000000E-03 0. -1.
    9900012    2    1    2    0    0  0.41548883799E+02  0.10876902669E+02 -0.62454818220E+01  0.47787276506E+02  0.20000024902E+02 0.  0.
         12    1    1    2    0    0 -0.41548883799E+02 -0.10876902669E+02  0.62454818220E+01  0.43400723494E+02  0.00000000000E+00 0. -1.
         11    1    3    3    0    0 -0.97420083390E+00  0.15286429554E+01 -0.16727468910E+01  0.24665560955E+01  0.51100000000E-03 0. -1.
        -11    1    3    3    0    0  0.42792633446E+02  0.94577799099E+01 -0.56653867588E+01  0.44189995310E+02  0.51100000000E-03 0.  1.
        -12    1    3    3    0    0 -0.26954881353E+00 -0.10952019668E+00  0.10926518278E+01  0.11307251006E+01  0.00000000000E+00 0.  1.
</event>
<event>
 7    1  0.2751796E-010  0.4778727E+02  0.7816164E-02  0.1312668E+00
        -11   -1    0    0    0    0  0.00000000000E+00  0.00000000000E+00  0.45593999997E+02  0.45594000000E+02  0.51100000000E-03 0.  1.
         11   -1    0    0    0    0 -0.00000000000E+00 -0.00000000000E+00 -0.45593999997E+02  0.45594000000E+02  0.51100000000E-03 0. -1.
    9900012    2    1    2    0    0 -0.52197761204E+01  0.30347225759E+02  0.30584686626E+02  0.47787271549E+02  0.20000002301E+02 0.  0.
         12    1    1    2    0    0  0.52197761204E+01 -0.30347225759E+02 -0.30584686626E+02  0.43400728451E+02  0.00000000000E+00 0. -1.
         11    1    3    3    0    0  0.29825629134E+01  0.53575578546E+01  0.75978008012E+01  0.97634873367E+01  0.51100000000E-03 0.  1.
        -11    1    3    3    0    0 -0.26040547719E+01  0.14355701924E+02  0.32996237975E+01  0.14958435628E+02  0.51100000000E-03 0. -1.
        -12    1    3    3    0    0 -0.55982842619E+01  0.10633965981E+02  0.19687262028E+02  0.23065348584E+02  0.00000000000E+00 0.  1.
</event>
<event>
 7    1  0.2751796E-010  0.4778727E+02  0.7816164E-02  0.1312668E+00
        -11   -1    0    0    0    0  0.00000000000E+00  0.00000000000E+00  0.45593999997E+02  0.45594000000E+02  0.51100000000E-03 0.  1.
         11   -1    0    0    0    0 -0.00000000000E+00 -0.00000000000E+00 -0.45593999997E+02  0.45594000000E+02  0.51100000000E-03 0. -1.
    9900012    2    1    2    0    0 -0.32444973995E+02 -0.28322738217E+02  0.53637014024E+01  0.47787272697E+02  0.20000007537E+02 0.  0.
         12    1    1    2    0    0  0.32444973995E+02  0.28322738217E+02 -0.53637014024E+01  0.43400727303E+02  0.00000000000E+00 0. -1.
         11    1    3    3    0    0 -0.17887569606E+02 -0.11023619973E+02  0.87007094174E+01  0.22741760889E+02  0.51100000000E-03 0. -1.
        -11    1    3    3    0    0 -0.13677505570E+02 -0.13300323053E+02 -0.61876894983E+01  0.20056426739E+02  0.51100000000E-03 0.  1.
        -12    1    3    3    0    0 -0.87989881894E+00 -0.39987951911E+01  0.28506814833E+01  0.49890850696E+01  0.00000000000E+00 0.  1.
</event>
<event>
 7    1  0.2751796E-010  0.4778727E+02  0.7816164E-02  0.1312668E+00
        -11   -1    0    0    0    0  0.00000000000E+00  0.00000000000E+00  0.45593999997E+02  0.45594000000E+02  0.51100000000E-03 0.  1.
         11   -1    0    0    0    0 -0.00000000000E+00 -0.00000000000E+00 -0.45593999997E+02  0.45594000000E+02  0.51100000000E-03 0. -1.
    9900012    2    1    2    0    0  0.70235478063E+01 -0.36339376395E+02  0.22665897207E+02  0.47787269628E+02  0.19999993544E+02 0.  0.
         12    1    1    2    0    0 -0.70235478063E+01  0.36339376395E+02 -0.22665897207E+02  0.43400730372E+02  0.00000000000E+00 0. -1.
         11    1    3    3    0    0  0.42465291273E+01 -0.48579626822E+00  0.25625657317E+00  0.42819009021E+01  0.51100000000E-03 0. -1.
        -11    1    3    3    0    0 -0.34953136598E+01 -0.16691616500E+02  0.11634469183E+02  0.20644324944E+02  0.51100000000E-03 0.  1.
         12    1    3    3    0    0  0.62723323388E+01 -0.19161963627E+02  0.10775171451E+02  0.22861043782E+02  0.00000000000E+00 0. -1.
</event>
<event>
 7    1  0.2751796E-010  0.4778727E+02  0.7816164E-02  0.1312668E+00
        -11   -1    0    0    0    0  0.00000000000E+00  0.00000000000E+00  0.45593999997E+02  0.45594000000E+02  0.51100000000E-03 0. -1.
         11   -1    0    0    0    0 -0.00000000000E+00 -0.00000000000E+00 -0.45593999997E+02  0.45594000000E+02  0.51100000000E-03 0.  1.
    9900012    2    1    2    0    0  0.29183573580E+02 -0.16380959357E+02 -0.27633424852E+02  0.47787274598E+02  0.20000016204E+02 0.  0.
         12    1    1    2    0    0 -0.29183573580E+02  0.16380959357E+02  0.27633424852E+02  0.43400725402E+02  0.00000000000E+00 0. -1.
         11    1    3    3    0    0  0.50474984686E+01  0.27587208087E+01  0.79049152308E+00  0.58062602766E+01  0.51100000000E-03 0. -1.
        -11    1    3    3    0    0  0.14438209947E+02 -0.10718023102E+02 -0.17952413968E+02  0.25409193084E+02  0.51100000000E-03 0.  1.
         12    1    3    3    0    0  0.96978651646E+01 -0.84216570637E+01 -0.10471502407E+02  0.16571821237E+02  0.00000000000E+00 0. -1.
</event>
<event>
 7    1  0.2751796E-010  0.4778727E+02  0.7816164E-02  0.1312668E+00
        -11   -1    0    0    0    0  0.00000000000E+00  0.00000000000E+00  0.45593999997E+02  0.45594000000E+02  0.51100000000E-03 0.  1.
         11   -1    0    0    0    0 -0.00000000000E+00 -0.00000000000E+00 -0.45593999997E+02  0.45594000000E+02  0.51100000000E-03 0. -1.
    9900012    2    1    2    0    0 -0.37588145161E+02 -0.50122426089E+01  0.21110001447E+02  0.47787269664E+02  0.19999993707E+02 0.  0.
         12    1    1    2    0    0  0.37588145161E+02  0.50122426089E+01 -0.21110001447E+02  0.43400730336E+02  0.00000000000E+00 0. -1.
         11    1    3    3    0    0 -0.98497687656E+01 -0.13075180908E+01 -0.26565343008E+01  0.10285170054E+02  0.51100000000E-03 0. -1.
        -11    1    3    3    0    0 -0.17852350671E+02 -0.28628224410E-01  0.11111239549E+02  0.21027764708E+02  0.51100000000E-03 0.  1.
         12    1    3    3    0    0 -0.98860257245E+01 -0.36760962937E+01  0.12655296199E+02  0.16474334902E+02  0.00000000000E+00 0. -1.
</event>
<event>
 7    1  0.2751796E-010  0.4778727E+02  0.7816164E-02  0.1312668E+00
        -11   -1    0    0    0    0  0.00000000000E+00  0.00000000000E+00  0.45593999997E+02  0.45594000000E+02  0.51100000000E-03 0.  1.
         11   -1    0    0    0    0 -0.00000000000E+00 -0.00000000000E+00 -0.45593999997E+02  0.45594000000E+02  0.51100000000E-03 0. -1.
    9900012    2    1    2    0    0  0.27360100433E+02 -0.87963370743E+01  0.32521884785E+02  0.47787266923E+02  0.19999981209E+02 0.  0.
         12    1    1    2    0    0 -0.27360100433E+02  0.87963370743E+01 -0.32521884785E+02  0.43400733077E+02  0.00000000000E+00 0. -1.
         11    1    3    3    0    0  0.13020889197E+02 -0.97843039884E+01  0.10364587911E+02  0.19305461477E+02  0.51100000000E-03 0. -1.
        -11    1    3    3    0    0  0.67048616017E+01  0.57423924332E+01  0.12273829174E+02  0.15118767238E+02  0.51100000000E-03 0.  1.
        -12    1    3    3    0    0  0.76343496349E+01 -0.47544255191E+01  0.98834677004E+01  0.13363038208E+02  0.00000000000E+00 0.  1.
</event>
<event>
 7    1  0.2751796E-010  0.4778726E+02  0.7816164E-02  0.1312668E+00
        -11   -1    0    0    0    0  0.00000000000E+00  0.00000000000E+00  0.45593999997E+02  0.45594000000E+02  0.51100000000E-03 0.  1.
         11   -1    0    0    0    0 -0.00000000000E+00 -0.00000000000E+00 -0.45593999997E+02  0.45594000000E+02  0.51100000000E-03 0. -1.
    9900012    2    1    2    0    0  0.19212240786E+01 -0.37105776779E+02  0.22429758823E+02  0.47787264370E+02  0.19999969570E+02 0.  0.
         12    1    1    2    0    0 -0.19212240786E+01  0.37105776779E+02 -0.22429758823E+02  0.43400735630E+02  0.00000000000E+00 0. -1.
         11    1    3    3    0    0 -0.69077902363E+00 -0.27333007547E+02  0.16085056361E+02  0.31722224316E+02  0.51100000000E-03 0. -1.
        -11    1    3    3    0    0  0.98742656837E+00 -0.11899972938E+02  0.60086001645E+01  0.13367409747E+02  0.51100000000E-03 0.  1.
         12    1    3    3    0    0  0.16245765339E+01  0.21272037051E+01  0.33610229753E+00  0.26976303068E+01  0.00000000000E+00 0. -1.
</event>
<event>
 7    1  0.2751796E-010  0.4778728E+02  0.7816164E-02  0.1312668E+00
        -11   -1    0    0    0    0  0.00000000000E+00  0.00000000000E+00  0.45593999997E+02  0.45594000000E+02  0.51100000000E-03 0. -1.
         11   -1    0    0    0    0 -0.00000000000E+00 -0.00000000000E+00 -0.45593999997E+02  0.45594000000E+02  0.51100000000E-03 0.  1.
    9900012    2    1    2    0    0  0.87850434218E+01  0.13124451740E+02 -0.40425166506E+02  0.47787282167E+02  0.20000050712E+02 0.  0.
         12    1    1    2    0    0 -0.87850434218E+01 -0.13124451740E+02  0.40425166506E+02  0.43400717833E+02  0.00000000000E+00 0. -1.
         11    1    3    3    0    0  0.83425030014E+01  0.67282754796E+01 -0.20074684741E+02  0.22756537851E+02  0.51100000000E-03 0. -1.
        -11    1    3    3    0    0 -0.20182196443E+01  0.82044986825E+01 -0.60095927445E+01  0.10368327463E+02  0.51100000000E-03 0.  1.
         12    1    3    3    0    0  0.24607600647E+01 -0.18083224220E+01 -0.14340889021E+02  0.14662416853E+02  0.00000000000E+00 0. -1.
</event>
<event>
 7    1  0.2751796E-010  0.4778727E+02  0.7816164E-02  0.1312668E+00
        -11   -1    0    0    0    0  0.00000000000E+00  0.00000000000E+00  0.45593999997E+02  0.45594000000E+02  0.51100000000E-03 0.  1.
         11   -1    0    0    0    0 -0.00000000000E+00 -0.00000000000E+00 -0.45593999997E+02  0.45594000000E+02  0.51100000000E-03 0. -1.
    9900012    2    1    2    0    0 -0.33481602221E+02 -0.25856778453E+02  0.96970539458E+01  0.47787268042E+02  0.19999986310E+02 0.  0.
         12    1    1    2    0    0  0.33481602221E+02  0.25856778453E+02 -0.96970539458E+01  0.43400731958E+02  0.00000000000E+00 0. -1.
         11    1    3    3    0    0 -0.31931635850E+02 -0.20572458547E+02  0.58587488263E+01  0.38434104085E+02  0.51100000000E-03 0. -1.
        -11    1    3    3    0    0 -0.39783051895E+01 -0.20806242983E+01  0.23422385615E+01  0.50637921947E+01  0.51100000000E-03 0.  1.
         12    1    3    3    0    0  0.24283388188E+01 -0.32036956081E+01  0.14960665580E+01  0.42893717622E+01  0.00000000000E+00 0. -1.
</event>
<event>
 7    1  0.2751796E-010  0.4778727E+02  0.7816164E-02  0.1312668E+00
        -11   -1    0    0    0    0  0.00000000000E+00  0.00000000000E+00  0.45593999997E+02  0.45594000000E+02  0.51100000000E-03 0.  1.
         11   -1    0    0    0    0 -0.00000000000E+00 -0.00000000000E+00 -0.45593999997E+02  0.45594000000E+02  0.51100000000E-03 0. -1.
    9900012    2    1    2    0    0 -0.88825953820E+01  0.32842031546E+02  0.26946678792E+02  0.47787273800E+02  0.20000012563E+02 0.  0.
         12    1    1    2    0    0  0.88825953820E+01 -0.32842031546E+02 -0.26946678792E+02  0.43400726200E+02  0.00000000000E+00 0. -1.
         11    1    3    3    0    0 -0.70780965367E+00  0.70027198632E+00  0.62533313949E+01  0.63321030595E+01  0.51100000000E-03 0. -1.
        -11    1    3    3    0    0 -0.30381114006E+00  0.24678139027E+02  0.11462172008E+02  0.27211839968E+02  0.51100000000E-03 0.  1.
        -12    1    3    3    0    0 -0.78709745883E+01  0.74636205329E+01  0.92311753890E+01  0.14243330772E+02  0.00000000000E+00 0.  1.
</event>
<event>
 7    1  0.2751796E-010  0.4778725E+02  0.7816164E-02  0.1312668E+00
        -11   -1    0    0    0    0  0.00000000000E+00  0.00000000000E+00  0.45593999997E+02  0.45594000000E+02  0.51100000000E-03 0.  1.
         11   -1    0    0    0    0 -0.00000000000E+00 -0.00000000000E+00 -0.45593999997E+02  0.45594000000E+02  0.51100000000E-03 0. -1.
    9900012    2    1    2    0    0 -0.14984732075E+02  0.31953499119E+02  0.25259785137E+02  0.47787250623E+02  0.19999906892E+02 0.  0.
         12    1    1    2    0    0  0.14984732075E+02 -0.31953499119E+02 -0.25259785137E+02  0.43400749377E+02  0.00000000000E+00 0. -1.
         11    1    3    3    0    0 -0.12046058078E+02  0.99128394132E+01  0.10271348739E+02  0.18678129072E+02  0.51100000000E-03 0. -1.
        -11    1    3    3    0    0  0.14348418324E+01  0.19388927470E+02  0.96110263123E+01  0.21687810091E+02  0.51100000000E-03 0.  1.
        -12    1    3    3    0    0 -0.43735158303E+01  0.26517322352E+01  0.53774100852E+01  0.74213114602E+01  0.00000000000E+00 0.  1.
</event>
<event>
 7    1  0.2751796E-010  0.4778727E+02  0.7816164E-02  0.1312668E+00
        -11   -1    0    0    0    0  0.00000000000E+00  0.00000000000E+00  0.45593999997E+02  0.45594000000E+02  0.51100000000E-03 0.  1.
         11   -1    0    0    0    0 -0.00000000000E+00 -0.00000000000E+00 -0.45593999997E+02  0.45594000000E+02  0.51100000000E-03 0. -1.
    9900012    2    1    2    0    0 -0.25286085141E+02 -0.37681961158E+01  0.35071895275E+02  0.47787271413E+02  0.20000001680E+02 0.  0.
         12    1    1    2    0    0  0.25286085141E+02  0.37681961158E+01 -0.35071895275E+02  0.43400728587E+02  0.00000000000E+00 0. -1.
         11    1    3    3    0    0 -0.22592746072E+01 -0.55903440646E+01  0.46103109080E+00  0.60472157593E+01  0.51100000000E-03 0. -1.
        -11    1    3    3    0    0 -0.19508923813E+02  0.43049442137E+00  0.28126600658E+02  0.34232865768E+02  0.51100000000E-03 0.  1.
         12    1    3    3    0    0 -0.35178867202E+01  0.13916535275E+01  0.64842635256E+01  0.75071898861E+01  0.00000000000E+00 0. -1.
</event>
<event>
 7    1  0.2751796E-010  0.4778726E+02  0.7816164E-02  0.1312668E+00
        -11   -1    0    0    0    0  0.00000000000E+00  0.00000000000E+00  0.45593999997E+02  0.45594000000E+02  0.51100000000E-03 0.  1.
         11   -1    0    0    0    0 -0.00000000000E+00 -0.00000000000E+00 -0.45593999997E+02  0.45594000000E+02  0.51100000000E-03 0. -1.
    9900012    2    1    2    0    0  0.29414960622E+02 -0.20266151739E+02  0.24650903594E+02  0.47787264261E+02  0.19999969072E+02 0.  0.
         12    1    1    2    0    0 -0.29414960622E+02  0.20266151739E+02 -0.24650903594E+02  0.43400735739E+02  0.00000000000E+00 0. -1.
         11    1    3    3    0    0  0.65479987902E+01 -0.44654245588E+01 -0.67504011551E+00  0.79543688666E+01  0.51100000000E-03 0. -1.
        -11    1    3    3    0    0  0.18644059336E+02 -0.11029910948E+02  0.25500165220E+02  0.33459203675E+02  0.51100000000E-03 0.  1.
        -12    1    3    3    0    0  0.42229024952E+01 -0.47708162316E+01 -0.17422151055E+00  0.63736917194E+01  0.00000000000E+00 0.  1.
</event>
<event>
 7    1  0.2751796E-010  0.4778727E+02  0.7816164E-02  0.1312668E+00
        -11   -1    0    0    0    0  0.00000000000E+00  0.00000000000E+00  0.45593999997E+02  0.45594000000E+02  0.51100000000E-03 0.  1.
         11   -1    0    0    0    0 -0.00000000000E+00 -0.00000000000E+00 -0.45593999997E+02  0.45594000000E+02  0.51100000000E-03 0. -1.
    9900012    2    1    2    0    0  0.28939555604E+02 -0.19768060443E+02  0.25599782318E+02  0.47787274811E+02  0.20000017174E+02 0.  0.
         12    1    1    2    0    0 -0.28939555604E+02  0.19768060443E+02 -0.25599782318E+02  0.43400725189E+02  0.00000000000E+00 0. -1.
         11    1    3    3    0    0  0.10685085725E+01  0.78667844884E+00  0.94087396141E+00  0.16265969457E+01  0.51100000000E-03 0. -1.
        -11    1    3    3    0    0  0.26874934388E+02 -0.17784570478E+02  0.27277283080E+02  0.42220886039E+02  0.51100000000E-03 0.  1.
        -12    1    3    3    0    0  0.99611264363E+00 -0.27701684134E+01 -0.26183747241E+01  0.39397918261E+01  0.00000000000E+00 0.  1.
</event>
<event>
 7    1  0.2751796E-010  0.4778727E+02  0.7816164E-02  0.1312668E+00
        -11   -1    0    0    0    0  0.00000000000E+00  0.00000000000E+00  0.45593999997E+02  0.45594000000E+02  0.51100000000E-03 0. -1.
         11   -1    0    0    0    0 -0.00000000000E+00 -0.00000000000E+00 -0.45593999997E+02  0.45594000000E+02  0.51100000000E-03 0.  1.
    9900012    2    1    2    0    0 -0.20479831798E+02 -0.23165566919E+02 -0.30455809008E+02  0.47787270703E+02  0.19999998444E+02 0.  0.
         12    1    1    2    0    0  0.20479831798E+02  0.23165566919E+02  0.30455809008E+02  0.43400729297E+02  0.00000000000E+00 0. -1.
         11    1    3    3    0    0  0.14687407156E-01  0.30807110633E+01 -0.87102758125E+00  0.32015130304E+01  0.51100000000E-03 0. -1.
        -11    1    3    3    0    0 -0.85956430814E+01 -0.11265461697E+02 -0.13856001551E+02  0.19818791246E+02  0.51100000000E-03 0.  1.
        -12    1    3    3    0    0 -0.11898876123E+02 -0.14980816286E+02 -0.15728779876E+02  0.24766966427E+02  0.00000000000E+00 0.  1.
</event>
<event>
 7    1  0.2751796E-010  0.4778727E+02  0.7816164E-02  0.1312668E+00
        -11   -1    0    0    0    0  0.00000000000E+00  0.00000000000E+00  0.45593999997E+02  0.45594000000E+02  0.51100000000E-03 0.  1.
         11   -1    0    0    0    0 -0.00000000000E+00 -0.00000000000E+00 -0.45593999997E+02  0.45594000000E+02  0.51100000000E-03 0. -1.
    9900012    2    1    2    0    0  0.54688125684E+01  0.30340394644E+02  0.30547930288E+02  0.47787268406E+02  0.19999987969E+02 0.  0.
         12    1    1    2    0    0 -0.54688125684E+01 -0.30340394644E+02 -0.30547930288E+02  0.43400731594E+02  0.00000000000E+00 0. -1.
         11    1    3    3    0    0  0.85599801738E+01  0.79417936307E+01  0.36307903499E+01  0.12228163618E+02  0.51100000000E-03 0. -1.
        -11    1    3    3    0    0 -0.24777980890E+01  0.74887778502E+01  0.12687366170E+02  0.14939562833E+02  0.51100000000E-03 0.  1.
        -12    1    3    3    0    0 -0.61336951635E+00  0.14909823163E+02  0.14229773768E+02  0.20619541954E+02  0.00000000000E+00 0.  1.
</event>
<event>
 7    1  0.2751796E-010  0.4778730E+02  0.7816164E-02  0.1312668E+00
        -11   -1    0    0    0    0  0.00000000000E+00  0.00000000000E+00  0.45593999997E+02  0.45594000000E+02  0.51100000000E-03 0.  1.
         11   -1    0    0    0    0 -0.00000000000E+00 -0.00000000000E+00 -0.45593999997E+02  0.45594000000E+02  0.51100000000E-03 0. -1.
    9900012    2    1    2    0    0  0.34521624255E+02  0.26219529344E+02 -0.21011668270E+01  0.47787295372E+02  0.20000110918E+02 0.  0.
         12    1    1    2    0    0 -0.34521624255E+02 -0.26219529344E+02  0.21011668270E+01  0.43400704628E+02  0.00000000000E+00 0. -1.
         11    1    3    3    0    0  0.21126518527E+02  0.56433102993E+01 -0.31719010134E+01  0.22096101296E+02  0.51100000000E-03 0. -1.
        -11    1    3    3    0    0  0.95413408847E+01  0.12058464706E+02  0.40100824626E+01  0.15891020060E+02  0.51100000000E-03 0.  1.
         12    1    3    3    0    0  0.38537648436E+01  0.85177543387E+01 -0.29393482762E+01  0.98001740154E+01  0.00000000000E+00 0. -1.
</event>
<event>
 7    1  0.2751796E-010  0.4778727E+02  0.7816164E-02  0.1312668E+00
        -11   -1    0    0    0    0  0.00000000000E+00  0.00000000000E+00  0.45593999997E+02  0.45594000000E+02  0.51100000000E-03 0. -1.
         11   -1    0    0    0    0 -0.00000000000E+00 -0.00000000000E+00 -0.45593999997E+02  0.45594000000E+02  0.51100000000E-03 0.  1.
    9900012    2    1    2    0    0 -0.37095959823E+02 -0.41720113613E+01 -0.22138369776E+02  0.47787270394E+02  0.19999997033E+02 0.  0.
         12    1    1    2    0    0  0.37095959823E+02  0.41720113613E+01  0.22138369776E+02  0.43400729606E+02  0.00000000000E+00 0. -1.
         11    1    3    3    0    0 -0.19890872773E+02 -0.95019551782E+01 -0.75018479957E+01  0.23285439560E+02  0.51100000000E-03 0. -1.
        -11    1    3    3    0    0 -0.30453288542E+01 -0.20579222569E+01 -0.29082349182E+01  0.46868862207E+01  0.51100000000E-03 0.  1.
         12    1    3    3    0    0 -0.14159758196E+02  0.73878660738E+01 -0.11728286862E+02  0.19814944613E+02  0.00000000000E+00 0. -1.
</event>
<event>
 7    1  0.2751796E-010  0.4778727E+02  0.7816164E-02  0.1312668E+00
        -11   -1    0    0    0    0  0.00000000000E+00  0.00000000000E+00  0.45593999997E+02  0.45594000000E+02  0.51100000000E-03 0.  1.
         11   -1    0    0    0    0 -0.00000000000E+00 -0.00000000000E+00 -0.45593999997E+02  0.45594000000E+02  0.51100000000E-03 0. -1.
    9900012    2    1    2    0    0  0.34246476287E+02  0.13964431237E+02  0.22711155631E+02  0.47787273417E+02  0.20000010816E+02 0.  0.
         12    1    1    2    0    0 -0.34246476287E+02 -0.13964431237E+02 -0.22711155631E+02  0.43400726583E+02  0.00000000000E+00 0. -1.
         11    1    3    3    0    0  0.20078578330E+02  0.13907961431E+02  0.19132168128E+02  0.31026126998E+02  0.51100000000E-03 0.  1.
        -11    1    3    3    0    0  0.54833586561E+01  0.30947929430E+01  0.41527850041E+01  0.75425850385E+01  0.51100000000E-03 0. -1.
         12    1    3    3    0    0  0.86845393007E+01 -0.30383231372E+01 -0.57379750138E+00  0.92185613804E+01  0.00000000000E+00 0. -1.
</event>
<event>
 7    1  0.2751796E-010  0.4778729E+02  0.7816164E-02  0.1312668E+00
        -11   -1    0    0    0    0  0.00000000000E+00  0.00000000000E+00  0.45593999997E+02  0.45594000000E+02  0.51100000000E-03 0.  1.
         11   -1    0    0    0    0 -0.00000000000E+00 -0.00000000000E+00 -0.45593999997E+02  0.45594000000E+02  0.51100000000E-03 0. -1.
    9900012    2    1    2    0    0  0.38860653366E+02 -0.13769997900E+02  0.13559444202E+02  0.47787288608E+02  0.20000080081E+02 0.  0.
         12    1    1    2    0    0 -0.38860653366E+02  0.13769997900E+02 -0.13559444202E+02  0.43400711392E+02  0.00000000000E+00 0. -1.
         11    1    3    3    0    0  0.29922281088E+02 -0.50935305123E+01  0.40530280823E+01  0.30622116117E+02  0.51100000000E-03 0.  1.
        -11    1    3    3    0    0  0.77604386414E+01 -0.95087251142E+01  0.66357174065E+01  0.13952526903E+02  0.51100000000E-03 0. -1.
         12    1    3    3    0    0  0.11779336365E+01  0.83225772615E+00  0.28706987132E+01  0.32126455884E+01  0.00000000000E+00 0. -1.
</event>
<event>
 7    1  0.2751796E-010  0.4778727E+02  0.7816164E-02  0.1312668E+00
        -11   -1    0    0    0    0  0.00000000000E+00  0.00000000000E+00  0.45593999997E+02  0.45594000000E+02  0.51100000000E-03 0.  1.
         11   -1    0    0    0    0 -0.00000000000E+00 -0.00000000000E+00 -0.45593999997E+02  0.45594000000E+02  0.51100000000E-03 0. -1.
    9900012    2    1    2    0    0 -0.81590598051E+01 -0.38923646886E+02 -0.17378221680E+02  0.47787272672E+02  0.20000007420E+02 0.  0.
         12    1    1    2    0    0  0.81590598051E+01  0.38923646886E+02  0.17378221680E+02  0.43400727328E+02  0.00000000000E+00 0. -1.
         11    1    3    3    0    0 -0.35096698187E+01 -0.53823441923E+01  0.25039097363E+01  0.68961565723E+01  0.51100000000E-03 0. -1.
        -11    1    3    3    0    0  0.13328204889E+01 -0.23415552468E+02 -0.16424092835E+02  0.28632417529E+02  0.51100000000E-03 0.  1.
        -12    1    3    3    0    0 -0.59822104752E+01 -0.10125750226E+02 -0.34580385809E+01  0.12258698570E+02  0.00000000000E+00 0.  1.
</event>
<event>
 7    1  0.2751796E-010  0.4778727E+02  0.7816164E-02  0.1312668E+00
        -11   -1    0    0    0    0  0.00000000000E+00  0.00000000000E+00  0.45593999997E+02  0.45594000000E+02  0.51100000000E-03 0.  1.
         11   -1    0    0    0    0 -0.00000000000E+00 -0.00000000000E+00 -0.45593999997E+02  0.45594000000E+02  0.51100000000E-03 0. -1.
    9900012    2    1    2    0    0  0.24790575392E+02  0.35400536484E+02 -0.39815747111E+01  0.47787267877E+02  0.19999985558E+02 0.  0.
         12    1    1    2    0    0 -0.24790575392E+02 -0.35400536484E+02  0.39815747111E+01  0.43400732123E+02  0.00000000000E+00 0. -1.
         11    1    3    3    0    0  0.70505401482E+01  0.18580883159E+02  0.68774896735E-01  0.19873702866E+02  0.51100000000E-03 0. -1.
        -11    1    3    3    0    0 -0.32794310394E+00 -0.13451980422E+01 -0.16896053540E+01  0.21844612530E+01  0.51100000000E-03 0.  1.
        -12    1    3    3    0    0  0.18067978348E+02  0.18164851367E+02 -0.23607442538E+01  0.25729103758E+02  0.00000000000E+00 0.  1.
</event>
<event>
 7    1  0.2751796E-010  0.4778727E+02  0.7816164E-02  0.1312668E+00
        -11   -1    0    0    0    0  0.00000000000E+00  0.00000000000E+00  0.45593999997E+02  0.45594000000E+02  0.51100000000E-03 0.  1.
         11   -1    0    0    0    0 -0.00000000000E+00 -0.00000000000E+00 -0.45593999997E+02  0.45594000000E+02  0.51100000000E-03 0. -1.
    9900012    2    1    2    0    0  0.79436311316E+01 -0.31441182211E+02  0.28843960477E+02  0.47787271084E+02  0.20000000182E+02 0.  0.
         12    1    1    2    0    0 -0.79436311316E+01  0.31441182211E+02 -0.28843960477E+02  0.43400728916E+02  0.00000000000E+00 0. -1.
         11    1    3    3    0    0  0.35796393229E+01  0.46773068980E+00  0.76013163552E+01  0.84150222978E+01  0.51100000000E-03 0. -1.
        -11    1    3    3    0    0  0.34357623933E+01 -0.44057425942E+01  0.43653364645E+01  0.70902181729E+01  0.51100000000E-03 0.  1.
         12    1    3    3    0    0  0.92822941537E+00 -0.27503170307E+02  0.16877307657E+02  0.32282030614E+02  0.00000000000E+00 0. -1.
</event>
<event>
 7    1  0.2751796E-010  0.4778728E+02  0.7816164E-02  0.1312668E+00
        -11   -1    0    0    0    0  0.00000000000E+00  0.00000000000E+00  0.45593999997E+02  0.45594000000E+02  0.51100000000E-03 0.  1.
         11   -1    0    0    0    0 -0.00000000000E+00 -0.00000000000E+00 -0.45593999997E+02  0.45594000000E+02  0.51100000000E-03 0. -1.
    9900012    2    1    2    0    0 -0.22753437838E+02 -0.18317679049E+02  0.32099317573E+02  0.47787280100E+02  0.20000041288E+02 0.  0.
         12    1    1    2    0    0  0.22753437838E+02  0.18317679049E+02 -0.32099317573E+02  0.43400719900E+02  0.00000000000E+00 0. -1.
         11    1    3    3    0    0 -0.70355662267E+01 -0.14282668696E+02  0.83257208108E+01  0.17966954235E+02  0.51100000000E-03 0.  1.
        -11    1    3    3    0    0 -0.64840105562E+01  0.19362250034E+01  0.11482885392E+02  0.13328466429E+02  0.51100000000E-03 0. -1.
        -12    1    3    3    0    0 -0.92338610551E+01 -0.59712353559E+01  0.12290711371E+02  0.16491859436E+02  0.00000000000E+00 0.  1.
</event>
<event>
 7    1  0.2751796E-010  0.4778727E+02  0.7816164E-02  0.1312668E+00
        -11   -1    0    0    0    0  0.00000000000E+00  0.00000000000E+00  0.45593999997E+02  0.45594000000E+02  0.51100000000E-03 0.  1.
         11   -1    0    0    0    0 -0.00000000000E+00 -0.00000000000E+00 -0.45593999997E+02  0.45594000000E+02  0.51100000000E-03 0. -1.
    9900012    2    1    2    0    0 -0.28557430512E+02 -0.29269060656E+02  0.14540253674E+02  0.47787265835E+02  0.19999976249E+02 0.  0.
         12    1    1    2    0    0  0.28557430512E+02  0.29269060656E+02 -0.14540253674E+02  0.43400734165E+02  0.00000000000E+00 0. -1.
         11    1    3    3    0    0 -0.41679576636E+01 -0.40397948211E+01  0.81455815081E+01  0.10002115359E+02  0.51100000000E-03 0. -1.
        -11    1    3    3    0    0 -0.13759619359E+02 -0.10837752755E+02 -0.26877316767E+01  0.17720268381E+02  0.51100000000E-03 0.  1.
         12    1    3    3    0    0 -0.10629853489E+02 -0.14391513080E+02  0.90824038425E+01  0.20064882095E+02  0.00000000000E+00 0. -1.
</event>
<event>
 7    1  0.2751796E-010  0.4778731E+02  0.7816164E-02  0.1312668E+00
        -11   -1    0    0    0    0  0.00000000000E+00  0.00000000000E+00  0.45593999997E+02  0.45594000000E+02  0.51100000000E-03 0.  1.
         11   -1    0    0    0    0 -0.00000000000E+00 -0.00000000000E+00 -0.45593999997E+02  0.45594000000E+02  0.51100000000E-03 0. -1.
    9900012    2    1    2    0    0  0.11360659109E+02  0.11193283015E+02  0.40364167970E+02  0.47787306273E+02  0.20000160621E+02 0.  0.
         12    1    1    2    0    0 -0.11360659109E+02 -0.11193283015E+02 -0.40364167970E+02  0.43400693727E+02  0.00000000000E+00 0. -1.
         11    1    3    3    0    0 -0.17512529885E+01  0.78902145454E+01  0.21160747608E+02  0.22651702192E+02  0.51100000000E-03 0. -1.
        -11    1    3    3    0    0  0.11042271066E+02  0.56158952916E+01  0.17901357924E+02  0.21769902297E+02  0.51100000000E-03 0.  1.
         12    1    3    3    0    0  0.20696410320E+01 -0.23128268223E+01  0.13020624381E+01  0.33657017848E+01  0.00000000000E+00 0. -1.
</event>
<event>
 7    1  0.2751796E-010  0.4778727E+02  0.7816164E-02  0.1312668E+00
        -11   -1    0    0    0    0  0.00000000000E+00  0.00000000000E+00  0.45593999997E+02  0.45594000000E+02  0.51100000000E-03 0.  1.
         11   -1    0    0    0    0 -0.00000000000E+00 -0.00000000000E+00 -0.45593999997E+02  0.45594000000E+02  0.51100000000E-03 0. -1.
    9900012    2    1    2    0    0 -0.31733806372E+02 -0.42191265974E+01  0.29305079644E+02  0.47787272022E+02  0.20000004457E+02 0.  0.
         12    1    1    2    0    0  0.31733806372E+02  0.42191265974E+01 -0.29305079644E+02  0.43400727978E+02  0.00000000000E+00 0. -1.
         11    1    3    3    0    0 -0.79128372446E+01  0.56373838730E+01  0.60104712689E+01  0.11424484904E+02  0.51100000000E-03 0. -1.
        -11    1    3    3    0    0 -0.17040343305E+02 -0.61090460367E+01  0.92633254571E+01  0.20334771753E+02  0.51100000000E-03 0.  1.
         12    1    3    3    0    0 -0.67806258216E+01 -0.37474644338E+01  0.14031282918E+02  0.16028015365E+02  0.00000000000E+00 0. -1.
</event>
<event>
 7    1  0.2751796E-010  0.4778725E+02  0.7816164E-02  0.1312668E+00
        -11   -1    0    0    0    0  0.00000000000E+00  0.00000000000E+00  0.45593999997E+02  0.45594000000E+02  0.51100000000E-03 0. -1.
         11   -1    0    0    0    0 -0.00000000000E+00 -0.00000000000E+00 -0.45593999997E+02  0.45594000000E+02  0.51100000000E-03 0.  1.
    9900012    2    1    2    0    0 -0.15470657816E+02 -0.21164355463E+02 -0.34588354152E+02  0.47787246108E+02  0.19999886306E+02 0.  0.
         12    1    1    2    0    0  0.15470657816E+02  0.21164355463E+02  0.34588354152E+02  0.43400753892E+02  0.00000000000E+00 0. -1.
         11    1    3    3    0    0 -0.26137920526E+01  0.15422104330E-01  0.48009730738E+00  0.26575628725E+01  0.51100000000E-03 0. -1.
        -11    1    3    3    0    0 -0.94284562052E+01 -0.73621875648E+01 -0.24931848491E+02  0.27653113054E+02  0.51100000000E-03 0.  1.
        -12    1    3    3    0    0 -0.34284095581E+01 -0.13817590002E+02 -0.10136602969E+02  0.17476570182E+02  0.00000000000E+00 0.  1.
</event>
<event>
 7    1  0.2751796E-010  0.4778727E+02  0.7816164E-02  0.1312668E+00
        -11   -1    0    0    0    0  0.00000000000E+00  0.00000000000E+00  0.45593999997E+02  0.45594000000E+02  0.51100000000E-03 0. -1.
         11   -1    0    0    0    0 -0.00000000000E+00 -0.00000000000E+00 -0.45593999997E+02  0.45594000000E+02  0.51100000000E-03 0.  1.
    9900012    2    1    2    0    0 -0.17160055935E+02  0.39862304214E+02  0.39087879548E+00  0.47787267250E+02  0.19999982700E+02 0.  0.
         12    1    1    2    0    0  0.17160055935E+02 -0.39862304214E+02 -0.39087879548E+00  0.43400732750E+02  0.00000000000E+00 0. -1.
         11    1    3    3    0    0 -0.31377409742E+01  0.16303299885E+02 -0.78517156344E+01  0.18365523249E+02  0.51100000000E-03 0. -1.
        -11    1    3    3    0    0 -0.13158888170E+02  0.19155935369E+02  0.47137803840E+01  0.23713412312E+02  0.51100000000E-03 0.  1.
         12    1    3    3    0    0 -0.86342679146E+00  0.44030689606E+01  0.35288140459E+01  0.57083316886E+01  0.00000000000E+00 0. -1.
</event>
<event>
 7    1  0.2751796E-010  0.4778728E+02  0.7816164E-02  0.1312668E+00
        -11   -1    0    0    0    0  0.00000000000E+00  0.00000000000E+00  0.45593999997E+02  0.45594000000E+02  0.51100000000E-03 0.  1.
         11   -1    0    0    0    0 -0.00000000000E+00 -0.00000000000E+00 -0.45593999997E+02  0.45594000000E+02  0.51100000000E-03 0. -1.
    9900012    2    1    2    0    0  0.19344535068E+01  0.77640023062E+01  0.42656781755E+02  0.47787275676E+02  0.20000021115E+02 0.  0.
         12    1    1    2    0    0 -0.19344535068E+01 -0.77640023062E+01 -0.42656781755E+02  0.43400724324E+02  0.00000000000E+00 0. -1.
         11    1    3    3    0    0  0.13467038151E+01  0.33164705046E+01  0.41749507633E+01  0.54993455893E+01  0.51100000000E-03 0. -1.
        -11    1    3    3    0    0 -0.62903202431E+01  0.76848653513E+01  0.21947307650E+02  0.24089615970E+02  0.51100000000E-03 0.  1.
        -12    1    3    3    0    0  0.68780699348E+01 -0.32373335497E+01  0.16534523342E+02  0.18198314117E+02  0.00000000000E+00 0.  1.
</event>
<event>
 7    1  0.2751796E-010  0.4778727E+02  0.7816164E-02  0.1312668E+00
        -11   -1    0    0    0    0  0.00000000000E+00  0.00000000000E+00  0.45593999997E+02  0.45594000000E+02  0.51100000000E-03 0. -1.
         11   -1    0    0    0    0 -0.00000000000E+00 -0.00000000000E+00 -0.45593999997E+02  0.45594000000E+02  0.51100000000E-03 0.  1.
    9900012    2    1    2    0    0 -0.14687751756E+02  0.40143099256E+02 -0.75116483088E+01  0.47787270399E+02  0.19999997059E+02 0.  0.
         12    1    1    2    0    0  0.14687751756E+02 -0.40143099256E+02  0.75116483088E+01  0.43400729601E+02  0.00000000000E+00 0. -1.
         11    1    3    3    0    0 -0.17621472101E+01  0.19951760820E+02 -0.18139777137E+01  0.20111400698E+02  0.51100000000E-03 0. -1.
        -11    1    3    3    0    0 -0.14524037411E+02  0.20195708130E+02 -0.37512526765E+01  0.25157229308E+02  0.51100000000E-03 0.  1.
         12    1    3    3    0    0  0.15984328651E+01 -0.43696931218E-02 -0.19464179186E+01  0.25186403936E+01  0.00000000000E+00 0. -1.
</event>
<event>
 7    1  0.2751796E-010  0.4778727E+02  0.7816164E-02  0.1312668E+00
        -11   -1    0    0    0    0  0.00000000000E+00  0.00000000000E+00  0.45593999997E+02  0.45594000000E+02  0.51100000000E-03 0. -1.
         11   -1    0    0    0    0 -0.00000000000E+00 -0.00000000000E+00 -0.45593999997E+02  0.45594000000E+02  0.51100000000E-03 0.  1.
    9900012    2    1    2    0    0 -0.24720783338E+02 -0.23400261114E+02 -0.26924596849E+02  0.47787271152E+02  0.20000000491E+02 0.  0.
         12    1    1    2    0    0  0.24720783338E+02  0.23400261114E+02  0.26924596849E+02  0.43400728848E+02  0.00000000000E+00 0. -1.
         11    1    3    3    0    0 -0.45560948251E+00 -0.11104337719E+00  0.25574469350E+01  0.26000857137E+01  0.51100000000E-03 0. -1.
        -11    1    3    3    0    0 -0.14938818784E+02 -0.16080325123E+02 -0.15346676233E+02  0.26781815368E+02  0.51100000000E-03 0.  1.
         12    1    3    3    0    0 -0.93263550711E+01 -0.72088926136E+01 -0.14135367551E+02  0.18405370071E+02  0.00000000000E+00 0. -1.
</event>
<event>
 7    1  0.2751796E-010  0.4778728E+02  0.7816164E-02  0.1312668E+00
        -11   -1    0    0    0    0  0.00000000000E+00  0.00000000000E+00  0.45593999997E+02  0.45594000000E+02  0.51100000000E-03 0. -1.
         11   -1    0    0    0    0 -0.00000000000E+00 -0.00000000000E+00 -0.45593999997E+02  0.45594000000E+02  0.51100000000E-03 0.  1.
    9900012    2    1    2    0    0  0.10651303040E+02 -0.22539325093E+02 -0.35526763651E+02  0.47787281485E+02  0.20000047601E+02 0.  0.
         12    1    1    2    0    0 -0.10651303040E+02  0.22539325093E+02  0.35526763651E+02  0.43400718515E+02  0.00000000000E+00 0. -1.
         11    1    3    3    0    0  0.35608255318E+01  0.11452397158E+01 -0.56735460732E+01  0.67955998837E+01  0.51100000000E-03 0. -1.
        -11    1    3    3    0    0  0.20960667698E+01 -0.18255343561E+02 -0.27818010695E+02  0.33339057931E+02  0.51100000000E-03 0.  1.
        -12    1    3    3    0    0  0.49944107383E+01 -0.54292212478E+01 -0.20352068835E+01  0.76526236702E+01  0.00000000000E+00 0.  1.
</event>
<event>
 7    1  0.2751796E-010  0.4778727E+02  0.7816164E-02  0.1312668E+00
        -11   -1    0    0    0    0  0.00000000000E+00  0.00000000000E+00  0.45593999997E+02  0.45594000000E+02  0.51100000000E-03 0.  1.
         11   -1    0    0    0    0 -0.00000000000E+00 -0.00000000000E+00 -0.45593999997E+02  0.45594000000E+02  0.51100000000E-03 0. -1.
    9900012    2    1    2    0    0  0.35032817991E+02 -0.23894882199E+02  0.92390250500E+01  0.47787270564E+02  0.19999997809E+02 0.  0.
         12    1    1    2    0    0 -0.35032817991E+02  0.23894882199E+02 -0.92390250500E+01  0.43400729436E+02  0.00000000000E+00 0. -1.
         11    1    3    3    0    0  0.22581707075E+01 -0.96281975835E+00 -0.12026051279E+01  0.27336086381E+01  0.51100000000E-03 0.  1.
        -11    1    3    3    0    0  0.95865249264E+01  0.19752204223E+01  0.19578773770E+01  0.99817954280E+01  0.51100000000E-03 0. -1.
        -12    1    3    3    0    0  0.23188122357E+02 -0.24907282863E+02  0.84837528009E+01  0.35071866498E+02  0.00000000000E+00 0.  1.
</event>
<event>
 7    1  0.2751796E-010  0.4778727E+02  0.7816164E-02  0.1312668E+00
        -11   -1    0    0    0    0  0.00000000000E+00  0.00000000000E+00  0.45593999997E+02  0.45594000000E+02  0.51100000000E-03 0.  1.
         11   -1    0    0    0    0 -0.00000000000E+00 -0.00000000000E+00 -0.45593999997E+02  0.45594000000E+02  0.51100000000E-03 0. -1.
    9900012    2    1    2    0    0  0.31946844152E+02  0.11116119722E+02  0.27192905687E+02  0.47787273178E+02  0.20000009726E+02 0.  0.
         12    1    1    2    0    0 -0.31946844152E+02 -0.11116119722E+02 -0.27192905687E+02  0.43400726822E+02  0.00000000000E+00 0. -1.
         11    1    3    3    0    0  0.17211396145E+02 -0.17620994347E+01  0.54556289067E+01  0.18141142155E+02  0.51100000000E-03 0. -1.
        -11    1    3    3    0    0  0.13650476570E+02  0.10253913719E+02  0.20085013969E+02  0.26360691257E+02  0.51100000000E-03 0.  1.
         12    1    3    3    0    0  0.10849714374E+01  0.26243054379E+01  0.16522628113E+01  0.32854397650E+01  0.00000000000E+00 0. -1.
</event>
<event>
 7    1  0.2751796E-010  0.4778727E+02  0.7816164E-02  0.1312668E+00
        -11   -1    0    0    0    0  0.00000000000E+00  0.00000000000E+00  0.45593999997E+02  0.45594000000E+02  0.51100000000E-03 0. -1.
         11   -1    0    0    0    0 -0.00000000000E+00 -0.00000000000E+00 -0.45593999997E+02  0.45594000000E+02  0.51100000000E-03 0.  1.
    9900012    2    1    2    0    0  0.10801617867E+02  0.53523921963E+01 -0.41692925897E+02  0.47787272810E+02  0.20000008049E+02 0.  0.
         12    1    1    2    0    0 -0.10801617867E+02 -0.53523921963E+01  0.41692925897E+02  0.43400727190E+02  0.00000000000E+00 0. -1.
         11    1    3    3    0    0  0.35866358014E+01 -0.86977668421E+00  0.44709204129E+00  0.37175743983E+01  0.51100000000E-03 0. -1.
        -11    1    3    3    0    0  0.28763986394E+01  0.58781346195E+01 -0.35713567895E+02  0.36308195600E+02  0.51100000000E-03 0.  1.
        -12    1    3    3    0    0  0.43385834263E+01  0.34403426098E+00 -0.64264500439E+01  0.77615028111E+01  0.00000000000E+00 0.  1.
</event>
<event>
 7    1  0.2751796E-010  0.4778727E+02  0.7816164E-02  0.1312668E+00
        -11   -1    0    0    0    0  0.00000000000E+00  0.00000000000E+00  0.45593999997E+02  0.45594000000E+02  0.51100000000E-03 0. -1.
         11   -1    0    0    0    0 -0.00000000000E+00 -0.00000000000E+00 -0.45593999997E+02  0.45594000000E+02  0.51100000000E-03 0.  1.
    9900012    2    1    2    0    0 -0.17418742171E+01 -0.37921767498E+02 -0.21036364682E+02  0.47787271723E+02  0.20000003095E+02 0.  0.
         12    1    1    2    0    0  0.17418742171E+01  0.37921767498E+02  0.21036364682E+02  0.43400728277E+02  0.00000000000E+00 0. -1.
         11    1    3    3    0    0  0.36576681096E+00 -0.88993715575E+00  0.19229792262E+01  0.21502611160E+01  0.51100000000E-03 0. -1.
        -11    1    3    3    0    0 -0.52620175890E+01 -0.28679184701E+02 -0.12075371717E+02  0.31559452888E+02  0.51100000000E-03 0.  1.
        -12    1    3    3    0    0  0.31543765610E+01 -0.83526456407E+01 -0.10883972191E+02  0.14077557719E+02  0.00000000000E+00 0.  1.
</event>
<event>
 7    1  0.2751796E-010  0.4778727E+02  0.7816164E-02  0.1312668E+00
        -11   -1    0    0    0    0  0.00000000000E+00  0.00000000000E+00  0.45593999997E+02  0.45594000000E+02  0.51100000000E-03 0. -1.
         11   -1    0    0    0    0 -0.00000000000E+00 -0.00000000000E+00 -0.45593999997E+02  0.45594000000E+02  0.51100000000E-03 0.  1.
    9900012    2    1    2    0    0 -0.28042423163E+02  0.33046367615E+02 -0.22766678302E+01  0.47787272750E+02  0.20000007778E+02 0.  0.
         12    1    1    2    0    0  0.28042423163E+02 -0.33046367615E+02  0.22766678302E+01  0.43400727250E+02  0.00000000000E+00 0. -1.
         11    1    3    3    0    0 -0.13936646870E+02  0.24703267366E+02 -0.88512632512E+01  0.29712394820E+02  0.51100000000E-03 0.  1.
        -11    1    3    3    0    0 -0.14049293607E+02  0.80310788218E+01  0.57208993989E+01  0.17164194361E+02  0.51100000000E-03 0. -1.
        -12    1    3    3    0    0 -0.56482686670E-01  0.31202142700E+00  0.85369602210E+00  0.91068356906E+00  0.00000000000E+00 0.  1.
</event>
<event>
 7    1  0.2751796E-010  0.4778726E+02  0.7816164E-02  0.1312668E+00
        -11   -1    0    0    0    0  0.00000000000E+00  0.00000000000E+00  0.45593999997E+02  0.45594000000E+02  0.51100000000E-03 0.  1.
         11   -1    0    0    0    0 -0.00000000000E+00 -0.00000000000E+00 -0.45593999997E+02  0.45594000000E+02  0.51100000000E-03 0. -1.
    9900012    2    1    2    0    0 -0.14307342838E+01 -0.16417279596E+02  0.40150340985E+02  0.47787263242E+02  0.19999964425E+02 0.  0.
         12    1    1    2    0    0  0.14307342838E+01  0.16417279596E+02 -0.40150340985E+02  0.43400736758E+02  0.00000000000E+00 0. -1.
         11    1    3    3    0    0 -0.84028797010E+01 -0.65742955460E+01  0.86339146679E+01  0.13724949251E+02  0.51100000000E-03 0. -1.
        -11    1    3    3    0    0  0.52449648872E+01 -0.98469452377E+01  0.28108655328E+02  0.30241833473E+02  0.51100000000E-03 0.  1.
         12    1    3    3    0    0  0.17271805299E+01  0.39611874323E-02  0.34077709886E+01  0.38204805175E+01  0.00000000000E+00 0. -1.
</event>
<event>
 7    1  0.2751796E-010  0.4778727E+02  0.7816164E-02  0.1312668E+00
        -11   -1    0    0    0    0  0.00000000000E+00  0.00000000000E+00  0.45593999997E+02  0.45594000000E+02  0.51100000000E-03 0.  1.
         11   -1    0    0    0    0 -0.00000000000E+00 -0.00000000000E+00 -0.45593999997E+02  0.45594000000E+02  0.51100000000E-03 0. -1.
    9900012    2    1    2    0    0  0.37239268332E+01  0.30464085542E+02  0.30687056791E+02  0.47787267363E+02  0.19999983214E+02 0.  0.
         12    1    1    2    0    0 -0.37239268332E+01 -0.30464085542E+02 -0.30687056791E+02  0.43400732637E+02  0.00000000000E+00 0. -1.
         11    1    3    3    0    0 -0.63570430581E+01  0.11666267455E+02  0.10678930857E+02  0.17045625752E+02  0.51100000000E-03 0.  1.
        -11    1    3    3    0    0  0.11900647445E+02  0.15538650360E+02  0.16172041612E+02  0.25389170817E+02  0.51100000000E-03 0. -1.
         12    1    3    3    0    0 -0.18196775538E+01  0.32591677273E+01  0.38360843214E+01  0.53524707935E+01  0.00000000000E+00 0. -1.
</event>
<event>
 7    1  0.2751796E-010  0.4778728E+02  0.7816164E-02  0.1312668E+00
        -11   -1    0    0    0    0  0.00000000000E+00  0.00000000000E+00  0.45593999997E+02  0.45594000000E+02  0.51100000000E-03 0.  1.
         11   -1    0    0    0    0 -0.00000000000E+00 -0.00000000000E+00 -0.45593999997E+02  0.45594000000E+02  0.51100000000E-03 0. -1.
    9900012    2    1    2    0    0 -0.13509302110E+02  0.20341573080E+02  0.35879549650E+02  0.47787275099E+02  0.20000018485E+02 0.  0.
         12    1    1    2    0    0  0.13509302110E+02 -0.20341573080E+02 -0.35879549650E+02  0.43400724901E+02  0.00000000000E+00 0. -1.
         11    1    3    3    0    0 -0.15584536107E+02  0.21647432264E+02  0.31519103112E+02  0.41290954828E+02  0.51100000000E-03 0.  1.
        -11    1    3    3    0    0  0.16583464768E+01 -0.38687495068E+00 -0.29893389416E+00  0.17289149773E+01  0.51100000000E-03 0. -1.
        -12    1    3    3    0    0  0.41688752084E+00 -0.91898423360E+00  0.46593804316E+01  0.47674052935E+01  0.00000000000E+00 0.  1.
</event>
<event>
 7    1  0.2751796E-010  0.4778727E+02  0.7816164E-02  0.1312668E+00
        -11   -1    0    0    0    0  0.00000000000E+00  0.00000000000E+00  0.45593999997E+02  0.45594000000E+02  0.51100000000E-03 0. -1.
         11   -1    0    0    0    0 -0.00000000000E+00 -0.00000000000E+00 -0.45593999997E+02  0.45594000000E+02  0.51100000000E-03 0.  1.
    9900012    2    1    2    0    0 -0.61412639022E+01 -0.33573842175E+02  0.26808680265E+02  0.47787270302E+02  0.19999996616E+02 0.  0.
         12    1    1    2    0    0  0.61412639022E+01  0.33573842175E+02 -0.26808680265E+02  0.43400729698E+02  0.00000000000E+00 0. -1.
         11    1    3    3    0    0 -0.10094009830E+02 -0.16285770367E+02  0.89923700062E+01  0.21165492422E+02  0.51100000000E-03 0. -1.
        -11    1    3    3    0    0  0.12506129255E+01 -0.14062896410E+02  0.87061578286E+01  0.16586930775E+02  0.51100000000E-03 0.  1.
         12    1    3    3    0    0  0.27021330022E+01 -0.32251753983E+01  0.91101524307E+01  0.10034847105E+02  0.00000000000E+00 0. -1.
</event>
<event>
 7    1  0.2751796E-010  0.4778728E+02  0.7816164E-02  0.1312668E+00
        -11   -1    0    0    0    0  0.00000000000E+00  0.00000000000E+00  0.45593999997E+02  0.45594000000E+02  0.51100000000E-03 0.  1.
         11   -1    0    0    0    0 -0.00000000000E+00 -0.00000000000E+00 -0.45593999997E+02  0.45594000000E+02  0.51100000000E-03 0. -1.
    9900012    2    1    2    0    0 -0.39611536384E+02  0.43136062084E+01 -0.17202961666E+02  0.47787275313E+02  0.20000019463E+02 0.  0.
         12    1    1    2    0    0  0.39611536384E+02 -0.43136062084E+01  0.17202961666E+02  0.43400724687E+02  0.00000000000E+00 0. -1.
         11    1    3    3    0    0 -0.10850092188E+02  0.26364343202E+01 -0.16645039360E+01  0.11289192178E+02  0.51100000000E-03 0. -1.
        -11    1    3    3    0    0 -0.14112059678E+02 -0.62951063263E+01 -0.32728377160E+01  0.15795254319E+02  0.51100000000E-03 0.  1.
        -12    1    3    3    0    0 -0.14649384519E+02  0.79722782144E+01 -0.12265620014E+02  0.20702828817E+02  0.00000000000E+00 0.  1.
</event>
<event>
 7    1  0.2751796E-010  0.4778727E+02  0.7816164E-02  0.1312668E+00
        -11   -1    0    0    0    0  0.00000000000E+00  0.00000000000E+00  0.45593999997E+02  0.45594000000E+02  0.51100000000E-03 0.  1.
         11   -1    0    0    0    0 -0.00000000000E+00 -0.00000000000E+00 -0.45593999997E+02  0.45594000000E+02  0.51100000000E-03 0. -1.
    9900012    2    1    2    0    0 -0.23727841220E+02  0.10097820651E+01  0.36326200995E+02  0.47787274343E+02  0.20000015041E+02 0.  0.
         12    1    1    2    0    0  0.23727841220E+02 -0.10097820651E+01 -0.36326200995E+02  0.43400725657E+02  0.00000000000E+00 0. -1.
         11    1    3    3    0    0 -0.71349845559E+01  0.95585921636E+00  0.88201576297E+00  0.72525597909E+01  0.51100000000E-03 0. -1.
        -11    1    3    3    0    0 -0.87089577560E+01 -0.46185817921E+01  0.23468006028E+02  0.25454362104E+02  0.51100000000E-03 0.  1.
        -12    1    3    3    0    0 -0.78838989083E+01  0.46725046409E+01  0.11976179204E+02  0.15080352448E+02  0.00000000000E+00 0.  1.
</event>
<event>
 7    1  0.2751796E-010  0.4778727E+02  0.7816164E-02  0.1312668E+00
        -11   -1    0    0    0    0  0.00000000000E+00  0.00000000000E+00  0.45593999997E+02  0.45594000000E+02  0.51100000000E-03 0. -1.
         11   -1    0    0    0    0 -0.00000000000E+00 -0.00000000000E+00 -0.45593999997E+02  0.45594000000E+02  0.51100000000E-03 0.  1.
    9900012    2    1    2    0    0  0.15339780409E+02  0.40505903334E+02 -0.27543257585E+01  0.47787269842E+02  0.19999994517E+02 0.  0.
         12    1    1    2    0    0 -0.15339780409E+02 -0.40505903334E+02  0.27543257585E+01  0.43400730158E+02  0.00000000000E+00 0. -1.
         11    1    3    3    0    0  0.57688315336E+01  0.60531371572E+01  0.47482205246E+01  0.96158975202E+01  0.51100000000E-03 0. -1.
        -11    1    3    3    0    0  0.60091640144E+01  0.16583942693E+02 -0.91601932973E+01  0.19875772913E+02  0.51100000000E-03 0.  1.
        -12    1    3    3    0    0  0.35617848611E+01  0.17868823484E+02  0.16576470142E+01  0.18295599408E+02  0.00000000000E+00 0.  1.
</event>
<event>
 7    1  0.2751796E-010  0.4778728E+02  0.7816164E-02  0.1312668E+00
        -11   -1    0    0    0    0  0.00000000000E+00  0.00000000000E+00  0.45593999997E+02  0.45594000000E+02  0.51100000000E-03 0. -1.
         11   -1    0    0    0    0 -0.00000000000E+00 -0.00000000000E+00 -0.45593999997E+02  0.45594000000E+02  0.51100000000E-03 0.  1.
    9900012    2    1    2    0    0  0.25965006955E+02 -0.33622401785E+02 -0.88868116897E+01  0.47787275237E+02  0.20000019114E+02 0.  0.
         12    1    1    2    0    0 -0.25965006955E+02  0.33622401785E+02  0.88868116897E+01  0.43400724763E+02  0.00000000000E+00 0. -1.
         11    1    3    3    0    0  0.57244296542E+01 -0.53213615137E+01  0.47430588407E+01  0.91423514838E+01  0.51100000000E-03 0. -1.
        -11    1    3    3    0    0  0.19174460527E+02 -0.26160499695E+02 -0.15163020194E+02  0.35804313461E+02  0.51100000000E-03 0.  1.
        -12    1    3    3    0    0  0.10661167740E+01 -0.21405405771E+01  0.15331496637E+01  0.28406102917E+01  0.00000000000E+00 0.  1.
</event>
<event>
 7    1  0.2751796E-010  0.4778728E+02  0.7816164E-02  0.1312668E+00
        -11   -1    0    0    0    0  0.00000000000E+00  0.00000000000E+00  0.45593999997E+02  0.45594000000E+02  0.51100000000E-03 0.  1.
         11   -1    0    0    0    0 -0.00000000000E+00 -0.00000000000E+00 -0.45593999997E+02  0.45594000000E+02  0.51100000000E-03 0. -1.
    9900012    2    1    2    0    0 -0.16685478580E+02 -0.27045455920E+02  0.29559446260E+02  0.47787277142E+02  0.20000027801E+02 0.  0.
         12    1    1    2    0    0  0.16685478580E+02  0.27045455920E+02 -0.29559446260E+02  0.43400722858E+02  0.00000000000E+00 0. -1.
         11    1    3    3    0    0 -0.11231570781E+02 -0.11327751406E+02  0.27905642977E+01  0.16194239207E+02  0.51100000000E-03 0. -1.
        -11    1    3    3    0    0 -0.33801303077E+01 -0.86386392218E+01  0.16811361520E+02  0.19200865733E+02  0.51100000000E-03 0.  1.
         12    1    3    3    0    0 -0.20737774909E+01 -0.70790652922E+01  0.99575204432E+01  0.12392172201E+02  0.00000000000E+00 0. -1.
</event>
<event>
 7    1  0.2751796E-010  0.4778727E+02  0.7816164E-02  0.1312668E+00
        -11   -1    0    0    0    0  0.00000000000E+00  0.00000000000E+00  0.45593999997E+02  0.45594000000E+02  0.51100000000E-03 0. -1.
         11   -1    0    0    0    0 -0.00000000000E+00 -0.00000000000E+00 -0.45593999997E+02  0.45594000000E+02  0.51100000000E-03 0.  1.
    9900012    2    1    2    0    0 -0.19699139104E+02  0.34228788122E+02 -0.17998822355E+02  0.47787267012E+02  0.19999981614E+02 0.  0.
         12    1    1    2    0    0  0.19699139104E+02 -0.34228788122E+02  0.17998822355E+02  0.43400732988E+02  0.00000000000E+00 0. -1.
         11    1    3    3    0    0  0.68597704135E+00  0.42193097482E+01 -0.50370625468E+01  0.66064467465E+01  0.51100000000E-03 0. -1.
        -11    1    3    3    0    0 -0.16433878656E+02  0.15012715770E+02 -0.12789138442E+02  0.25671308202E+02  0.51100000000E-03 0.  1.
        -12    1    3    3    0    0 -0.39512374894E+01  0.14996762604E+02 -0.17262136611E+00  0.15509512063E+02  0.00000000000E+00 0.  1.
</event>
<event>
 7    1  0.2751796E-010  0.4778727E+02  0.7816164E-02  0.1312668E+00
        -11   -1    0    0    0    0  0.00000000000E+00  0.00000000000E+00  0.45593999997E+02  0.45594000000E+02  0.51100000000E-03 0. -1.
         11   -1    0    0    0    0 -0.00000000000E+00 -0.00000000000E+00 -0.45593999997E+02  0.45594000000E+02  0.51100000000E-03 0.  1.
    9900012    2    1    2    0    0 -0.17558470616E+02  0.38588382442E+02 -0.92876271073E+01  0.47787272274E+02  0.20000005606E+02 0.  0.
         12    1    1    2    0    0  0.17558470616E+02 -0.38588382442E+02  0.92876271073E+01  0.43400727726E+02  0.00000000000E+00 0. -1.
         11    1    3    3    0    0 -0.50956001833E+01 -0.33769687930E+00 -0.28191990477E+01  0.58332721471E+01  0.51100000000E-03 0. -1.
        -11    1    3    3    0    0 -0.88278433242E+01  0.34370254545E+02 -0.43446364645E+01  0.35750819313E+02  0.51100000000E-03 0.  1.
         12    1    3    3    0    0 -0.36350271090E+01  0.45558247757E+01 -0.21237915951E+01  0.62031808139E+01  0.00000000000E+00 0. -1.
</event>
<event>
 7    1  0.2751796E-010  0.4778727E+02  0.7816164E-02  0.1312668E+00
        -11   -1    0    0    0    0  0.00000000000E+00  0.00000000000E+00  0.45593999997E+02  0.45594000000E+02  0.51100000000E-03 0. -1.
         11   -1    0    0    0    0 -0.00000000000E+00 -0.00000000000E+00 -0.45593999997E+02  0.45594000000E+02  0.51100000000E-03 0.  1.
    9900012    2    1    2    0    0  0.63658041834E+01  0.21801692561E+02 -0.36983595860E+02  0.47787267009E+02  0.19999981601E+02 0.  0.
         12    1    1    2    0    0 -0.63658041834E+01 -0.21801692561E+02  0.36983595860E+02  0.43400732991E+02  0.00000000000E+00 0. -1.
         11    1    3    3    0    0 -0.18867987016E+01  0.34645175101E+01 -0.20942708131E+02  0.21311028014E+02  0.51100000000E-03 0. -1.
        -11    1    3    3    0    0  0.38052149993E+01  0.91270943637E+01 -0.39718154965E+01  0.10656398609E+02  0.51100000000E-03 0.  1.
         12    1    3    3    0    0  0.44473878857E+01  0.92100806871E+01 -0.12069072233E+02  0.15819840386E+02  0.00000000000E+00 0. -1.
</event>
<event>
 7    1  0.2751796E-010  0.4778727E+02  0.7816164E-02  0.1312668E+00
        -11   -1    0    0    0    0  0.00000000000E+00  0.00000000000E+00  0.45593999997E+02  0.45594000000E+02  0.51100000000E-03 0. -1.
         11   -1    0    0    0    0 -0.00000000000E+00 -0.00000000000E+00 -0.45593999997E+02  0.45594000000E+02  0.51100000000E-03 0.  1.
    9900012    2    1    2    0    0 -0.18713585417E+02  0.38102350341E+02 -0.90352558874E+01  0.47787271555E+02  0.20000002326E+02 0.  0.
         12    1    1    2    0    0  0.18713585417E+02 -0.38102350341E+02  0.90352558874E+01  0.43400728445E+02  0.00000000000E+00 0. -1.
         11    1    3    3    0    0 -0.55970288895E+01  0.84574328637E+01  0.17186334875E+01  0.10286330947E+02  0.51100000000E-03 0. -1.
        -11    1    3    3    0    0 -0.56097351720E+01  0.69362507058E+01  0.35856142220E+01  0.96144335331E+01  0.51100000000E-03 0.  1.
        -12    1    3    3    0    0 -0.75068213558E+01  0.22708666771E+02 -0.14339503597E+02  0.27886507074E+02  0.00000000000E+00 0.  1.
</event>
<event>
 7    1  0.2751796E-010  0.4778727E+02  0.7816164E-02  0.1312668E+00
        -11   -1    0    0    0    0  0.00000000000E+00  0.00000000000E+00  0.45593999997E+02  0.45594000000E+02  0.51100000000E-03 0.  1.
         11   -1    0    0    0    0 -0.00000000000E+00 -0.00000000000E+00 -0.45593999997E+02  0.45594000000E+02  0.51100000000E-03 0. -1.
    9900012    2    1    2    0    0 -0.42061381754E+01  0.18731143862E+02  0.38923973489E+02  0.47787273498E+02  0.20000011188E+02 0.  0.
         12    1    1    2    0    0  0.42061381754E+01 -0.18731143862E+02 -0.38923973489E+02  0.43400726502E+02  0.00000000000E+00 0. -1.
         11    1    3    3    0    0 -0.65545267258E+01  0.78409935303E+00  0.10558472704E+02  0.12452227853E+02  0.51100000000E-03 0. -1.
        -11    1    3    3    0    0 -0.18789662161E+01  0.16424207333E+02  0.21312198661E+02  0.26972113610E+02  0.51100000000E-03 0.  1.
         12    1    3    3    0    0  0.42273547666E+01  0.15228371761E+01  0.70533021235E+01  0.83629320357E+01  0.00000000000E+00 0. -1.
</event>
<event>
 7    1  0.2751796E-010  0.4778723E+02  0.7816164E-02  0.1312668E+00
        -11   -1    0    0    0    0  0.00000000000E+00  0.00000000000E+00  0.45593999997E+02  0.45594000000E+02  0.51100000000E-03 0. -1.
         11   -1    0    0    0    0 -0.00000000000E+00 -0.00000000000E+00 -0.45593999997E+02  0.45594000000E+02  0.51100000000E-03 0.  1.
    9900012    2    1    2    0    0  0.26504682006E+02 -0.28391921169E+02 -0.19365630310E+02  0.47787228196E+02  0.19999804636E+02 0.  0.
         12    1    1    2    0    0 -0.26504682006E+02  0.28391921169E+02  0.19365630310E+02  0.43400771804E+02  0.00000000000E+00 0. -1.
         11    1    3    3    0    0 -0.57081574492E+00 -0.10871283713E+02 -0.55108316574E+01  0.12201635382E+02  0.51100000000E-03 0. -1.
        -11    1    3    3    0    0  0.25826406526E+02 -0.16767704140E+02 -0.11609215880E+02  0.32907948429E+02  0.51100000000E-03 0.  1.
        -12    1    3    3    0    0  0.12490912243E+01 -0.75293331567E+00 -0.22455827726E+01  0.26776443851E+01  0.00000000000E+00 0.  1.
</event>
<event>
 7    1  0.2751796E-010  0.4778727E+02  0.7816164E-02  0.1312668E+00
        -11   -1    0    0    0    0  0.00000000000E+00  0.00000000000E+00  0.45593999997E+02  0.45594000000E+02  0.51100000000E-03 0.  1.
         11   -1    0    0    0    0 -0.00000000000E+00 -0.00000000000E+00 -0.45593999997E+02  0.45594000000E+02  0.51100000000E-03 0. -1.
    9900012    2    1    2    0    0 -0.85649238411E+01  0.30534190004E+02  0.29629857702E+02  0.47787272506E+02  0.20000006662E+02 0.  0.
         12    1    1    2    0    0  0.85649238411E+01 -0.30534190004E+02 -0.29629857702E+02  0.43400727494E+02  0.00000000000E+00 0. -1.
         11    1    3    3    0    0  0.32063832062E+01  0.49168611573E+01  0.41486109402E+01  0.71880031928E+01  0.51100000000E-03 0. -1.
        -11    1    3    3    0    0 -0.13941340568E+01 -0.16868746789E+01  0.71154942280E+00  0.23011863881E+01  0.51100000000E-03 0.  1.
        -12    1    3    3    0    0 -0.10377172991E+02  0.27304203525E+02  0.24769697339E+02  0.38298082925E+02  0.00000000000E+00 0.  1.
</event>
<event>
 7    1  0.2751796E-010  0.4778727E+02  0.7816164E-02  0.1312668E+00
        -11   -1    0    0    0    0  0.00000000000E+00  0.00000000000E+00  0.45593999997E+02  0.45594000000E+02  0.51100000000E-03 0.  1.
         11   -1    0    0    0    0 -0.00000000000E+00 -0.00000000000E+00 -0.45593999997E+02  0.45594000000E+02  0.51100000000E-03 0. -1.
    9900012    2    1    2    0    0  0.23372198095E+02 -0.33215410284E+02  0.15300334264E+02  0.47787270136E+02  0.19999995858E+02 0.  0.
         12    1    1    2    0    0 -0.23372198095E+02  0.33215410284E+02 -0.15300334264E+02  0.43400729864E+02  0.00000000000E+00 0. -1.
         11    1    3    3    0    0  0.36049257555E+01 -0.48392719052E+01 -0.24330606342E+01  0.65064450036E+01  0.51100000000E-03 0. -1.
        -11    1    3    3    0    0  0.47650187591E+01 -0.56808338121E+01  0.10980815332E+02  0.13249738948E+02  0.51100000000E-03 0.  1.
        -12    1    3    3    0    0  0.15002253581E+02 -0.22695304566E+02  0.67525795662E+01  0.28031086184E+02  0.00000000000E+00 0.  1.
</event>
<event>
 7    1  0.2751796E-010  0.4778727E+02  0.7816164E-02  0.1312668E+00
        -11   -1    0    0    0    0  0.00000000000E+00  0.00000000000E+00  0.45593999997E+02  0.45594000000E+02  0.51100000000E-03 0.  1.
         11   -1    0    0    0    0 -0.00000000000E+00 -0.00000000000E+00 -0.45593999997E+02  0.45594000000E+02  0.51100000000E-03 0. -1.
    9900012    2    1    2    0    0  0.53043887966E+01  0.28244339943E+01  0.42982665221E+02  0.47787268700E+02  0.19999989310E+02 0.  0.
         12    1    1    2    0    0 -0.53043887966E+01 -0.28244339943E+01 -0.42982665221E+02  0.43400731300E+02  0.00000000000E+00 0. -1.
         11    1    3    3    0    0  0.30824640395E+01  0.64073746025E+01  0.68316310283E+01  0.98603862307E+01  0.51100000000E-03 0. -1.
        -11    1    3    3    0    0  0.19694859044E+01 -0.22695700360E+01  0.36435789144E+02  0.36559493345E+02  0.51100000000E-03 0.  1.
         12    1    3    3    0    0  0.25243885264E+00 -0.13133705722E+01 -0.28475495114E+00  0.13673891240E+01  0.00000000000E+00 0. -1.
</event>
<event>
 7    1  0.2751796E-010  0.4778727E+02  0.7816164E-02  0.1312668E+00
        -11   -1    0    0    0    0  0.00000000000E+00  0.00000000000E+00  0.45593999997E+02  0.45594000000E+02  0.51100000000E-03 0. -1.
         11   -1    0    0    0    0 -0.00000000000E+00 -0.00000000000E+00 -0.45593999997E+02  0.45594000000E+02  0.51100000000E-03 0.  1.
    9900012    2    1    2    0    0 -0.13833997131E+02 -0.40698408370E+02 -0.59902698943E+01  0.47787271275E+02  0.20000001051E+02 0.  0.
         12    1    1    2    0    0  0.13833997131E+02  0.40698408370E+02  0.59902698943E+01  0.43400728725E+02  0.00000000000E+00 0. -1.
         11    1    3    3    0    0 -0.44966855011E+01 -0.10494200874E+02  0.56890420455E+01  0.12755925373E+02  0.51100000000E-03 0. -1.
        -11    1    3    3    0    0 -0.67254640179E+01 -0.11553594568E+02 -0.10586040956E+01  0.13410371232E+02  0.51100000000E-03 0.  1.
         12    1    3    3    0    0 -0.26118476119E+01 -0.18650612928E+02 -0.10620707844E+02  0.21620974669E+02  0.00000000000E+00 0. -1.
</event>
<event>
 7    1  0.2751796E-010  0.4778727E+02  0.7816164E-02  0.1312668E+00
        -11   -1    0    0    0    0  0.00000000000E+00  0.00000000000E+00  0.45593999997E+02  0.45594000000E+02  0.51100000000E-03 0.  1.
         11   -1    0    0    0    0 -0.00000000000E+00 -0.00000000000E+00 -0.45593999997E+02  0.45594000000E+02  0.51100000000E-03 0. -1.
    9900012    2    1    2    0    0  0.22230738444E+02 -0.35503261605E+02  0.11355006786E+02  0.47787268492E+02  0.19999988361E+02 0.  0.
         12    1    1    2    0    0 -0.22230738444E+02  0.35503261605E+02 -0.11355006786E+02  0.43400731508E+02  0.00000000000E+00 0. -1.
         11    1    3    3    0    0  0.11712046786E+02 -0.17878920154E+02 -0.28650845009E+01  0.21564705777E+02  0.51100000000E-03 0. -1.
        -11    1    3    3    0    0 -0.58400035416E+00 -0.15660954156E+01 -0.53078786646E+00  0.17536953227E+01  0.51100000000E-03 0.  1.
         12    1    3    3    0    0  0.11102692012E+02 -0.16058246036E+02  0.14750879154E+02  0.24468867392E+02  0.00000000000E+00 0. -1.
</event>
<event>
 7    1  0.2751796E-010  0.4778727E+02  0.7816164E-02  0.1312668E+00
        -11   -1    0    0    0    0  0.00000000000E+00  0.00000000000E+00  0.45593999997E+02  0.45594000000E+02  0.51100000000E-03 0.  1.
         11   -1    0    0    0    0 -0.00000000000E+00 -0.00000000000E+00 -0.45593999997E+02  0.45594000000E+02  0.51100000000E-03 0. -1.
    9900012    2    1    2    0    0  0.27356228300E+02 -0.29799243483E+02  0.15724671147E+02  0.47787269342E+02  0.19999992237E+02 0.  0.
         12    1    1    2    0    0 -0.27356228300E+02  0.29799243483E+02 -0.15724671147E+02  0.43400730658E+02  0.00000000000E+00 0. -1.
         11    1    3    3    0    0 -0.10757364725E+01 -0.75341115304E+01  0.11922705262E+01  0.77033469855E+01  0.51100000000E-03 0. -1.
        -11    1    3    3    0    0  0.20057352124E+02 -0.14793509704E+02  0.14553257207E+02  0.28860744952E+02  0.51100000000E-03 0.  1.
        -12    1    3    3    0    0  0.83746126487E+01 -0.74716222495E+01 -0.20856587008E-01  0.11223177404E+02  0.00000000000E+00 0.  1.
</event>
<event>
 7    1  0.2751796E-010  0.4778726E+02  0.7816164E-02  0.1312668E+00
        -11   -1    0    0    0    0  0.00000000000E+00  0.00000000000E+00  0.45593999997E+02  0.45594000000E+02  0.51100000000E-03 0.  1.
         11   -1    0    0    0    0 -0.00000000000E+00 -0.00000000000E+00 -0.45593999997E+02  0.45594000000E+02  0.51100000000E-03 0. -1.
    9900012    2    1    2    0    0 -0.41879110439E+02 -0.19090099765E+01 -0.11230302626E+02  0.47787263746E+02  0.19999966724E+02 0.  0.
         12    1    1    2    0    0  0.41879110439E+02  0.19090099765E+01  0.11230302626E+02  0.43400736254E+02  0.00000000000E+00 0. -1.
         11    1    3    3    0    0 -0.18013397536E+02  0.22693230693E+01 -0.98343308461E+01  0.20648156853E+02  0.51100000000E-03 0. -1.
        -11    1    3    3    0    0 -0.46178530640E+01 -0.61515362737E+01  0.43299388558E+00  0.77041189901E+01  0.51100000000E-03 0.  1.
        -12    1    3    3    0    0 -0.19247859840E+02  0.19732032279E+01 -0.18289656659E+01  0.19434987903E+02  0.00000000000E+00 0.  1.
</event>
<event>
 7    1  0.2751796E-010  0.4778727E+02  0.7816164E-02  0.1312668E+00
        -11   -1    0    0    0    0  0.00000000000E+00  0.00000000000E+00  0.45593999997E+02  0.45594000000E+02  0.51100000000E-03 0.  1.
         11   -1    0    0    0    0 -0.00000000000E+00 -0.00000000000E+00 -0.45593999997E+02  0.45594000000E+02  0.51100000000E-03 0. -1.
    9900012    2    1    2    0    0  0.25603099622E+02 -0.17759556426E+02  0.30210968769E+02  0.47787272026E+02  0.20000004476E+02 0.  0.
         12    1    1    2    0    0 -0.25603099622E+02  0.17759556426E+02 -0.30210968769E+02  0.43400727974E+02  0.00000000000E+00 0. -1.
         11    1    3    3    0    0  0.20077886827E+02 -0.66607764715E+01  0.23241380839E+02  0.31426887631E+02  0.51100000000E-03 0. -1.
        -11    1    3    3    0    0  0.23673681580E+01 -0.89304515025E+01  0.81834373946E+01  0.12342043748E+02  0.51100000000E-03 0.  1.
         12    1    3    3    0    0  0.31578446372E+01 -0.21683284520E+01 -0.12138494644E+01  0.40183406464E+01  0.00000000000E+00 0. -1.
</event>
<event>
 7    1  0.2751796E-010  0.4778727E+02  0.7816164E-02  0.1312668E+00
        -11   -1    0    0    0    0  0.00000000000E+00  0.00000000000E+00  0.45593999997E+02  0.45594000000E+02  0.51100000000E-03 0. -1.
         11   -1    0    0    0    0 -0.00000000000E+00 -0.00000000000E+00 -0.45593999997E+02  0.45594000000E+02  0.51100000000E-03 0.  1.
    9900012    2    1    2    0    0 -0.33605982987E+02  0.21454533020E+02 -0.17145381068E+02  0.47787272223E+02  0.20000005373E+02 0.  0.
         12    1    1    2    0    0  0.33605982987E+02 -0.21454533020E+02  0.17145381068E+02  0.43400727777E+02  0.00000000000E+00 0. -1.
         11    1    3    3    0    0 -0.13821089935E+01  0.31935753810E+01  0.31345446405E+01  0.46834302972E+01  0.51100000000E-03 0. -1.
        -11    1    3    3    0    0 -0.20722108932E+02  0.69817387486E+01 -0.10485800284E+02  0.24250824365E+02  0.51100000000E-03 0.  1.
         12    1    3    3    0    0 -0.11501765061E+02  0.11279218890E+02 -0.97941254242E+01  0.18853017560E+02  0.00000000000E+00 0. -1.
</event>
<event>
 7    1  0.2751796E-010  0.4778726E+02  0.7816164E-02  0.1312668E+00
        -11   -1    0    0    0    0  0.00000000000E+00  0.00000000000E+00  0.45593999997E+02  0.45594000000E+02  0.51100000000E-03 0.  1.
         11   -1    0    0    0    0 -0.00000000000E+00 -0.00000000000E+00 -0.45593999997E+02  0.45594000000E+02  0.51100000000E-03 0. -1.
    9900012    2    1    2    0    0 -0.14688798713E+02  0.17041965309E+02  0.37113809257E+02  0.47787260066E+02  0.19999949945E+02 0.  0.
         12    1    1    2    0    0  0.14688798713E+02 -0.17041965309E+02 -0.37113809257E+02  0.43400739934E+02  0.00000000000E+00 0. -1.
         11    1    3    3    0    0  0.21373338137E+01  0.74655524411E+01  0.49724869097E+01  0.92210788637E+01  0.51100000000E-03 0. -1.
        -11    1    3    3    0    0 -0.10349745928E+02  0.49951570873E+01  0.26341422502E+02  0.28739160996E+02  0.51100000000E-03 0.  1.
        -12    1    3    3    0    0 -0.64763865986E+01  0.45812557806E+01  0.57998998461E+01  0.98270202059E+01  0.00000000000E+00 0.  1.
</event>
<event>
 7    1  0.2751796E-010  0.4778725E+02  0.7816164E-02  0.1312668E+00
        -11   -1    0    0    0    0  0.00000000000E+00  0.00000000000E+00  0.45593999997E+02  0.45594000000E+02  0.51100000000E-03 0. -1.
         11   -1    0    0    0    0 -0.00000000000E+00 -0.00000000000E+00 -0.45593999997E+02  0.45594000000E+02  0.51100000000E-03 0.  1.
    9900012    2    1    2    0    0  0.27034914597E+02 -0.31549574409E+02 -0.12544418772E+02  0.47787254673E+02  0.19999925355E+02 0.  0.
         12    1    1    2    0    0 -0.27034914597E+02  0.31549574409E+02  0.12544418772E+02  0.43400745327E+02  0.00000000000E+00 0. -1.
         11    1    3    3    0    0 -0.26567398771E+00 -0.32425970747E+01 -0.11254345853E+01  0.34426184400E+01  0.51100000000E-03 0. -1.
        -11    1    3    3    0    0  0.51630200662E+00 -0.25792382262E+01  0.34510636076E+01  0.43392254925E+01  0.51100000000E-03 0.  1.
        -12    1    3    3    0    0  0.26784286578E+02 -0.25727739108E+02 -0.14870047794E+02  0.40005410740E+02  0.00000000000E+00 0.  1.
</event>
<event>
 7    1  0.2751796E-010  0.4778727E+02  0.7816164E-02  0.1312668E+00
        -11   -1    0    0    0    0  0.00000000000E+00  0.00000000000E+00  0.45593999997E+02  0.45594000000E+02  0.51100000000E-03 0.  1.
         11   -1    0    0    0    0 -0.00000000000E+00 -0.00000000000E+00 -0.45593999997E+02  0.45594000000E+02  0.51100000000E-03 0. -1.
    9900012    2    1    2    0    0 -0.29630094330E+02 -0.31627992772E+02  0.23131975564E+01  0.47787270746E+02  0.19999998639E+02 0.  0.
         12    1    1    2    0    0  0.29630094330E+02  0.31627992772E+02 -0.23131975564E+01  0.43400729254E+02  0.00000000000E+00 0. -1.
         11    1    3    3    0    0 -0.22951016855E+01 -0.13423489522E+01 -0.41826550138E+01  0.49562077925E+01  0.51100000000E-03 0. -1.
        -11    1    3    3    0    0 -0.18748645389E+02 -0.26653361364E+02  0.24841787797E+01  0.32681562393E+02  0.51100000000E-03 0.  1.
        -12    1    3    3    0    0 -0.85863472558E+01 -0.36322824559E+01  0.40116737905E+01  0.10149500561E+02  0.00000000000E+00 0.  1.
</event>
<event>
 7    1  0.2751796E-010  0.4778727E+02  0.7816164E-02  0.1312668E+00
        -11   -1    0    0    0    0  0.00000000000E+00  0.00000000000E+00  0.45593999997E+02  0.45594000000E+02  0.51100000000E-03 0. -1.
         11   -1    0    0    0    0 -0.00000000000E+00 -0.00000000000E+00 -0.45593999997E+02  0.45594000000E+02  0.51100000000E-03 0.  1.
    9900012    2    1    2    0    0  0.27107367380E+01  0.39748888555E+02 -0.17213410874E+02  0.47787265571E+02  0.19999975045E+02 0.  0.
         12    1    1    2    0    0 -0.27107367380E+01 -0.39748888555E+02  0.17213410874E+02  0.43400734429E+02  0.00000000000E+00 0. -1.
         11    1    3    3    0    0  0.20730628345E+01  0.27857977230E+01 -0.22870812266E+01  0.41580042409E+01  0.51100000000E-03 0. -1.
        -11    1    3    3    0    0  0.54937334553E+01  0.60794629939E+01 -0.83167007804E+01  0.11675122685E+02  0.51100000000E-03 0.  1.
        -12    1    3    3    0    0 -0.48560595518E+01  0.30883627838E+02 -0.66096288675E+01  0.31954138646E+02  0.00000000000E+00 0.  1.
</event>
<event>
 7    1  0.2751796E-010  0.4778727E+02  0.7816164E-02  0.1312668E+00
        -11   -1    0    0    0    0  0.00000000000E+00  0.00000000000E+00  0.45593999997E+02  0.45594000000E+02  0.51100000000E-03 0.  1.
         11   -1    0    0    0    0 -0.00000000000E+00 -0.00000000000E+00 -0.45593999997E+02  0.45594000000E+02  0.51100000000E-03 0. -1.
    9900012    2    1    2    0    0 -0.27681392433E+02 -0.20754679002E+02  0.26203189420E+02  0.47787270475E+02  0.19999997404E+02 0.  0.
         12    1    1    2    0    0  0.27681392433E+02  0.20754679002E+02 -0.26203189420E+02  0.43400729525E+02  0.00000000000E+00 0. -1.
         11    1    3    3    0    0 -0.74111573928E+01 -0.15513759861E+02  0.17535182375E+02  0.24557781254E+02  0.51100000000E-03 0. -1.
        -11    1    3    3    0    0 -0.14423871621E+02 -0.22255029309E+01  0.39048937020E+01  0.15107916168E+02  0.51100000000E-03 0.  1.
        -12    1    3    3    0    0 -0.58463634188E+01 -0.30154162099E+01  0.47631133433E+01  0.81215730536E+01  0.00000000000E+00 0.  1.
</event>
<event>
 7    1  0.2751796E-010  0.4778727E+02  0.7816164E-02  0.1312668E+00
        -11   -1    0    0    0    0  0.00000000000E+00  0.00000000000E+00  0.45593999997E+02  0.45594000000E+02  0.51100000000E-03 0.  1.
         11   -1    0    0    0    0 -0.00000000000E+00 -0.00000000000E+00 -0.45593999997E+02  0.45594000000E+02  0.51100000000E-03 0. -1.
    9900012    2    1    2    0    0  0.90398732931E+01 -0.37651333099E+02  0.19603079794E+02  0.47787274998E+02  0.20000018027E+02 0.  0.
         12    1    1    2    0    0 -0.90398732931E+01  0.37651333099E+02 -0.19603079794E+02  0.43400725002E+02  0.00000000000E+00 0. -1.
         11    1    3    3    0    0 -0.44898205573E+01 -0.83064399182E+01 -0.30555278492E+00  0.94471580656E+01  0.51100000000E-03 0. -1.
        -11    1    3    3    0    0  0.47629824835E+00 -0.52197924021E+01  0.43027925525E+01  0.67813801511E+01  0.51100000000E-03 0.  1.
         12    1    3    3    0    0  0.13053395602E+02 -0.24125100779E+02  0.15605840026E+02  0.31558736782E+02  0.00000000000E+00 0. -1.
</event>
<event>
 7    1  0.2751796E-010  0.4778727E+02  0.7816164E-02  0.1312668E+00
        -11   -1    0    0    0    0  0.00000000000E+00  0.00000000000E+00  0.45593999997E+02  0.45594000000E+02  0.51100000000E-03 0.  1.
         11   -1    0    0    0    0 -0.00000000000E+00 -0.00000000000E+00 -0.45593999997E+02  0.45594000000E+02  0.51100000000E-03 0. -1.
    9900012    2    1    2    0    0  0.46852505902E+01  0.24538363963E+01  0.43077261346E+02  0.47787270383E+02  0.19999996986E+02 0.  0.
         12    1    1    2    0    0 -0.46852505902E+01 -0.24538363963E+01 -0.43077261346E+02  0.43400729617E+02  0.00000000000E+00 0. -1.
         11    1    3    3    0    0  0.44109686552E+01  0.33271600825E+01  0.11933222395E+02  0.13150225690E+02  0.51100000000E-03 0. -1.
        -11    1    3    3    0    0 -0.37587183069E+00  0.13772400161E+01 -0.14054671474E+01  0.20033491604E+01  0.51100000000E-03 0.  1.
        -12    1    3    3    0    0  0.65015376572E+00 -0.22505637023E+01  0.32549506099E+02  0.32633695533E+02  0.00000000000E+00 0.  1.
</event>
<event>
 7    1  0.2751796E-010  0.4778727E+02  0.7816164E-02  0.1312668E+00
        -11   -1    0    0    0    0  0.00000000000E+00  0.00000000000E+00  0.45593999997E+02  0.45594000000E+02  0.51100000000E-03 0. -1.
         11   -1    0    0    0    0 -0.00000000000E+00 -0.00000000000E+00 -0.45593999997E+02  0.45594000000E+02  0.51100000000E-03 0.  1.
    9900012    2    1    2    0    0  0.13582912917E+02  0.26975550769E+02 -0.31168054274E+02  0.47787268787E+02  0.19999989706E+02 0.  0.
         12    1    1    2    0    0 -0.13582912917E+02 -0.26975550769E+02  0.31168054274E+02  0.43400731213E+02  0.00000000000E+00 0. -1.
         11    1    3    3    0    0  0.14300396997E+01  0.47466856120E+00 -0.12820165056E+01  0.19783554704E+01  0.51100000000E-03 0. -1.
        -11    1    3    3    0    0  0.77072942018E+01  0.13500381458E+02 -0.27883495540E+02  0.31924160243E+02  0.51100000000E-03 0.  1.
        -12    1    3    3    0    0  0.44455790156E+01  0.13000500750E+02 -0.20025422287E+01  0.13884753074E+02  0.00000000000E+00 0.  1.
</event>
<event>
 7    1  0.2751796E-010  0.4778724E+02  0.7816164E-02  0.1312668E+00
        -11   -1    0    0    0    0  0.00000000000E+00  0.00000000000E+00  0.45593999997E+02  0.45594000000E+02  0.51100000000E-03 0.  1.
         11   -1    0    0    0    0 -0.00000000000E+00 -0.00000000000E+00 -0.45593999997E+02  0.45594000000E+02  0.51100000000E-03 0. -1.
    9900012    2    1    2    0    0 -0.15713759643E+01 -0.20335116053E+02  0.38309792668E+02  0.47787235242E+02  0.19999836763E+02 0.  0.
         12    1    1    2    0    0  0.15713759643E+01  0.20335116053E+02 -0.38309792668E+02  0.43400764758E+02  0.00000000000E+00 0. -1.
         11    1    3    3    0    0 -0.72424470577E+01 -0.41230108117E+01  0.38229024224E+01  0.91687971255E+01  0.51100000000E-03 0. -1.
        -11    1    3    3    0    0  0.15753471781E+01 -0.82531036497E+01  0.15641896691E+02  0.17755685595E+02  0.51100000000E-03 0.  1.
         12    1    3    3    0    0  0.40957239153E+01 -0.79590015914E+01  0.18844993554E+02  0.20862752522E+02  0.00000000000E+00 0. -1.
</event>
<event>
 7    1  0.2751796E-010  0.4778727E+02  0.7816164E-02  0.1312668E+00
        -11   -1    0    0    0    0  0.00000000000E+00  0.00000000000E+00  0.45593999997E+02  0.45594000000E+02  0.51100000000E-03 0. -1.
         11   -1    0    0    0    0 -0.00000000000E+00 -0.00000000000E+00 -0.45593999997E+02  0.45594000000E+02  0.51100000000E-03 0.  1.
    9900012    2    1    2    0    0 -0.11348151459E+01  0.39867924254E+02  0.17113854852E+02  0.47787271692E+02  0.20000002953E+02 0.  0.
         12    1    1    2    0    0  0.11348151459E+01 -0.39867924254E+02 -0.17113854852E+02  0.43400728308E+02  0.00000000000E+00 0. -1.
         11    1    3    3    0    0 -0.34764986898E+01  0.20172503548E+02  0.11972009000E+02  0.23713813323E+02  0.51100000000E-03 0. -1.
        -11    1    3    3    0    0  0.52829558137E+01  0.19794816356E+02  0.37916968332E+01  0.20835578750E+02  0.51100000000E-03 0.  1.
        -12    1    3    3    0    0 -0.29412722698E+01 -0.99395649688E-01  0.13501490183E+01  0.32378796197E+01  0.00000000000E+00 0.  1.
</event>
<event>
 7    1  0.2751796E-010  0.4778727E+02  0.7816164E-02  0.1312668E+00
        -11   -1    0    0    0    0  0.00000000000E+00  0.00000000000E+00  0.45593999997E+02  0.45594000000E+02  0.51100000000E-03 0. -1.
         11   -1    0    0    0    0 -0.00000000000E+00 -0.00000000000E+00 -0.45593999997E+02  0.45594000000E+02  0.51100000000E-03 0.  1.
    9900012    2    1    2    0    0 -0.22559087035E+02  0.35940856239E+02 -0.91085526737E+01  0.47787270895E+02  0.19999999318E+02 0.  0.
         12    1    1    2    0    0  0.22559087035E+02 -0.35940856239E+02  0.91085526737E+01  0.43400729105E+02  0.00000000000E+00 0. -1.
         11    1    3    3    0    0 -0.51619194472E+01  0.10421610884E+02  0.41875665102E+01  0.12360869684E+02  0.51100000000E-03 0. -1.
        -11    1    3    3    0    0 -0.79116576760E+01  0.18014363471E+02 -0.12488793398E+02  0.23304110779E+02  0.51100000000E-03 0.  1.
         12    1    3    3    0    0 -0.94855099116E+01  0.75048818844E+01 -0.80732578627E+00  0.12122290432E+02  0.00000000000E+00 0. -1.
</event>
<event>
 7    1  0.2751796E-010  0.4778727E+02  0.7816164E-02  0.1312668E+00
        -11   -1    0    0    0    0  0.00000000000E+00  0.00000000000E+00  0.45593999997E+02  0.45594000000E+02  0.51100000000E-03 0.  1.
         11   -1    0    0    0    0 -0.00000000000E+00 -0.00000000000E+00 -0.45593999997E+02  0.45594000000E+02  0.51100000000E-03 0. -1.
    9900012    2    1    2    0    0  0.30367182922E+01  0.24508807854E+02  0.35689217125E+02  0.47787267986E+02  0.19999986053E+02 0.  0.
         12    1    1    2    0    0 -0.30367182922E+01 -0.24508807854E+02 -0.35689217125E+02  0.43400732014E+02  0.00000000000E+00 0. -1.
         11    1    3    3    0    0  0.73758464624E+01  0.44838156828E+01  0.10606782503E+02  0.13675216614E+02  0.51100000000E-03 0. -1.
        -11    1    3    3    0    0 -0.65683624288E+01  0.11644641628E+02  0.99302377206E+01  0.16653848957E+02  0.51100000000E-03 0.  1.
        -12    1    3    3    0    0  0.22292342586E+01  0.83803505440E+01  0.15152196901E+02  0.17458202415E+02  0.00000000000E+00 0.  1.
</event>
<event>
 7    1  0.2751796E-010  0.4778727E+02  0.7816164E-02  0.1312668E+00
        -11   -1    0    0    0    0  0.00000000000E+00  0.00000000000E+00  0.45593999997E+02  0.45594000000E+02  0.51100000000E-03 0.  1.
         11   -1    0    0    0    0 -0.00000000000E+00 -0.00000000000E+00 -0.45593999997E+02  0.45594000000E+02  0.51100000000E-03 0. -1.
    9900012    2    1    2    0    0 -0.14903723585E+02 -0.13060862302E+02  0.38612385530E+02  0.47787269395E+02  0.19999992478E+02 0.  0.
         12    1    1    2    0    0  0.14903723585E+02  0.13060862302E+02 -0.38612385530E+02  0.43400730605E+02  0.00000000000E+00 0. -1.
         11    1    3    3    0    0 -0.56648918661E+01 -0.97572668552E+01  0.70417493350E+01  0.13299680083E+02  0.51100000000E-03 0. -1.
        -11    1    3    3    0    0 -0.40954595643E+00 -0.15435839221E+01  0.18770933974E+02  0.18838745758E+02  0.51100000000E-03 0.  1.
         12    1    3    3    0    0 -0.88292857621E+01 -0.17600115251E+01  0.12799702220E+02  0.15648843554E+02  0.00000000000E+00 0. -1.
</event>
<event>
 7    1  0.2751796E-010  0.4778727E+02  0.7816164E-02  0.1312668E+00
        -11   -1    0    0    0    0  0.00000000000E+00  0.00000000000E+00  0.45593999997E+02  0.45594000000E+02  0.51100000000E-03 0.  1.
         11   -1    0    0    0    0 -0.00000000000E+00 -0.00000000000E+00 -0.45593999997E+02  0.45594000000E+02  0.51100000000E-03 0. -1.
    9900012    2    1    2    0    0 -0.21257016115E+02  0.32994944249E+02  0.18522853148E+02  0.47787272254E+02  0.20000005515E+02 0.  0.
         12    1    1    2    0    0  0.21257016115E+02 -0.32994944249E+02 -0.18522853148E+02  0.43400727746E+02  0.00000000000E+00 0. -1.
         11    1    3    3    0    0 -0.78015990381E+01  0.12006660236E+01  0.27253135743E+01  0.83506814567E+01  0.51100000000E-03 0. -1.
        -11    1    3    3    0    0 -0.13243938257E+02  0.31533827192E+02  0.16995860633E+02  0.38192190783E+02  0.51100000000E-03 0.  1.
         12    1    3    3    0    0 -0.21147882017E+00  0.26045103396E+00 -0.11983210597E+01  0.12444000139E+01  0.00000000000E+00 0. -1.
</event>
<event>
 7    1  0.2751796E-010  0.4778727E+02  0.7816164E-02  0.1312668E+00
        -11   -1    0    0    0    0  0.00000000000E+00  0.00000000000E+00  0.45593999997E+02  0.45594000000E+02  0.51100000000E-03 0. -1.
         11   -1    0    0    0    0 -0.00000000000E+00 -0.00000000000E+00 -0.45593999997E+02  0.45594000000E+02  0.51100000000E-03 0.  1.
    9900012    2    1    2    0    0  0.18841420502E+02 -0.28828757429E+02 -0.26410737676E+02  0.47787269061E+02  0.19999990959E+02 0.  0.
         12    1    1    2    0    0 -0.18841420502E+02  0.28828757429E+02  0.26410737676E+02  0.43400730939E+02  0.00000000000E+00 0. -1.
         11    1    3    3    0    0  0.42054136339E+01 -0.18370759373E+02 -0.10678971167E+02  0.21661272567E+02  0.51100000000E-03 0. -1.
        -11    1    3    3    0    0  0.28036704646E+01 -0.67114736754E+01 -0.18503944599E+01  0.75052253056E+01  0.51100000000E-03 0.  1.
         12    1    3    3    0    0  0.11832336404E+02 -0.37465243799E+01 -0.13881372049E+02  0.18620771189E+02  0.00000000000E+00 0. -1.
</event>
<event>
 7    1  0.2751796E-010  0.4778727E+02  0.7816164E-02  0.1312668E+00
        -11   -1    0    0    0    0  0.00000000000E+00  0.00000000000E+00  0.45593999997E+02  0.45594000000E+02  0.51100000000E-03 0. -1.
         11   -1    0    0    0    0 -0.00000000000E+00 -0.00000000000E+00 -0.45593999997E+02  0.45594000000E+02  0.51100000000E-03 0.  1.
    9900012    2    1    2    0    0  0.16259078542E+02 -0.36237995910E+02  0.17494950303E+02  0.47787271104E+02  0.20000000273E+02 0.  0.
         12    1    1    2    0    0 -0.16259078542E+02  0.36237995910E+02 -0.17494950303E+02  0.43400728896E+02  0.00000000000E+00 0. -1.
         11    1    3    3    0    0  0.11968099361E+02 -0.22162667673E+02  0.15579771738E+02  0.29616693407E+02  0.51100000000E-03 0.  1.
        -11    1    3    3    0    0 -0.31810262394E+01 -0.49450141640E+01 -0.11265479614E+01  0.59867523407E+01  0.51100000000E-03 0. -1.
         12    1    3    3    0    0  0.74720054203E+01 -0.91303140727E+01  0.30417265267E+01  0.12183825357E+02  0.00000000000E+00 0. -1.
</event>
<event>
 7    1  0.2751796E-010  0.4778727E+02  0.7816164E-02  0.1312668E+00
        -11   -1    0    0    0    0  0.00000000000E+00  0.00000000000E+00  0.45593999997E+02  0.45594000000E+02  0.51100000000E-03 0. -1.
         11   -1    0    0    0    0 -0.00000000000E+00 -0.00000000000E+00 -0.45593999997E+02  0.45594000000E+02  0.51100000000E-03 0.  1.
    9900012    2    1    2    0    0 -0.23232954231E+02  0.33429697013E+02 -0.15043560938E+02  0.47787268089E+02  0.19999986527E+02 0.  0.
         12    1    1    2    0    0  0.23232954231E+02 -0.33429697013E+02  0.15043560938E+02  0.43400731911E+02  0.00000000000E+00 0. -1.
         11    1    3    3    0    0  0.22384215011E+01  0.77570349970E+01 -0.63526713707E+01  0.10273196025E+02  0.51100000000E-03 0. -1.
        -11    1    3    3    0    0 -0.13953366686E+02  0.11101090322E+02 -0.29495268484E+01  0.18072917781E+02  0.51100000000E-03 0.  1.
         12    1    3    3    0    0 -0.11518009046E+02  0.14571571694E+02 -0.57413627193E+01  0.19441154284E+02  0.00000000000E+00 0. -1.
</event>
<event>
 7    1  0.2751796E-010  0.4778727E+02  0.7816164E-02  0.1312668E+00
        -11   -1    0    0    0    0  0.00000000000E+00  0.00000000000E+00  0.45593999997E+02  0.45594000000E+02  0.51100000000E-03 0.  1.
         11   -1    0    0    0    0 -0.00000000000E+00 -0.00000000000E+00 -0.45593999997E+02  0.45594000000E+02  0.51100000000E-03 0. -1.
    9900012    2    1    2    0    0  0.39357074560E+02 -0.15644500950E+02  0.94812288556E+01  0.47787269263E+02  0.19999991879E+02 0.  0.
         12    1    1    2    0    0 -0.39357074560E+02  0.15644500950E+02 -0.94812288556E+01  0.43400730737E+02  0.00000000000E+00 0. -1.
         11    1    3    3    0    0  0.33669235714E+01  0.13092294612E+01  0.72419250728E+00  0.36843874887E+01  0.51100000000E-03 0. -1.
        -11    1    3    3    0    0  0.68575746828E+01 -0.33255179846E+00  0.80157544205E+01  0.10554110120E+02  0.51100000000E-03 0.  1.
        -12    1    3    3    0    0  0.29132576305E+02 -0.16621178613E+02  0.74128192779E+00  0.33548771655E+02  0.00000000000E+00 0.  1.
</event>
<event>
 7    1  0.2751796E-010  0.4778727E+02  0.7816164E-02  0.1312668E+00
        -11   -1    0    0    0    0  0.00000000000E+00  0.00000000000E+00  0.45593999997E+02  0.45594000000E+02  0.51100000000E-03 0.  1.
         11   -1    0    0    0    0 -0.00000000000E+00 -0.00000000000E+00 -0.45593999997E+02  0.45594000000E+02  0.51100000000E-03 0. -1.
    9900012    2    1    2    0    0 -0.18621677994E+02  0.17396435879E+02  0.35131475089E+02  0.47787269424E+02  0.19999992611E+02 0.  0.
         12    1    1    2    0    0  0.18621677994E+02 -0.17396435879E+02 -0.35131475089E+02  0.43400730576E+02  0.00000000000E+00 0. -1.
         11    1    3    3    0    0 -0.92287812013E+01 -0.19207286533E+01  0.10986975033E+02  0.14476644006E+02  0.51100000000E-03 0. -1.
        -11    1    3    3    0    0 -0.16568369334E+01 -0.40286829591E+00  0.12142432483E+01  0.20932745675E+01  0.51100000000E-03 0.  1.
         12    1    3    3    0    0 -0.77360598591E+01  0.19720032828E+02  0.22930256808E+02  0.31217350851E+02  0.00000000000E+00 0. -1.
</event>
<event>
 7    1  0.2751796E-010  0.4778727E+02  0.7816164E-02  0.1312668E+00
        -11   -1    0    0    0    0  0.00000000000E+00  0.00000000000E+00  0.45593999997E+02  0.45594000000E+02  0.51100000000E-03 0.  1.
         11   -1    0    0    0    0 -0.00000000000E+00 -0.00000000000E+00 -0.45593999997E+02  0.45594000000E+02  0.51100000000E-03 0. -1.
    9900012    2    1    2    0    0  0.30808836314E+02 -0.45734771223E+01  0.30224532100E+02  0.47787269261E+02  0.19999991867E+02 0.  0.
         12    1    1    2    0    0 -0.30808836314E+02  0.45734771223E+01 -0.30224532100E+02  0.43400730739E+02  0.00000000000E+00 0. -1.
         11    1    3    3    0    0  0.13517941431E+02 -0.84186184790E+01  0.59722922353E+01  0.17008120191E+02  0.51100000000E-03 0. -1.
        -11    1    3    3    0    0  0.50187189227E+01 -0.29602991151E+00  0.11736977978E+02  0.12768391662E+02  0.51100000000E-03 0.  1.
         12    1    3    3    0    0  0.12272175960E+02  0.41411712682E+01  0.12515261887E+02  0.18010757407E+02  0.00000000000E+00 0. -1.
</event>
<event>
 7    1  0.2751796E-010  0.4778727E+02  0.7816164E-02  0.1312668E+00
        -11   -1    0    0    0    0  0.00000000000E+00  0.00000000000E+00  0.45593999997E+02  0.45594000000E+02  0.51100000000E-03 0. -1.
         11   -1    0    0    0    0 -0.00000000000E+00 -0.00000000000E+00 -0.45593999997E+02  0.45594000000E+02  0.51100000000E-03 0.  1.
    9900012    2    1    2    0    0 -0.77249355145E+00  0.21566677674E+01 -0.43340228067E+02  0.47787270386E+02  0.19999996999E+02 0.  0.
         12    1    1    2    0    0  0.77249355145E+00 -0.21566677674E+01  0.43340228067E+02  0.43400729614E+02  0.00000000000E+00 0. -1.
         11    1    3    3    0    0  0.58808502899E+01 -0.47173465562E+01 -0.10793657099E+02  0.13165895051E+02  0.51100000000E-03 0. -1.
        -11    1    3    3    0    0 -0.16292443480E+01 -0.11550637382E+01 -0.94403031770E+01  0.96492452409E+01  0.51100000000E-03 0.  1.
         12    1    3    3    0    0 -0.50240994933E+01  0.80290780617E+01 -0.23106267791E+02  0.24972130095E+02  0.00000000000E+00 0. -1.
</event>
<event>
 7    1  0.2751796E-010  0.4778727E+02  0.7816164E-02  0.1312668E+00
        -11   -1    0    0    0    0  0.00000000000E+00  0.00000000000E+00  0.45593999997E+02  0.45594000000E+02  0.51100000000E-03 0. -1.
         11   -1    0    0    0    0 -0.00000000000E+00 -0.00000000000E+00 -0.45593999997E+02  0.45594000000E+02  0.51100000000E-03 0.  1.
    9900012    2    1    2    0    0 -0.24879982157E+02  0.33657744600E+02 -0.11478938184E+02  0.47787270680E+02  0.19999998338E+02 0.  0.
         12    1    1    2    0    0  0.24879982157E+02 -0.33657744600E+02  0.11478938184E+02  0.43400729320E+02  0.00000000000E+00 0. -1.
         11    1    3    3    0    0  0.17878404874E+01  0.99319331183E+00 -0.41117076054E+01  0.45922702726E+01  0.51100000000E-03 0. -1.
        -11    1    3    3    0    0 -0.25078915684E+02  0.31469615169E+02 -0.81516775764E+01  0.41057746387E+02  0.51100000000E-03 0.  1.
         12    1    3    3    0    0 -0.15889069607E+01  0.11949361185E+01  0.78444699767E+00  0.21372540207E+01  0.00000000000E+00 0. -1.
</event>
<event>
 7    1  0.2751796E-010  0.4778727E+02  0.7816164E-02  0.1312668E+00
        -11   -1    0    0    0    0  0.00000000000E+00  0.00000000000E+00  0.45593999997E+02  0.45594000000E+02  0.51100000000E-03 0.  1.
         11   -1    0    0    0    0 -0.00000000000E+00 -0.00000000000E+00 -0.45593999997E+02  0.45594000000E+02  0.51100000000E-03 0. -1.
    9900012    2    1    2    0    0  0.25914638558E+02 -0.29112964599E+01  0.34692633954E+02  0.47787274323E+02  0.20000014947E+02 0.  0.
         12    1    1    2    0    0 -0.25914638558E+02  0.29112964599E+01 -0.34692633954E+02  0.43400725677E+02  0.00000000000E+00 0. -1.
         11    1    3    3    0    0  0.18882518485E+02  0.32950969244E+01  0.17155381807E+02  0.25723807908E+02  0.51100000000E-03 0. -1.
        -11    1    3    3    0    0 -0.22836489386E+01 -0.23705094718E+01  0.48776513740E+01  0.58843734431E+01  0.51100000000E-03 0.  1.
        -12    1    3    3    0    0  0.93157690120E+01 -0.38358839125E+01  0.12659600772E+02  0.16179092972E+02  0.00000000000E+00 0.  1.
</event>
<event>
 7    1  0.2751796E-010  0.4778728E+02  0.7816164E-02  0.1312668E+00
        -11   -1    0    0    0    0  0.00000000000E+00  0.00000000000E+00  0.45593999997E+02  0.45594000000E+02  0.51100000000E-03 0. -1.
         11   -1    0    0    0    0 -0.00000000000E+00 -0.00000000000E+00 -0.45593999997E+02  0.45594000000E+02  0.51100000000E-03 0.  1.
    9900012    2    1    2    0    0  0.34344127194E+02  0.22329317113E+02  0.14335449097E+02  0.47787279081E+02  0.20000036643E+02 0.  0.
         12    1    1    2    0    0 -0.34344127194E+02 -0.22329317113E+02 -0.14335449097E+02  0.43400720919E+02  0.00000000000E+00 0. -1.
         11    1    3    3    0    0  0.17453941508E+02  0.17471553918E+02  0.15220385618E+02  0.29009574438E+02  0.51100000000E-03 0. -1.
        -11    1    3    3    0    0  0.11812117855E+02  0.23781201878E+01 -0.35052274478E+01  0.12548633534E+02  0.51100000000E-03 0.  1.
        -12    1    3    3    0    0  0.50780678302E+01  0.24796430079E+01  0.26202909273E+01  0.62290711088E+01  0.00000000000E+00 0.  1.
</event>
<event>
 7    1  0.2751796E-010  0.4778727E+02  0.7816164E-02  0.1312668E+00
        -11   -1    0    0    0    0  0.00000000000E+00  0.00000000000E+00  0.45593999997E+02  0.45594000000E+02  0.51100000000E-03 0. -1.
         11   -1    0    0    0    0 -0.00000000000E+00 -0.00000000000E+00 -0.45593999997E+02  0.45594000000E+02  0.51100000000E-03 0.  1.
    9900012    2    1    2    0    0  0.24869697786E+02  0.17654057876E+02 -0.30878078744E+02  0.47787269887E+02  0.19999994722E+02 0.  0.
         12    1    1    2    0    0 -0.24869697786E+02 -0.17654057876E+02  0.30878078744E+02  0.43400730113E+02  0.00000000000E+00 0. -1.
         11    1    3    3    0    0  0.13605414933E+02  0.68338800089E+01 -0.97875268620E+01  0.18099859497E+02  0.51100000000E-03 0. -1.
        -11    1    3    3    0    0 -0.25333939718E+01  0.36504229385E+01 -0.15298655795E+01  0.46993788525E+01  0.51100000000E-03 0.  1.
        -12    1    3    3    0    0  0.13797676824E+02  0.71697549287E+01 -0.19560686303E+02  0.24988031537E+02  0.00000000000E+00 0.  1.
</event>
<event>
 7    1  0.2751796E-010  0.4778727E+02  0.7816164E-02  0.1312668E+00
        -11   -1    0    0    0    0  0.00000000000E+00  0.00000000000E+00  0.45593999997E+02  0.45594000000E+02  0.51100000000E-03 0.  1.
         11   -1    0    0    0    0 -0.00000000000E+00 -0.00000000000E+00 -0.45593999997E+02  0.45594000000E+02  0.51100000000E-03 0. -1.
    9900012    2    1    2    0    0  0.41428680798E+02  0.30953413212E+01  0.12558119908E+02  0.47787272976E+02  0.20000008806E+02 0.  0.
         12    1    1    2    0    0 -0.41428680798E+02 -0.30953413212E+01 -0.12558119908E+02  0.43400727024E+02  0.00000000000E+00 0. -1.
         11    1    3    3    0    0  0.91058686357E+01 -0.91479938862E+00 -0.46714155644E+01  0.10275009741E+02  0.51100000000E-03 0. -1.
        -11    1    3    3    0    0  0.21230026322E+02  0.50451503457E+00  0.81161157549E+01  0.22734112876E+02  0.51100000000E-03 0.  1.
         12    1    3    3    0    0  0.11092785840E+02  0.35056256752E+01  0.91134197180E+01  0.14778150359E+02  0.00000000000E+00 0. -1.
</event>
<event>
 7    1  0.2751796E-010  0.4778727E+02  0.7816164E-02  0.1312668E+00
        -11   -1    0    0    0    0  0.00000000000E+00  0.00000000000E+00  0.45593999997E+02  0.45594000000E+02  0.51100000000E-03 0.  1.
         11   -1    0    0    0    0 -0.00000000000E+00 -0.00000000000E+00 -0.45593999997E+02  0.45594000000E+02  0.51100000000E-03 0. -1.
    9900012    2    1    2    0    0 -0.22333208309E+02  0.51958951844E+01  0.36849065520E+02  0.47787272474E+02  0.20000006516E+02 0.  0.
         12    1    1    2    0    0  0.22333208309E+02 -0.51958951844E+01 -0.36849065520E+02  0.43400727526E+02  0.00000000000E+00 0. -1.
         11    1    3    3    0    0 -0.92658218475E+01  0.68305414864E+01  0.19750889782E+02  0.22860651761E+02  0.51100000000E-03 0. -1.
        -11    1    3    3    0    0 -0.88363746877E+00  0.57389021475E+00  0.11132309401E+02  0.11182060544E+02  0.51100000000E-03 0.  1.
         12    1    3    3    0    0 -0.12183748993E+02 -0.22085365167E+01  0.59658663366E+01  0.13744560168E+02  0.00000000000E+00 0. -1.
</event>
<event>
 7    1  0.2751796E-010  0.4778727E+02  0.7816164E-02  0.1312668E+00
        -11   -1    0    0    0    0  0.00000000000E+00  0.00000000000E+00  0.45593999997E+02  0.45594000000E+02  0.51100000000E-03 0. -1.
         11   -1    0    0    0    0 -0.00000000000E+00 -0.00000000000E+00 -0.45593999997E+02  0.45594000000E+02  0.51100000000E-03 0.  1.
    9900012    2    1    2    0    0 -0.40456583544E+02 -0.38912866651E+01 -0.15223207794E+02  0.47787270519E+02  0.19999997604E+02 0.  0.
         12    1    1    2    0    0  0.40456583544E+02  0.38912866651E+01  0.15223207794E+02  0.43400729481E+02  0.00000000000E+00 0. -1.
         11    1    3    3    0    0 -0.13409917145E+02  0.56950060951E+01 -0.70400256645E+01  0.16180881740E+02  0.51100000000E-03 0. -1.
        -11    1    3    3    0    0 -0.24367515124E+02 -0.53035022745E+01 -0.44667222042E+01  0.25334848277E+02  0.51100000000E-03 0.  1.
         12    1    3    3    0    0 -0.26791512748E+01 -0.42827904857E+01 -0.37164599253E+01  0.62715405025E+01  0.00000000000E+00 0. -1.
</event>
<event>
 7    1  0.2751796E-010  0.4778727E+02  0.7816164E-02  0.1312668E+00
        -11   -1    0    0    0    0  0.00000000000E+00  0.00000000000E+00  0.45593999997E+02  0.45594000000E+02  0.51100000000E-03 0.  1.
         11   -1    0    0    0    0 -0.00000000000E+00 -0.00000000000E+00 -0.45593999997E+02  0.45594000000E+02  0.51100000000E-03 0. -1.
    9900012    2    1    2    0    0  0.59136271832E+00  0.20458230069E+02  0.38271850102E+02  0.47787269619E+02  0.19999993499E+02 0.  0.
         12    1    1    2    0    0 -0.59136271832E+00 -0.20458230069E+02 -0.38271850102E+02  0.43400730381E+02  0.00000000000E+00 0. -1.
         11    1    3    3    0    0  0.13683043742E+01 -0.92482605490E+00 -0.13911604043E+01  0.21593720438E+01  0.51100000000E-03 0. -1.
        -11    1    3    3    0    0  0.10083376997E+01  0.91591208541E+01  0.23803614473E+02  0.25524856551E+02  0.51100000000E-03 0.  1.
         12    1    3    3    0    0 -0.17852793555E+01  0.12223935269E+02  0.15859396034E+02  0.20103041024E+02  0.00000000000E+00 0. -1.
</event>
<event>
 7    1  0.2751796E-010  0.4778727E+02  0.7816164E-02  0.1312668E+00
        -11   -1    0    0    0    0  0.00000000000E+00  0.00000000000E+00  0.45593999997E+02  0.45594000000E+02  0.51100000000E-03 0.  1.
         11   -1    0    0    0    0 -0.00000000000E+00 -0.00000000000E+00 -0.45593999997E+02  0.45594000000E+02  0.51100000000E-03 0. -1.
    9900012    2    1    2    0    0 -0.38528258003E+02  0.11143684245E+02 -0.16583567896E+02  0.47787273192E+02  0.20000009793E+02 0.  0.
         12    1    1    2    0    0  0.38528258003E+02 -0.11143684245E+02  0.16583567896E+02  0.43400726808E+02  0.00000000000E+00 0. -1.
         11    1    3    3    0    0 -0.21986658967E+01  0.18808660757E+01 -0.57156764684E+01  0.64063052279E+01  0.51100000000E-03 0. -1.
        -11    1    3    3    0    0 -0.30774954654E+02  0.11902999124E+02 -0.12031419805E+02  0.35121706748E+02  0.51100000000E-03 0.  1.
        -12    1    3    3    0    0 -0.55546374516E+01 -0.26401809538E+01  0.11635283781E+01  0.62592612163E+01  0.00000000000E+00 0.  1.
</event>
<event>
 7    1  0.2751796E-010  0.4778728E+02  0.7816164E-02  0.1312668E+00
        -11   -1    0    0    0    0  0.00000000000E+00  0.00000000000E+00  0.45593999997E+02  0.45594000000E+02  0.51100000000E-03 0.  1.
         11   -1    0    0    0    0 -0.00000000000E+00 -0.00000000000E+00 -0.45593999997E+02  0.45594000000E+02  0.51100000000E-03 0. -1.
    9900012    2    1    2    0    0  0.25543264757E+02 -0.24986602882E+01  0.34998874556E+02  0.47787275376E+02  0.20000019751E+02 0.  0.
         12    1    1    2    0    0 -0.25543264757E+02  0.24986602882E+01 -0.34998874556E+02  0.43400724624E+02  0.00000000000E+00 0. -1.
         11    1    3    3    0    0  0.25766421991E+02 -0.18034038528E+01  0.28277200975E+02  0.38298314100E+02  0.51100000000E-03 0. -1.
        -11    1    3    3    0    0  0.28115355181E+01 -0.16682345285E+01  0.21378153594E+01  0.39061481261E+01  0.51100000000E-03 0.  1.
         12    1    3    3    0    0 -0.30346927524E+01  0.97297809307E+00  0.45838582216E+01  0.55828131499E+01  0.00000000000E+00 0. -1.
</event>
<event>
 7    1  0.2751796E-010  0.4778727E+02  0.7816164E-02  0.1312668E+00
        -11   -1    0    0    0    0  0.00000000000E+00  0.00000000000E+00  0.45593999997E+02  0.45594000000E+02  0.51100000000E-03 0.  1.
         11   -1    0    0    0    0 -0.00000000000E+00 -0.00000000000E+00 -0.45593999997E+02  0.45594000000E+02  0.51100000000E-03 0. -1.
    9900012    2    1    2    0    0  0.40151483257E+02  0.10264655230E+02  0.12888699789E+02  0.47787270317E+02  0.19999996684E+02 0.  0.
         12    1    1    2    0    0 -0.40151483257E+02 -0.10264655230E+02 -0.12888699789E+02  0.43400729683E+02  0.00000000000E+00 0. -1.
         11    1    3    3    0    0  0.98707712151E+01 -0.49741030373E+01  0.43838301624E+01  0.11890828086E+02  0.51100000000E-03 0. -1.
        -11    1    3    3    0    0  0.26034937681E+02  0.10424374000E+02  0.47030580191E+01  0.28435968567E+02  0.51100000000E-03 0.  1.
        -12    1    3    3    0    0  0.42457743612E+01  0.48143842671E+01  0.38018116078E+01  0.74604736645E+01  0.00000000000E+00 0.  1.
</event>
<event>
 7    1  0.2751796E-010  0.4778727E+02  0.7816164E-02  0.1312668E+00
        -11   -1    0    0    0    0  0.00000000000E+00  0.00000000000E+00  0.45593999997E+02  0.45594000000E+02  0.51100000000E-03 0. -1.
         11   -1    0    0    0    0 -0.00000000000E+00 -0.00000000000E+00 -0.45593999997E+02  0.45594000000E+02  0.51100000000E-03 0.  1.
    9900012    2    1    2    0    0  0.31604879269E+02  0.18813317840E+02  0.23039406111E+02  0.47787267798E+02  0.19999985197E+02 0.  0.
         12    1    1    2    0    0 -0.31604879269E+02 -0.18813317840E+02 -0.23039406111E+02  0.43400732202E+02  0.00000000000E+00 0. -1.
         11    1    3    3    0    0  0.20376242782E+02  0.56316357725E+01  0.21811830162E+02  0.30375360519E+02  0.51100000000E-03 0. -1.
        -11    1    3    3    0    0  0.71010655511E+01  0.73304963488E+01  0.85478502371E+00  0.10241677908E+02  0.51100000000E-03 0.  1.
         12    1    3    3    0    0  0.41275709355E+01  0.58511857192E+01  0.37279092486E+00  0.71702293702E+01  0.00000000000E+00 0. -1.
</event>
<event>
 7    1  0.2751796E-010  0.4778727E+02  0.7816164E-02  0.1312668E+00
        -11   -1    0    0    0    0  0.00000000000E+00  0.00000000000E+00  0.45593999997E+02  0.45594000000E+02  0.51100000000E-03 0.  1.
         11   -1    0    0    0    0 -0.00000000000E+00 -0.00000000000E+00 -0.45593999997E+02  0.45594000000E+02  0.51100000000E-03 0. -1.
    9900012    2    1    2    0    0  0.22554866008E+02  0.30084328530E+02  0.21675671202E+02  0.47787268142E+02  0.19999986767E+02 0.  0.
         12    1    1    2    0    0 -0.22554866008E+02 -0.30084328530E+02 -0.21675671202E+02  0.43400731858E+02  0.00000000000E+00 0. -1.
         11    1    3    3    0    0  0.89134704940E+01  0.18291103614E+00  0.18826214971E+01  0.91119524065E+01  0.51100000000E-03 0.  1.
        -11    1    3    3    0    0  0.13122209643E+02  0.26430225184E+02  0.16244863921E+02  0.33684488912E+02  0.51100000000E-03 0. -1.
         12    1    3    3    0    0  0.51918587054E+00  0.34711923097E+01  0.35481857846E+01  0.49908268234E+01  0.00000000000E+00 0. -1.
</event>
<event>
 7    1  0.2751796E-010  0.4778727E+02  0.7816164E-02  0.1312668E+00
        -11   -1    0    0    0    0  0.00000000000E+00  0.00000000000E+00  0.45593999997E+02  0.45594000000E+02  0.51100000000E-03 0.  1.
         11   -1    0    0    0    0 -0.00000000000E+00 -0.00000000000E+00 -0.45593999997E+02  0.45594000000E+02  0.51100000000E-03 0. -1.
    9900012    2    1    2    0    0 -0.42135779855E+02 -0.52799395632E+01  0.89622375608E+01  0.47787269500E+02  0.19999992959E+02 0.  0.
         12    1    1    2    0    0  0.42135779855E+02  0.52799395632E+01 -0.89622375608E+01  0.43400730500E+02  0.00000000000E+00 0. -1.
         11    1    3    3    0    0 -0.31644620335E+02 -0.78406014120E+01  0.99121085219E+01  0.34075019036E+02  0.51100000000E-03 0. -1.
        -11    1    3    3    0    0 -0.53817022001E+01 -0.17949748718E+01  0.24581283300E+01  0.61828026419E+01  0.51100000000E-03 0.  1.
         12    1    3    3    0    0 -0.51094573200E+01  0.43556367206E+01 -0.34079992910E+01  0.75294478227E+01  0.00000000000E+00 0. -1.
</event>
<event>
 7    1  0.2751796E-010  0.4778727E+02  0.7816164E-02  0.1312668E+00
        -11   -1    0    0    0    0  0.00000000000E+00  0.00000000000E+00  0.45593999997E+02  0.45594000000E+02  0.51100000000E-03 0. -1.
         11   -1    0    0    0    0 -0.00000000000E+00 -0.00000000000E+00 -0.45593999997E+02  0.45594000000E+02  0.51100000000E-03 0.  1.
    9900012    2    1    2    0    0  0.30402937343E+02 -0.28197133216E+02 -0.12814303696E+02  0.47787270744E+02  0.19999998632E+02 0.  0.
         12    1    1    2    0    0 -0.30402937343E+02  0.28197133216E+02  0.12814303696E+02  0.43400729256E+02  0.00000000000E+00 0. -1.
         11    1    3    3    0    0  0.14902253480E+02 -0.40990853774E+01 -0.32794169072E+01  0.15799817569E+02  0.51100000000E-03 0. -1.
        -11    1    3    3    0    0  0.10279932460E+02 -0.22114640632E+02 -0.10054457213E+02  0.26378522548E+02  0.51100000000E-03 0.  1.
        -12    1    3    3    0    0  0.52207514025E+01 -0.19834072066E+01  0.51957042468E+00  0.56089306271E+01  0.00000000000E+00 0.  1.
</event>
<event>
 7    1  0.2751796E-010  0.4778727E+02  0.7816164E-02  0.1312668E+00
        -11   -1    0    0    0    0  0.00000000000E+00  0.00000000000E+00  0.45593999997E+02  0.45594000000E+02  0.51100000000E-03 0.  1.
         11   -1    0    0    0    0 -0.00000000000E+00 -0.00000000000E+00 -0.45593999997E+02  0.45594000000E+02  0.51100000000E-03 0. -1.
    9900012    2    1    2    0    0 -0.19221286846E+02  0.95718576183E+01  0.37716641204E+02  0.47787270167E+02  0.19999996001E+02 0.  0.
         12    1    1    2    0    0  0.19221286846E+02 -0.95718576183E+01 -0.37716641204E+02  0.43400729833E+02  0.00000000000E+00 0. -1.
         11    1    3    3    0    0 -0.92785736021E+01 -0.89316065624E+00  0.25487972376E+01  0.96636448438E+01  0.51100000000E-03 0. -1.
        -11    1    3    3    0    0 -0.31923152878E+01  0.54093671266E+01  0.14591635475E+02  0.15886093154E+02  0.51100000000E-03 0.  1.
         12    1    3    3    0    0 -0.67503979562E+01  0.50556511479E+01  0.20576208492E+02  0.22237532169E+02  0.00000000000E+00 0. -1.
</event>
<event>
 7    1  0.2751796E-010  0.4778727E+02  0.7816164E-02  0.1312668E+00
        -11   -1    0    0    0    0  0.00000000000E+00  0.00000000000E+00  0.45593999997E+02  0.45594000000E+02  0.51100000000E-03 0.  1.
         11   -1    0    0    0    0 -0.00000000000E+00 -0.00000000000E+00 -0.45593999997E+02  0.45594000000E+02  0.51100000000E-03 0. -1.
    9900012    2    1    2    0    0  0.22590097843E+01  0.23121790673E+02  0.36659281941E+02  0.47787270956E+02  0.19999999596E+02 0.  0.
         12    1    1    2    0    0 -0.22590097843E+01 -0.23121790673E+02 -0.36659281941E+02  0.43400729044E+02  0.00000000000E+00 0. -1.
         11    1    3    3    0    0 -0.29755361778E+01  0.15573739154E+02  0.12997945853E+02  0.20502238010E+02  0.51100000000E-03 0. -1.
        -11    1    3    3    0    0  0.77692866718E+01  0.74289655643E+01  0.21095264263E+02  0.23676180421E+02  0.51100000000E-03 0.  1.
         12    1    3    3    0    0 -0.25347407097E+01  0.11908595473E+00  0.25660718255E+01  0.36088525245E+01  0.00000000000E+00 0. -1.
</event>
<event>
 7    1  0.2751796E-010  0.4778728E+02  0.7816164E-02  0.1312668E+00
        -11   -1    0    0    0    0  0.00000000000E+00  0.00000000000E+00  0.45593999997E+02  0.45594000000E+02  0.51100000000E-03 0.  1.
         11   -1    0    0    0    0 -0.00000000000E+00 -0.00000000000E+00 -0.45593999997E+02  0.45594000000E+02  0.51100000000E-03 0. -1.
    9900012    2    1    2    0    0 -0.39021912638E+02 -0.93433224531E+01  0.16541329238E+02  0.47787275198E+02  0.20000018938E+02 0.  0.
         12    1    1    2    0    0  0.39021912638E+02  0.93433224531E+01 -0.16541329238E+02  0.43400724802E+02  0.00000000000E+00 0. -1.
         11    1    3    3    0    0 -0.23335527243E+02 -0.20179656152E+01  0.18844240017E+02  0.30062009231E+02  0.51100000000E-03 0. -1.
        -11    1    3    3    0    0 -0.12714174373E+02 -0.45933329499E+01 -0.14206562789E+01  0.13592909994E+02  0.51100000000E-03 0.  1.
         12    1    3    3    0    0 -0.29722110215E+01 -0.27320238880E+01 -0.88225450052E+00  0.41323559726E+01  0.00000000000E+00 0. -1.
</event>
<event>
 7    1  0.2751796E-010  0.4778727E+02  0.7816164E-02  0.1312668E+00
        -11   -1    0    0    0    0  0.00000000000E+00  0.00000000000E+00  0.45593999997E+02  0.45594000000E+02  0.51100000000E-03 0.  1.
         11   -1    0    0    0    0 -0.00000000000E+00 -0.00000000000E+00 -0.45593999997E+02  0.45594000000E+02  0.51100000000E-03 0. -1.
    9900012    2    1    2    0    0 -0.98338818004E+00 -0.25205324239E+02  0.35317818021E+02  0.47787266227E+02  0.19999978034E+02 0.  0.
         12    1    1    2    0    0  0.98338818004E+00  0.25205324239E+02 -0.35317818021E+02  0.43400733773E+02  0.00000000000E+00 0. -1.
         11    1    3    3    0    0  0.34980344572E+01 -0.15803664053E+02  0.28097371863E+02  0.32426136811E+02  0.51100000000E-03 0.  1.
        -11    1    3    3    0    0  0.61243090645E+00  0.96947192713E+00  0.27364805851E+01  0.29670311232E+01  0.51100000000E-03 0. -1.
         12    1    3    3    0    0 -0.50938535437E+01 -0.10371132113E+02  0.44839655722E+01  0.12394098293E+02  0.00000000000E+00 0. -1.
</event>
<event>
 7    1  0.2751796E-010  0.4778728E+02  0.7816164E-02  0.1312668E+00
        -11   -1    0    0    0    0  0.00000000000E+00  0.00000000000E+00  0.45593999997E+02  0.45594000000E+02  0.51100000000E-03 0. -1.
         11   -1    0    0    0    0 -0.00000000000E+00 -0.00000000000E+00 -0.45593999997E+02  0.45594000000E+02  0.51100000000E-03 0.  1.
    9900012    2    1    2    0    0  0.35210525926E+02  0.22212117779E+02 -0.12266346706E+02  0.47787279111E+02  0.20000036777E+02 0.  0.
         12    1    1    2    0    0 -0.35210525926E+02 -0.22212117779E+02  0.12266346706E+02  0.43400720889E+02  0.00000000000E+00 0. -1.
         11    1    3    3    0    0  0.12580754852E+02  0.69612874672E+01 -0.82564089266E+01  0.16580205200E+02  0.51100000000E-03 0. -1.
        -11    1    3    3    0    0  0.59970323560E+01  0.15903474591E+01 -0.71380414668E+01  0.94575492789E+01  0.51100000000E-03 0.  1.
         12    1    3    3    0    0  0.16632738719E+02  0.13660482852E+02  0.31281036875E+01  0.21749524632E+02  0.00000000000E+00 0. -1.
</event>
<event>
 7    1  0.2751796E-010  0.4778727E+02  0.7816164E-02  0.1312668E+00
        -11   -1    0    0    0    0  0.00000000000E+00  0.00000000000E+00  0.45593999997E+02  0.45594000000E+02  0.51100000000E-03 0. -1.
         11   -1    0    0    0    0 -0.00000000000E+00 -0.00000000000E+00 -0.45593999997E+02  0.45594000000E+02  0.51100000000E-03 0.  1.
    9900012    2    1    2    0    0  0.67675157336E+01  0.27873171373E+02 -0.32571621909E+02  0.47787268377E+02  0.19999987839E+02 0.  0.
         12    1    1    2    0    0 -0.67675157336E+01 -0.27873171373E+02  0.32571621909E+02  0.43400731623E+02  0.00000000000E+00 0. -1.
         11    1    3    3    0    0  0.11119885523E+02  0.24579529361E+02 -0.20125681571E+02  0.33657810039E+02  0.51100000000E-03 0. -1.
        -11    1    3    3    0    0 -0.25979292262E+01  0.34562287370E+01 -0.11099578388E+02  0.11911985308E+02  0.51100000000E-03 0.  1.
         12    1    3    3    0    0 -0.17544405636E+01 -0.16258672518E+00 -0.13463619503E+01  0.22174730293E+01  0.00000000000E+00 0. -1.
</event>
<event>
 7    1  0.2751796E-010  0.4778727E+02  0.7816164E-02  0.1312668E+00
        -11   -1    0    0    0    0  0.00000000000E+00  0.00000000000E+00  0.45593999997E+02  0.45594000000E+02  0.51100000000E-03 0.  1.
         11   -1    0    0    0    0 -0.00000000000E+00 -0.00000000000E+00 -0.45593999997E+02  0.45594000000E+02  0.51100000000E-03 0. -1.
    9900012    2    1    2    0    0  0.38365719205E+02  0.32030029446E+01  0.20035855865E+02  0.47787272377E+02  0.20000006074E+02 0.  0.
         12    1    1    2    0    0 -0.38365719205E+02 -0.32030029446E+01 -0.20035855865E+02  0.43400727623E+02  0.00000000000E+00 0. -1.
         11    1    3    3    0    0  0.78558931817E+00 -0.30250189863E+01  0.23321688411E+00  0.31340518216E+01  0.51100000000E-03 0. -1.
        -11    1    3    3    0    0  0.24167551701E+02  0.86595967782E+01  0.16843729364E+02  0.30704566285E+02  0.51100000000E-03 0.  1.
        -12    1    3    3    0    0  0.13412578186E+02 -0.24315748473E+01  0.29589096166E+01  0.13948654270E+02  0.00000000000E+00 0.  1.
</event>
<event>
 7    1  0.2751796E-010  0.4778727E+02  0.7816164E-02  0.1312668E+00
        -11   -1    0    0    0    0  0.00000000000E+00  0.00000000000E+00  0.45593999997E+02  0.45594000000E+02  0.51100000000E-03 0.  1.
         11   -1    0    0    0    0 -0.00000000000E+00 -0.00000000000E+00 -0.45593999997E+02  0.45594000000E+02  0.51100000000E-03 0. -1.
    9900012    2    1    2    0    0  0.31020175026E+02 -0.23983834991E+02  0.18605044787E+02  0.47787270847E+02  0.19999999100E+02 0.  0.
         12    1    1    2    0    0 -0.31020175026E+02  0.23983834991E+02 -0.18605044787E+02  0.43400729153E+02  0.00000000000E+00 0. -1.
         11    1    3    3    0    0  0.21730779471E+02 -0.25551453308E+02  0.15050388084E+02  0.36764353990E+02  0.51100000000E-03 0.  1.
        -11    1    3    3    0    0  0.69501361257E+01 -0.19026489626E+00  0.79031467480E+00  0.69975131613E+01  0.51100000000E-03 0. -1.
        -12    1    3    3    0    0  0.23392594290E+01  0.17578832130E+01  0.27643420283E+01  0.40254036960E+01  0.00000000000E+00 0.  1.
</event>
<event>
 7    1  0.2751796E-010  0.4778727E+02  0.7816164E-02  0.1312668E+00
        -11   -1    0    0    0    0  0.00000000000E+00  0.00000000000E+00  0.45593999997E+02  0.45594000000E+02  0.51100000000E-03 0.  1.
         11   -1    0    0    0    0 -0.00000000000E+00 -0.00000000000E+00 -0.45593999997E+02  0.45594000000E+02  0.51100000000E-03 0. -1.
    9900012    2    1    2    0    0 -0.90446622987E+01 -0.24853173517E+02  0.34411292741E+02  0.47787271687E+02  0.20000002930E+02 0.  0.
         12    1    1    2    0    0  0.90446622987E+01  0.24853173517E+02 -0.34411292741E+02  0.43400728313E+02  0.00000000000E+00 0. -1.
         11    1    3    3    0    0  0.21927315830E+01 -0.42240770131E+01  0.13250657551E+00  0.47611402691E+01  0.51100000000E-03 0. -1.
        -11    1    3    3    0    0 -0.96198852110E+01 -0.21800999963E+02  0.32794026815E+02  0.40537315968E+02  0.51100000000E-03 0.  1.
        -12    1    3    3    0    0 -0.16175086708E+01  0.11719034589E+01  0.14847593502E+01  0.24888154502E+01  0.00000000000E+00 0.  1.
</event>
<event>
 7    1  0.2751796E-010  0.4778727E+02  0.7816164E-02  0.1312668E+00
        -11   -1    0    0    0    0  0.00000000000E+00  0.00000000000E+00  0.45593999997E+02  0.45594000000E+02  0.51100000000E-03 0. -1.
         11   -1    0    0    0    0 -0.00000000000E+00 -0.00000000000E+00 -0.45593999997E+02  0.45594000000E+02  0.51100000000E-03 0.  1.
    9900012    2    1    2    0    0 -0.37827617833E+02  0.21275128616E+02  0.25235971259E+00  0.47787268970E+02  0.19999990540E+02 0.  0.
         12    1    1    2    0    0  0.37827617833E+02 -0.21275128616E+02 -0.25235971259E+00  0.43400731030E+02  0.00000000000E+00 0. -1.
         11    1    3    3    0    0 -0.21433189057E+02  0.15389168879E+02  0.94276059901E+01  0.28019419460E+02  0.51100000000E-03 0. -1.
        -11    1    3    3    0    0 -0.70273493981E+01  0.30699246825E+01 -0.48451568510E+01  0.90710320411E+01  0.51100000000E-03 0.  1.
         12    1    3    3    0    0 -0.93670793784E+01  0.28160350548E+01 -0.43300894265E+01  0.10696817468E+02  0.00000000000E+00 0. -1.
</event>
<event>
 7    1  0.2751796E-010  0.4778727E+02  0.7816164E-02  0.1312668E+00
        -11   -1    0    0    0    0  0.00000000000E+00  0.00000000000E+00  0.45593999997E+02  0.45594000000E+02  0.51100000000E-03 0.  1.
         11   -1    0    0    0    0 -0.00000000000E+00 -0.00000000000E+00 -0.45593999997E+02  0.45594000000E+02  0.51100000000E-03 0. -1.
    9900012    2    1    2    0    0  0.87062478405E+01 -0.12692755677E+02  0.40579780002E+02  0.47787270247E+02  0.19999996362E+02 0.  0.
         12    1    1    2    0    0 -0.87062478405E+01  0.12692755677E+02 -0.40579780002E+02  0.43400729753E+02  0.00000000000E+00 0. -1.
         11    1    3    3    0    0 -0.14546028035E+01  0.22151835587E+01  0.81578832354E+00  0.27727997340E+01  0.51100000000E-03 0. -1.
        -11    1    3    3    0    0 -0.23056705760E+01 -0.35437961929E+01  0.81752722564E+01  0.92037864485E+01  0.51100000000E-03 0.  1.
         12    1    3    3    0    0  0.12466521220E+02 -0.11364143043E+02  0.31588719422E+02  0.35810684064E+02  0.00000000000E+00 0. -1.
</event>
<event>
 7    1  0.2751796E-010  0.4778726E+02  0.7816164E-02  0.1312668E+00
        -11   -1    0    0    0    0  0.00000000000E+00  0.00000000000E+00  0.45593999997E+02  0.45594000000E+02  0.51100000000E-03 0. -1.
         11   -1    0    0    0    0 -0.00000000000E+00 -0.00000000000E+00 -0.45593999997E+02  0.45594000000E+02  0.51100000000E-03 0.  1.
    9900012    2    1    2    0    0 -0.24424026320E+02  0.28652214071E+02 -0.21590311404E+02  0.47787262917E+02  0.19999962943E+02 0.  0.
         12    1    1    2    0    0  0.24424026320E+02 -0.28652214071E+02  0.21590311404E+02  0.43400737083E+02  0.00000000000E+00 0. -1.
         11    1    3    3    0    0 -0.19745648490E+02  0.10430788786E+02 -0.56459802795E+01  0.23034085234E+02  0.51100000000E-03 0. -1.
        -11    1    3    3    0    0 -0.35854096143E+01  0.12583606836E+02 -0.98357389088E+01  0.16368997625E+02  0.51100000000E-03 0.  1.
         12    1    3    3    0    0 -0.10929682151E+01  0.56378184496E+01 -0.61085922155E+01  0.83841800580E+01  0.00000000000E+00 0. -1.
</event>
<event>
 7    1  0.2751796E-010  0.4778727E+02  0.7816164E-02  0.1312668E+00
        -11   -1    0    0    0    0  0.00000000000E+00  0.00000000000E+00  0.45593999997E+02  0.45594000000E+02  0.51100000000E-03 0.  1.
         11   -1    0    0    0    0 -0.00000000000E+00 -0.00000000000E+00 -0.45593999997E+02  0.45594000000E+02  0.51100000000E-03 0. -1.
    9900012    2    1    2    0    0  0.41360000869E+02 -0.78400691276E+01  0.10559676144E+02  0.47787272862E+02  0.20000008289E+02 0.  0.
         12    1    1    2    0    0 -0.41360000869E+02  0.78400691276E+01 -0.10559676144E+02  0.43400727138E+02  0.00000000000E+00 0. -1.
         11    1    3    3    0    0  0.17739785417E+02 -0.22953374108E+01  0.12902985196E+02  0.22055738203E+02  0.51100000000E-03 0.  1.
        -11    1    3    3    0    0  0.15932667519E-01 -0.17017078644E+01 -0.31403482605E+00  0.17305148478E+01  0.51100000000E-03 0. -1.
         12    1    3    3    0    0  0.23604282785E+02 -0.38430238525E+01 -0.20292742253E+01  0.24001019812E+02  0.00000000000E+00 0. -1.
</event>
<event>
 7    1  0.2751796E-010  0.4778727E+02  0.7816164E-02  0.1312668E+00
        -11   -1    0    0    0    0  0.00000000000E+00  0.00000000000E+00  0.45593999997E+02  0.45594000000E+02  0.51100000000E-03 0. -1.
         11   -1    0    0    0    0 -0.00000000000E+00 -0.00000000000E+00 -0.45593999997E+02  0.45594000000E+02  0.51100000000E-03 0.  1.
    9900012    2    1    2    0    0  0.88045893857E+01 -0.41910154675E+02 -0.70456707270E+01  0.47787270339E+02  0.19999996785E+02 0.  0.
         12    1    1    2    0    0 -0.88045893857E+01  0.41910154675E+02  0.70456707270E+01  0.43400729661E+02  0.00000000000E+00 0. -1.
         11    1    3    3    0    0  0.80294117960E+01 -0.21573084713E+02 -0.33014032717E+01  0.23254434021E+02  0.51100000000E-03 0. -1.
        -11    1    3    3    0    0 -0.27114825724E+01 -0.15711900875E+01 -0.44383218546E+01  0.54331829692E+01  0.51100000000E-03 0.  1.
        -12    1    3    3    0    0  0.34866601621E+01 -0.18765879874E+02  0.69405439929E+00  0.19099653349E+02  0.00000000000E+00 0.  1.
</event>
<event>
 7    1  0.2751796E-010  0.4778727E+02  0.7816164E-02  0.1312668E+00
        -11   -1    0    0    0    0  0.00000000000E+00  0.00000000000E+00  0.45593999997E+02  0.45594000000E+02  0.51100000000E-03 0.  1.
         11   -1    0    0    0    0 -0.00000000000E+00 -0.00000000000E+00 -0.45593999997E+02  0.45594000000E+02  0.51100000000E-03 0. -1.
    9900012    2    1    2    0    0  0.43944906219E+01  0.98416487552E+01  0.42041095765E+02  0.47787270384E+02  0.19999996990E+02 0.  0.
         12    1    1    2    0    0 -0.43944906219E+01 -0.98416487552E+01 -0.42041095765E+02  0.43400729616E+02  0.00000000000E+00 0. -1.
         11    1    3    3    0    0  0.72180525677E+01  0.53429292722E+01  0.11400645337E+02  0.14512818143E+02  0.51100000000E-03 0. -1.
        -11    1    3    3    0    0 -0.62091587704E+01  0.39015499363E+01  0.10289981464E+02  0.12635642577E+02  0.51100000000E-03 0.  1.
        -12    1    3    3    0    0  0.33855968246E+01  0.59716954667E+00  0.20350468964E+02  0.20638809665E+02  0.00000000000E+00 0.  1.
</event>
<event>
 7    1  0.2751796E-010  0.4778727E+02  0.7816164E-02  0.1312668E+00
        -11   -1    0    0    0    0  0.00000000000E+00  0.00000000000E+00  0.45593999997E+02  0.45594000000E+02  0.51100000000E-03 0.  1.
         11   -1    0    0    0    0 -0.00000000000E+00 -0.00000000000E+00 -0.45593999997E+02  0.45594000000E+02  0.51100000000E-03 0. -1.
    9900012    2    1    2    0    0  0.25707548988E+02 -0.40203920561E+00  0.34965462793E+02  0.47787270758E+02  0.19999998692E+02 0.  0.
         12    1    1    2    0    0 -0.25707548988E+02  0.40203920561E+00 -0.34965462793E+02  0.43400729242E+02  0.00000000000E+00 0. -1.
         11    1    3    3    0    0  0.44049216392E+01 -0.39403379022E+01  0.17184923892E+02  0.18172815051E+02  0.51100000000E-03 0. -1.
        -11    1    3    3    0    0 -0.86346555427E+00  0.10767991311E+01  0.10534103632E+01  0.17363014676E+01  0.51100000000E-03 0.  1.
         12    1    3    3    0    0  0.22166092903E+02  0.24614995655E+01  0.16727128538E+02  0.27878154239E+02  0.00000000000E+00 0. -1.
</event>
<event>
 7    1  0.2751796E-010  0.4778726E+02  0.7816164E-02  0.1312668E+00
        -11   -1    0    0    0    0  0.00000000000E+00  0.00000000000E+00  0.45593999997E+02  0.45594000000E+02  0.51100000000E-03 0. -1.
         11   -1    0    0    0    0 -0.00000000000E+00 -0.00000000000E+00 -0.45593999997E+02  0.45594000000E+02  0.51100000000E-03 0.  1.
    9900012    2    1    2    0    0 -0.42538889941E+02  0.85850031975E+01  0.60363640490E+00  0.47787264819E+02  0.19999971616E+02 0.  0.
         12    1    1    2    0    0  0.42538889941E+02 -0.85850031975E+01 -0.60363640490E+00  0.43400735181E+02  0.00000000000E+00 0. -1.
         11    1    3    3    0    0 -0.27172648673E+02  0.11502692281E+02 -0.91211592035E+00  0.29521123307E+02  0.51100000000E-03 0. -1.
        -11    1    3    3    0    0 -0.18526960318E-01 -0.20403455377E+01 -0.15850707128E+01  0.25837574552E+01  0.51100000000E-03 0.  1.
         12    1    3    3    0    0 -0.15347714308E+02 -0.87734354603E+00  0.31008230381E+01  0.15682384057E+02  0.00000000000E+00 0. -1.
</event>
<event>
 7    1  0.2751796E-010  0.4778727E+02  0.7816164E-02  0.1312668E+00
        -11   -1    0    0    0    0  0.00000000000E+00  0.00000000000E+00  0.45593999997E+02  0.45594000000E+02  0.51100000000E-03 0.  1.
         11   -1    0    0    0    0 -0.00000000000E+00 -0.00000000000E+00 -0.45593999997E+02  0.45594000000E+02  0.51100000000E-03 0. -1.
    9900012    2    1    2    0    0 -0.40984125769E+02 -0.57684799524E+01  0.13063284207E+02  0.47787270510E+02  0.19999997563E+02 0.  0.
         12    1    1    2    0    0  0.40984125769E+02  0.57684799524E+01 -0.13063284207E+02  0.43400729490E+02  0.00000000000E+00 0. -1.
         11    1    3    3    0    0 -0.56510990913E+00 -0.38280550495E+01 -0.21123600823E+00  0.38753032892E+01  0.51100000000E-03 0. -1.
        -11    1    3    3    0    0 -0.14059524346E+02 -0.57602026073E+01  0.40396302656E+01  0.15721602076E+02  0.51100000000E-03 0.  1.
         12    1    3    3    0    0 -0.26359491514E+02  0.38197777045E+01  0.92348899494E+01  0.28190365144E+02  0.00000000000E+00 0. -1.
</event>
<event>
 7    1  0.2751796E-010  0.4778727E+02  0.7816164E-02  0.1312668E+00
        -11   -1    0    0    0    0  0.00000000000E+00  0.00000000000E+00  0.45593999997E+02  0.45594000000E+02  0.51100000000E-03 0.  1.
         11   -1    0    0    0    0 -0.00000000000E+00 -0.00000000000E+00 -0.45593999997E+02  0.45594000000E+02  0.51100000000E-03 0. -1.
    9900012    2    1    2    0    0  0.29242298928E+02 -0.10486051134E+02  0.30307653347E+02  0.47787272283E+02  0.20000005647E+02 0.  0.
         12    1    1    2    0    0 -0.29242298928E+02  0.10486051134E+02 -0.30307653347E+02  0.43400727717E+02  0.00000000000E+00 0. -1.
         11    1    3    3    0    0  0.52942538094E+01  0.10704323988E+00 -0.16932347923E+01  0.55594627417E+01  0.51100000000E-03 0. -1.
        -11    1    3    3    0    0  0.23999328493E+02 -0.11325672969E+02  0.29778904292E+02  0.39887614336E+02  0.51100000000E-03 0.  1.
        -12    1    3    3    0    0 -0.51283373883E-01  0.73257859571E+00  0.22219838472E+01  0.23401952057E+01  0.00000000000E+00 0.  1.
</event>
<event>
 7    1  0.2751796E-010  0.4778724E+02  0.7816164E-02  0.1312668E+00
        -11   -1    0    0    0    0  0.00000000000E+00  0.00000000000E+00  0.45593999997E+02  0.45594000000E+02  0.51100000000E-03 0. -1.
         11   -1    0    0    0    0 -0.00000000000E+00 -0.00000000000E+00 -0.45593999997E+02  0.45594000000E+02  0.51100000000E-03 0.  1.
    9900012    2    1    2    0    0 -0.83665363394E+01 -0.41044584887E+02 -0.11356472880E+02  0.47787235547E+02  0.19999838152E+02 0.  0.
         12    1    1    2    0    0  0.83665363394E+01  0.41044584887E+02  0.11356472880E+02  0.43400764453E+02  0.00000000000E+00 0. -1.
         11    1    3    3    0    0  0.32854283779E+01 -0.10037857980E+02 -0.24012462615E+01  0.10831371858E+02  0.51100000000E-03 0. -1.
        -11    1    3    3    0    0 -0.10850675006E+02 -0.28087640358E+02 -0.12227050262E+02  0.32498514541E+02  0.51100000000E-03 0.  1.
        -12    1    3    3    0    0 -0.80128971088E+00 -0.29190865481E+01  0.32718236433E+01  0.44573491482E+01  0.00000000000E+00 0.  1.
</event>
<event>
 7    1  0.2751796E-010  0.4778727E+02  0.7816164E-02  0.1312668E+00
        -11   -1    0    0    0    0  0.00000000000E+00  0.00000000000E+00  0.45593999997E+02  0.45594000000E+02  0.51100000000E-03 0. -1.
         11   -1    0    0    0    0 -0.00000000000E+00 -0.00000000000E+00 -0.45593999997E+02  0.45594000000E+02  0.51100000000E-03 0.  1.
    9900012    2    1    2    0    0  0.36106801583E+02 -0.17951210227E+02 -0.16052296739E+02  0.47787270746E+02  0.19999998639E+02 0.  0.
         12    1    1    2    0    0 -0.36106801583E+02  0.17951210227E+02  0.16052296739E+02  0.43400729254E+02  0.00000000000E+00 0. -1.
         11    1    3    3    0    0  0.29256902811E+02 -0.18778905277E+02 -0.87790037749E+01  0.35856443676E+02  0.51100000000E-03 0.  1.
        -11    1    3    3    0    0 -0.99970619347E-01  0.77296110368E+00 -0.43023486804E+01  0.43723754895E+01  0.51100000000E-03 0. -1.
         12    1    3    3    0    0  0.69498693913E+01  0.54733946757E-01 -0.29709442836E+01  0.75584515806E+01  0.00000000000E+00 0. -1.
</event>
<event>
 7    1  0.2751796E-010  0.4778728E+02  0.7816164E-02  0.1312668E+00
        -11   -1    0    0    0    0  0.00000000000E+00  0.00000000000E+00  0.45593999997E+02  0.45594000000E+02  0.51100000000E-03 0.  1.
         11   -1    0    0    0    0 -0.00000000000E+00 -0.00000000000E+00 -0.45593999997E+02  0.45594000000E+02  0.51100000000E-03 0. -1.
    9900012    2    1    2    0    0 -0.12535449638E+02  0.20134436773E+02  0.36346798484E+02  0.47787276483E+02  0.20000024795E+02 0.  0.
         12    1    1    2    0    0  0.12535449638E+02 -0.20134436773E+02 -0.36346798484E+02  0.43400723517E+02  0.00000000000E+00 0. -1.
         11    1    3    3    0    0 -0.13264076004E+00 -0.31018048696E+01  0.73982209470E+01  0.80232450082E+01  0.51100000000E-03 0. -1.
        -11    1    3    3    0    0 -0.93209386149E+01  0.12622570172E+02  0.13090107572E+02  0.20434287140E+02  0.51100000000E-03 0.  1.
         12    1    3    3    0    0 -0.30818702634E+01  0.10613671471E+02  0.15858469965E+02  0.19329744335E+02  0.00000000000E+00 0. -1.
</event>
<event>
 7    1  0.2751796E-010  0.4778727E+02  0.7816164E-02  0.1312668E+00
        -11   -1    0    0    0    0  0.00000000000E+00  0.00000000000E+00  0.45593999997E+02  0.45594000000E+02  0.51100000000E-03 0.  1.
         11   -1    0    0    0    0 -0.00000000000E+00 -0.00000000000E+00 -0.45593999997E+02  0.45594000000E+02  0.51100000000E-03 0. -1.
    9900012    2    1    2    0    0 -0.17851084277E+02 -0.42515751860E+01  0.39330478936E+02  0.47787266426E+02  0.19999978943E+02 0.  0.
         12    1    1    2    0    0  0.17851084277E+02  0.42515751860E+01 -0.39330478936E+02  0.43400733574E+02  0.00000000000E+00 0. -1.
         11    1    3    3    0    0  0.38131379057E+01  0.66412228185E+00  0.98597878595E+01  0.10592284739E+02  0.51100000000E-03 0. -1.
        -11    1    3    3    0    0 -0.19118734771E+02 -0.47077181948E+01  0.23230260035E+02  0.30452152820E+02  0.51100000000E-03 0.  1.
        -12    1    3    3    0    0 -0.25454874117E+01 -0.20797927307E+00  0.62404310416E+01  0.67428288668E+01  0.00000000000E+00 0.  1.
</event>
<event>
 7    1  0.2751796E-010  0.4778727E+02  0.7816164E-02  0.1312668E+00
        -11   -1    0    0    0    0  0.00000000000E+00  0.00000000000E+00  0.45593999997E+02  0.45594000000E+02  0.51100000000E-03 0. -1.
         11   -1    0    0    0    0 -0.00000000000E+00 -0.00000000000E+00 -0.45593999997E+02  0.45594000000E+02  0.51100000000E-03 0.  1.
    9900012    2    1    2    0    0 -0.22221922731E+02  0.34470112356E+02 -0.14199325767E+02  0.47787270191E+02  0.19999996109E+02 0.  0.
         12    1    1    2    0    0  0.22221922731E+02 -0.34470112356E+02  0.14199325767E+02  0.43400729809E+02  0.00000000000E+00 0. -1.
         11    1    3    3    0    0 -0.39604842635E+01  0.20065916099E+02 -0.11232146873E+02  0.23334256966E+02  0.51100000000E-03 0. -1.
        -11    1    3    3    0    0 -0.10169296822E+02  0.10908073915E+02  0.64383031180E+00  0.14926995415E+02  0.51100000000E-03 0.  1.
         12    1    3    3    0    0 -0.80921416458E+01  0.34961223420E+01 -0.36110092051E+01  0.95260178105E+01  0.00000000000E+00 0. -1.
</event>
<event>
 7    1  0.2751796E-010  0.4778727E+02  0.7816164E-02  0.1312668E+00
        -11   -1    0    0    0    0  0.00000000000E+00  0.00000000000E+00  0.45593999997E+02  0.45594000000E+02  0.51100000000E-03 0.  1.
         11   -1    0    0    0    0 -0.00000000000E+00 -0.00000000000E+00 -0.45593999997E+02  0.45594000000E+02  0.51100000000E-03 0. -1.
    9900012    2    1    2    0    0 -0.16504248666E+02 -0.37080643606E+02 -0.15370715043E+02  0.47787271490E+02  0.20000002030E+02 0.  0.
         12    1    1    2    0    0  0.16504248666E+02  0.37080643606E+02  0.15370715043E+02  0.43400728510E+02  0.00000000000E+00 0. -1.
         11    1    3    3    0    0 -0.63167657202E+01 -0.34545800417E+01  0.67001956189E+00  0.72308076246E+01  0.51100000000E-03 0. -1.
        -11    1    3    3    0    0 -0.97641284125E+01 -0.34621250519E+02 -0.14765292644E+02  0.38884226343E+02  0.51100000000E-03 0.  1.
        -12    1    3    3    0    0 -0.42335453369E+00  0.99518695456E+00 -0.12754419604E+01  0.16722375220E+01  0.00000000000E+00 0.  1.
</event>
<event>
 7    1  0.2751796E-010  0.4778727E+02  0.7816164E-02  0.1312668E+00
        -11   -1    0    0    0    0  0.00000000000E+00  0.00000000000E+00  0.45593999997E+02  0.45594000000E+02  0.51100000000E-03 0.  1.
         11   -1    0    0    0    0 -0.00000000000E+00 -0.00000000000E+00 -0.45593999997E+02  0.45594000000E+02  0.51100000000E-03 0. -1.
    9900012    2    1    2    0    0 -0.13831440034E+02  0.34049447592E+02  0.23085705306E+02  0.47787269543E+02  0.19999993156E+02 0.  0.
         12    1    1    2    0    0  0.13831440034E+02 -0.34049447592E+02 -0.23085705306E+02  0.43400730457E+02  0.00000000000E+00 0. -1.
         11    1    3    3    0    0 -0.64387534119E+01  0.27287669308E+02  0.18539237865E+02  0.33612167181E+02  0.51100000000E-03 0. -1.
        -11    1    3    3    0    0 -0.31049915063E+01  0.63674651360E+01  0.63436188314E+01  0.95093156774E+01  0.51100000000E-03 0.  1.
         12    1    3    3    0    0 -0.42876951156E+01  0.39431314792E+00 -0.17971513908E+01  0.46657866844E+01  0.00000000000E+00 0. -1.
</event>
<event>
 7    1  0.2751796E-010  0.4778727E+02  0.7816164E-02  0.1312668E+00
        -11   -1    0    0    0    0  0.00000000000E+00  0.00000000000E+00  0.45593999997E+02  0.45594000000E+02  0.51100000000E-03 0.  1.
         11   -1    0    0    0    0 -0.00000000000E+00 -0.00000000000E+00 -0.45593999997E+02  0.45594000000E+02  0.51100000000E-03 0. -1.
    9900012    2    1    2    0    0  0.33695757906E+01 -0.11209082614E+02  0.41792650060E+02  0.47787272205E+02  0.20000005292E+02 0.  0.
         12    1    1    2    0    0 -0.33695757906E+01  0.11209082614E+02 -0.41792650060E+02  0.43400727795E+02  0.00000000000E+00 0. -1.
         11    1    3    3    0    0  0.86243778852E+01 -0.11672059409E+02  0.22147462614E+02  0.26478802187E+02  0.51100000000E-03 0. -1.
        -11    1    3    3    0    0 -0.16818405100E+01  0.46634904105E+00  0.16366059751E+02  0.16458857219E+02  0.51100000000E-03 0.  1.
         12    1    3    3    0    0 -0.35729615846E+01 -0.33722454240E-02  0.32791276952E+01  0.48496127988E+01  0.00000000000E+00 0. -1.
</event>
<event>
 7    1  0.2751796E-010  0.4778727E+02  0.7816164E-02  0.1312668E+00
        -11   -1    0    0    0    0  0.00000000000E+00  0.00000000000E+00  0.45593999997E+02  0.45594000000E+02  0.51100000000E-03 0.  1.
         11   -1    0    0    0    0 -0.00000000000E+00 -0.00000000000E+00 -0.45593999997E+02  0.45594000000E+02  0.51100000000E-03 0. -1.
    9900012    2    1    2    0    0 -0.42440257342E+02  0.85732580707E+01  0.29911796885E+01  0.47787270132E+02  0.19999995838E+02 0.  0.
         12    1    1    2    0    0  0.42440257342E+02 -0.85732580707E+01 -0.29911796885E+01  0.43400729868E+02  0.00000000000E+00 0. -1.
         11    1    3    3    0    0 -0.27496153767E+02  0.85451362604E+01  0.66994333244E+01  0.29562480153E+02  0.51100000000E-03 0. -1.
        -11    1    3    3    0    0 -0.59708135456E+01  0.10086647435E+01  0.32083604058E+01  0.68528531077E+01  0.51100000000E-03 0.  1.
         12    1    3    3    0    0 -0.89732900292E+01 -0.98054293319E+00 -0.69166140416E+01  0.11371936871E+02  0.00000000000E+00 0. -1.
</event>
<event>
 7    1  0.2751796E-010  0.4778727E+02  0.7816164E-02  0.1312668E+00
        -11   -1    0    0    0    0  0.00000000000E+00  0.00000000000E+00  0.45593999997E+02  0.45594000000E+02  0.51100000000E-03 0.  1.
         11   -1    0    0    0    0 -0.00000000000E+00 -0.00000000000E+00 -0.45593999997E+02  0.45594000000E+02  0.51100000000E-03 0. -1.
    9900012    2    1    2    0    0  0.36867769962E+02  0.17007823877E+02  0.15333780312E+02  0.47787270125E+02  0.19999995809E+02 0.  0.
         12    1    1    2    0    0 -0.36867769962E+02 -0.17007823877E+02 -0.15333780312E+02  0.43400729875E+02  0.00000000000E+00 0. -1.
         11    1    3    3    0    0  0.12704142182E+02  0.31677391206E+01  0.29321876937E+01  0.13417433609E+02  0.51100000000E-03 0. -1.
        -11    1    3    3    0    0  0.25286981327E+02  0.15584658196E+02  0.12639843672E+02  0.32281242913E+02  0.51100000000E-03 0.  1.
        -12    1    3    3    0    0 -0.11233535466E+01 -0.17445734395E+01 -0.23825105372E+00  0.20885936036E+01  0.00000000000E+00 0.  1.
</event>
<event>
 7    1  0.2751796E-010  0.4778728E+02  0.7816164E-02  0.1312668E+00
        -11   -1    0    0    0    0  0.00000000000E+00  0.00000000000E+00  0.45593999997E+02  0.45594000000E+02  0.51100000000E-03 0.  1.
         11   -1    0    0    0    0 -0.00000000000E+00 -0.00000000000E+00 -0.45593999997E+02  0.45594000000E+02  0.51100000000E-03 0. -1.
    9900012    2    1    2    0    0 -0.54616053706E+00  0.22327769830E+02  0.37212837304E+02  0.47787275845E+02  0.20000021889E+02 0.  0.
         12    1    1    2    0    0  0.54616053706E+00 -0.22327769830E+02 -0.37212837304E+02  0.43400724155E+02  0.00000000000E+00 0. -1.
         11    1    3    3    0    0 -0.20062373011E+01  0.18428989174E+02  0.14246340555E+02  0.23379710211E+02  0.51100000000E-03 0. -1.
        -11    1    3    3    0    0 -0.13639703804E+01  0.39826915665E+01  0.68118258114E+01  0.80076974505E+01  0.51100000000E-03 0.  1.
         12    1    3    3    0    0  0.28240471445E+01 -0.83910911052E-01  0.16154670938E+02  0.16399868183E+02  0.00000000000E+00 0. -1.
</event>
<event>
 7    1  0.2751796E-010  0.4778728E+02  0.7816164E-02  0.1312668E+00
        -11   -1    0    0    0    0  0.00000000000E+00  0.00000000000E+00  0.45593999997E+02  0.45594000000E+02  0.51100000000E-03 0.  1.
         11   -1    0    0    0    0 -0.00000000000E+00 -0.00000000000E+00 -0.45593999997E+02  0.45594000000E+02  0.51100000000E-03 0. -1.
    9900012    2    1    2    0    0 -0.26974511548E+02 -0.58712046837E+01  0.33489214810E+02  0.47787276201E+02  0.20000023511E+02 0.  0.
         12    1    1    2    0    0  0.26974511548E+02  0.58712046837E+01 -0.33489214810E+02  0.43400723799E+02  0.00000000000E+00 0. -1.
         11    1    3    3    0    0 -0.19238114264E+01  0.42674021472E+01  0.22301901842E+01  0.51851248788E+01  0.51100000000E-03 0. -1.
        -11    1    3    3    0    0 -0.13617352832E+02 -0.73150142034E+01  0.24655050936E+02  0.29100056149E+02  0.51100000000E-03 0.  1.
         12    1    3    3    0    0 -0.11433347290E+02 -0.28235926275E+01  0.66039736896E+01  0.13502095173E+02  0.00000000000E+00 0. -1.
</event>
<event>
 7    1  0.2751796E-010  0.4778727E+02  0.7816164E-02  0.1312668E+00
        -11   -1    0    0    0    0  0.00000000000E+00  0.00000000000E+00  0.45593999997E+02  0.45594000000E+02  0.51100000000E-03 0. -1.
         11   -1    0    0    0    0 -0.00000000000E+00 -0.00000000000E+00 -0.45593999997E+02  0.45594000000E+02  0.51100000000E-03 0.  1.
    9900012    2    1    2    0    0  0.10331830470E+02 -0.36509570827E+02 -0.21069593574E+02  0.47787271248E+02  0.20000000927E+02 0.  0.
         12    1    1    2    0    0 -0.10331830470E+02  0.36509570827E+02  0.21069593574E+02  0.43400728752E+02  0.00000000000E+00 0. -1.
         11    1    3    3    0    0 -0.37056210008E+01 -0.54869158108E+01 -0.31916978076E+01  0.73501569556E+01  0.51100000000E-03 0. -1.
        -11    1    3    3    0    0  0.12222085894E+02 -0.31697896026E+02 -0.18089832185E+02  0.38488673981E+02  0.51100000000E-03 0.  1.
        -12    1    3    3    0    0  0.18153655770E+01  0.67524101004E+00  0.21193641840E+00  0.19484403109E+01  0.00000000000E+00 0.  1.
</event>
<event>
 7    1  0.2751796E-010  0.4778727E+02  0.7816164E-02  0.1312668E+00
        -11   -1    0    0    0    0  0.00000000000E+00  0.00000000000E+00  0.45593999997E+02  0.45594000000E+02  0.51100000000E-03 0.  1.
         11   -1    0    0    0    0 -0.00000000000E+00 -0.00000000000E+00 -0.45593999997E+02  0.45594000000E+02  0.51100000000E-03 0. -1.
    9900012    2    1    2    0    0 -0.25652546523E+02 -0.33876767777E+02  0.88280482781E+01  0.47787274493E+02  0.20000015723E+02 0.  0.
         12    1    1    2    0    0  0.25652546523E+02  0.33876767777E+02 -0.88280482781E+01  0.43400725507E+02  0.00000000000E+00 0. -1.
         11    1    3    3    0    0 -0.82318585757E+01 -0.14960093538E+02  0.78531233573E+01  0.18794665227E+02  0.51100000000E-03 0. -1.
        -11    1    3    3    0    0 -0.93406557602E+01 -0.10925310447E+01  0.46887291623E+00  0.94160138162E+01  0.51100000000E-03 0.  1.
        -12    1    3    3    0    0 -0.80800321867E+01 -0.17824143194E+02  0.50605200451E+00  0.19576595449E+02  0.00000000000E+00 0.  1.
</event>
<event>
 7    1  0.2751796E-010  0.4778727E+02  0.7816164E-02  0.1312668E+00
        -11   -1    0    0    0    0  0.00000000000E+00  0.00000000000E+00  0.45593999997E+02  0.45594000000E+02  0.51100000000E-03 0.  1.
         11   -1    0    0    0    0 -0.00000000000E+00 -0.00000000000E+00 -0.45593999997E+02  0.45594000000E+02  0.51100000000E-03 0. -1.
    9900012    2    1    2    0    0 -0.10109261626E+02  0.35442185558E+02  0.22918929540E+02  0.47787273980E+02  0.20000013386E+02 0.  0.
         12    1    1    2    0    0  0.10109261626E+02 -0.35442185558E+02 -0.22918929540E+02  0.43400726020E+02  0.00000000000E+00 0. -1.
         11    1    3    3    0    0 -0.28658295638E+01  0.20093685802E+02  0.36204565023E+01  0.20617392991E+02  0.51100000000E-03 0. -1.
        -11    1    3    3    0    0 -0.86411414672E+01  0.14802185395E+02  0.19088904867E+02  0.25654635207E+02  0.51100000000E-03 0.  1.
        -12    1    3    3    0    0  0.13977094052E+01  0.54631436167E+00  0.20956817040E+00  0.15152457825E+01  0.00000000000E+00 0.  1.
</event>
<event>
 7    1  0.2751796E-010  0.4778727E+02  0.7816164E-02  0.1312668E+00
        -11   -1    0    0    0    0  0.00000000000E+00  0.00000000000E+00  0.45593999997E+02  0.45594000000E+02  0.51100000000E-03 0.  1.
         11   -1    0    0    0    0 -0.00000000000E+00 -0.00000000000E+00 -0.45593999997E+02  0.45594000000E+02  0.51100000000E-03 0. -1.
    9900012    2    1    2    0    0  0.59464622438E+01  0.34497082438E+02 -0.25655689008E+02  0.47787268573E+02  0.19999988733E+02 0.  0.
         12    1    1    2    0    0 -0.59464622438E+01 -0.34497082438E+02  0.25655689008E+02  0.43400731427E+02  0.00000000000E+00 0. -1.
         11    1    3    3    0    0 -0.17186002120E+01  0.82519432267E+01 -0.98471527264E+01  0.12962043465E+02  0.51100000000E-03 0. -1.
        -11    1    3    3    0    0  0.71527476445E+01  0.28134227516E+02 -0.15242724395E+02  0.32787759973E+02  0.51100000000E-03 0.  1.
        -12    1    3    3    0    0  0.51231481140E+00 -0.18890883048E+01 -0.56581188625E+00  0.20374651359E+01  0.00000000000E+00 0.  1.
</event>
<event>
 7    1  0.2751796E-010  0.4778728E+02  0.7816164E-02  0.1312668E+00
        -11   -1    0    0    0    0  0.00000000000E+00  0.00000000000E+00  0.45593999997E+02  0.45594000000E+02  0.51100000000E-03 0.  1.
         11   -1    0    0    0    0 -0.00000000000E+00 -0.00000000000E+00 -0.45593999997E+02  0.45594000000E+02  0.51100000000E-03 0. -1.
    9900012    2    1    2    0    0 -0.27905185904E+02 -0.13207692394E+02  0.30503775911E+02  0.47787275541E+02  0.20000020503E+02 0.  0.
         12    1    1    2    0    0  0.27905185904E+02  0.13207692394E+02 -0.30503775911E+02  0.43400724459E+02  0.00000000000E+00 0. -1.
         11    1    3    3    0    0  0.18960273880E+01 -0.55767413247E+00  0.37891438812E+00  0.20123361222E+01  0.51100000000E-03 0. -1.
        -11    1    3    3    0    0 -0.18565621832E+02 -0.12421175849E+02  0.14897145616E+02  0.26849448248E+02  0.51100000000E-03 0.  1.
         12    1    3    3    0    0 -0.11235591460E+02 -0.22884241235E+00  0.15227715907E+02  0.18925491171E+02  0.00000000000E+00 0. -1.
</event>
<event>
 7    1  0.2771923E-010  0.4778727E+02  0.7816164E-02  0.1312668E+00
        -11   -1    0    0    0    0  0.00000000000E+00  0.00000000000E+00  0.45593999997E+02  0.45594000000E+02  0.51100000000E-03 0. -1.
         11   -1    0    0    0    0 -0.00000000000E+00 -0.00000000000E+00 -0.45593999997E+02  0.45594000000E+02  0.51100000000E-03 0.  1.
    9900012    2    1    2    0    0 -0.35922735746E+02  0.22530333465E+02  0.92500942206E+01  0.47787272903E+02  0.20000008473E+02 0.  0.
         12    1    1    2    0    0  0.35922735746E+02 -0.22530333465E+02 -0.92500942206E+01  0.43400727097E+02  0.00000000000E+00 0. -1.
         11    1    3    3    0    0  0.14421609034E+01  0.24585186958E+01 -0.20125479476E+01  0.34891964335E+01  0.51100000000E-03 0. -1.
        -11    1    3    3    0    0 -0.17865212540E+02  0.66521158898E+01  0.65877793694E+01  0.20169662918E+02  0.51100000000E-03 0.  1.
         12    1    3    3    0    0 -0.19499684109E+02  0.13419698879E+02  0.46748627988E+01  0.24128413552E+02  0.00000000000E+00 0. -1.
</event>
<event>
 7    1  0.2751796E-010  0.4778727E+02  0.7816164E-02  0.1312668E+00
        -11   -1    0    0    0    0  0.00000000000E+00  0.00000000000E+00  0.45593999997E+02  0.45594000000E+02  0.51100000000E-03 0.  1.
         11   -1    0    0    0    0 -0.00000000000E+00 -0.00000000000E+00 -0.45593999997E+02  0.45594000000E+02  0.51100000000E-03 0. -1.
    9900012    2    1    2    0    0 -0.16247827316E+02  0.29931784253E+02  0.26902039530E+02  0.47787270376E+02  0.19999996951E+02 0.  0.
         12    1    1    2    0    0  0.16247827316E+02 -0.29931784253E+02 -0.26902039530E+02  0.43400729624E+02  0.00000000000E+00 0. -1.
         11    1    3    3    0    0 -0.16422273484E+01  0.15044960229E+02  0.50844288875E+01  0.15965561573E+02  0.51100000000E-03 0.  1.
        -11    1    3    3    0    0  0.40867270843E+00 -0.96817317498E+00  0.15309259932E+00  0.10619841263E+01  0.51100000000E-03 0. -1.
         12    1    3    3    0    0 -0.15014272676E+02  0.15854997199E+02  0.21664518043E+02  0.30759724677E+02  0.00000000000E+00 0. -1.
</event>
<event>
 7    1  0.2751796E-010  0.4778727E+02  0.7816164E-02  0.1312668E+00
        -11   -1    0    0    0    0  0.00000000000E+00  0.00000000000E+00  0.45593999997E+02  0.45594000000E+02  0.51100000000E-03 0.  1.
         11   -1    0    0    0    0 -0.00000000000E+00 -0.00000000000E+00 -0.45593999997E+02  0.45594000000E+02  0.51100000000E-03 0. -1.
    9900012    2    1    2    0    0  0.29549483519E+02  0.17963800155E+02  0.26225051409E+02  0.47787269434E+02  0.19999992657E+02 0.  0.
         12    1    1    2    0    0 -0.29549483519E+02 -0.17963800155E+02 -0.26225051409E+02  0.43400730566E+02  0.00000000000E+00 0. -1.
         11    1    3    3    0    0  0.37521915198E+01  0.12888379798E+02  0.82147327991E+01  0.15737570024E+02  0.51100000000E-03 0. -1.
        -11    1    3    3    0    0  0.23504073254E+02  0.36360413359E+01  0.16531091172E+02  0.28964447720E+02  0.51100000000E-03 0.  1.
         12    1    3    3    0    0  0.22932187450E+01  0.14393790208E+01  0.14792274380E+01  0.30852516901E+01  0.00000000000E+00 0. -1.
</event>
<event>
 7    1  0.2751796E-010  0.4778727E+02  0.7816164E-02  0.1312668E+00
        -11   -1    0    0    0    0  0.00000000000E+00  0.00000000000E+00  0.45593999997E+02  0.45594000000E+02  0.51100000000E-03 0.  1.
         11   -1    0    0    0    0 -0.00000000000E+00 -0.00000000000E+00 -0.45593999997E+02  0.45594000000E+02  0.51100000000E-03 0. -1.
    9900012    2    1    2    0    0 -0.32660211095E+02 -0.18230580124E+01  0.28523855717E+02  0.47787271040E+02  0.19999999979E+02 0.  0.
         12    1    1    2    0    0  0.32660211095E+02  0.18230580124E+01 -0.28523855717E+02  0.43400728960E+02  0.00000000000E+00 0. -1.
         11    1    3    3    0    0 -0.24251773232E+02  0.26822522931E+01  0.24234330798E+02  0.34389617209E+02  0.51100000000E-03 0. -1.
        -11    1    3    3    0    0 -0.46321437311E+01 -0.20643442981E+01  0.66151041778E+01  0.83353390136E+01  0.51100000000E-03 0.  1.
         12    1    3    3    0    0 -0.37762941323E+01 -0.24409660074E+01 -0.23255792588E+01  0.50623148176E+01  0.00000000000E+00 0. -1.
</event>
<event>
 7    1  0.2751796E-010  0.4778727E+02  0.7816164E-02  0.1312668E+00
        -11   -1    0    0    0    0  0.00000000000E+00  0.00000000000E+00  0.45593999997E+02  0.45594000000E+02  0.51100000000E-03 0. -1.
         11   -1    0    0    0    0 -0.00000000000E+00 -0.00000000000E+00 -0.45593999997E+02  0.45594000000E+02  0.51100000000E-03 0.  1.
    9900012    2    1    2    0    0  0.89819132499E+01 -0.39975047324E+02  0.14315871570E+02  0.47787270133E+02  0.19999995842E+02 0.  0.
         12    1    1    2    0    0 -0.89819132499E+01  0.39975047324E+02 -0.14315871570E+02  0.43400729867E+02  0.00000000000E+00 0. -1.
         11    1    3    3    0    0  0.43374921034E+01 -0.22227082387E+02  0.17230093739E+02  0.28455810649E+02  0.51100000000E-03 0. -1.
        -11    1    3    3    0    0  0.30079867658E+01 -0.41124351772E+01 -0.22840441321E+01  0.55836337029E+01  0.51100000000E-03 0.  1.
         12    1    3    3    0    0  0.16364343806E+01 -0.13635529760E+02 -0.63017803703E+00  0.13747825780E+02  0.00000000000E+00 0. -1.
</event>
<event>
 7    1  0.2751796E-010  0.4778728E+02  0.7816164E-02  0.1312668E+00
        -11   -1    0    0    0    0  0.00000000000E+00  0.00000000000E+00  0.45593999997E+02  0.45594000000E+02  0.51100000000E-03 0.  1.
         11   -1    0    0    0    0 -0.00000000000E+00 -0.00000000000E+00 -0.45593999997E+02  0.45594000000E+02  0.51100000000E-03 0. -1.
    9900012    2    1    2    0    0 -0.12725446919E+02 -0.68673443050E+01  0.40920958110E+02  0.47787283074E+02  0.20000054846E+02 0.  0.
         12    1    1    2    0    0  0.12725446919E+02  0.68673443050E+01 -0.40920958110E+02  0.43400716926E+02  0.00000000000E+00 0. -1.
         11    1    3    3    0    0 -0.35466286993E+01 -0.23453824937E+01  0.16856452082E+02  0.17384457749E+02  0.51100000000E-03 0.  1.
        -11    1    3    3    0    0 -0.85130440780E+01  0.30051754551E+01  0.19715466569E+02  0.21684155997E+02  0.51100000000E-03 0. -1.
        -12    1    3    3    0    0 -0.66577414114E+00 -0.75271372665E+01  0.43490394587E+01  0.87186693278E+01  0.00000000000E+00 0.  1.
</event>
<event>
 7    1  0.2751796E-010  0.4778727E+02  0.7816164E-02  0.1312668E+00
        -11   -1    0    0    0    0  0.00000000000E+00  0.00000000000E+00  0.45593999997E+02  0.45594000000E+02  0.51100000000E-03 0. -1.
         11   -1    0    0    0    0 -0.00000000000E+00 -0.00000000000E+00 -0.45593999997E+02  0.45594000000E+02  0.51100000000E-03 0.  1.
    9900012    2    1    2    0    0  0.36046212175E+02  0.67274420878E+01 -0.23217133146E+02  0.47787272348E+02  0.20000005942E+02 0.  0.
         12    1    1    2    0    0 -0.36046212175E+02 -0.67274420878E+01  0.23217133146E+02  0.43400727652E+02  0.00000000000E+00 0. -1.
         11    1    3    3    0    0  0.18926179520E+02 -0.31277009793E+01 -0.30528289118E+01  0.19424277316E+02  0.51100000000E-03 0. -1.
        -11    1    3    3    0    0  0.16922859233E+02  0.97649345504E+01 -0.19267555881E+02  0.27440404904E+02  0.51100000000E-03 0.  1.
         12    1    3    3    0    0  0.19717342245E+00  0.90208516728E-01 -0.89674835271E+00  0.92259012736E+00  0.00000000000E+00 0. -1.
</event>
<event>
 7    1  0.2751796E-010  0.4778727E+02  0.7816164E-02  0.1312668E+00
        -11   -1    0    0    0    0  0.00000000000E+00  0.00000000000E+00  0.45593999997E+02  0.45594000000E+02  0.51100000000E-03 0. -1.
         11   -1    0    0    0    0 -0.00000000000E+00 -0.00000000000E+00 -0.45593999997E+02  0.45594000000E+02  0.51100000000E-03 0.  1.
    9900012    2    1    2    0    0 -0.40693086324E+02  0.14548299577E+02  0.40053425645E+01  0.47787273460E+02  0.20000011014E+02 0.  0.
         12    1    1    2    0    0  0.40693086324E+02 -0.14548299577E+02 -0.40053425645E+01  0.43400726540E+02  0.00000000000E+00 0. -1.
         11    1    3    3    0    0 -0.15508357541E+02  0.79199924892E+01  0.11140293996E+02  0.20672241901E+02  0.51100000000E-03 0. -1.
        -11    1    3    3    0    0 -0.16030370471E+02  0.32512539560E+01 -0.36940816866E+01  0.16768711026E+02  0.51100000000E-03 0.  1.
         12    1    3    3    0    0 -0.91543583117E+01  0.33770531317E+01 -0.34408697448E+01  0.10346320532E+02  0.00000000000E+00 0. -1.
</event>
<event>
 7    1  0.2751796E-010  0.4778726E+02  0.7816164E-02  0.1312668E+00
        -11   -1    0    0    0    0  0.00000000000E+00  0.00000000000E+00  0.45593999997E+02  0.45594000000E+02  0.51100000000E-03 0.  1.
         11   -1    0    0    0    0 -0.00000000000E+00 -0.00000000000E+00 -0.45593999997E+02  0.45594000000E+02  0.51100000000E-03 0. -1.
    9900012    2    1    2    0    0  0.25820943824E+02  0.19359582248E+02  0.29019131552E+02  0.47787256218E+02  0.19999932401E+02 0.  0.
         12    1    1    2    0    0 -0.25820943824E+02 -0.19359582248E+02 -0.29019131552E+02  0.43400743782E+02  0.00000000000E+00 0. -1.
         11    1    3    3    0    0 -0.18488960848E+01  0.30674376840E+01  0.76355728873E+01  0.84338344930E+01  0.51100000000E-03 0. -1.
        -11    1    3    3    0    0  0.18640169905E+02  0.13861638723E+02  0.18079342201E+02  0.29435753377E+02  0.51100000000E-03 0.  1.
         12    1    3    3    0    0  0.90296700045E+01  0.24305058406E+01  0.33042164633E+01  0.99176683483E+01  0.00000000000E+00 0. -1.
</event>
<event>
 7    1  0.2751796E-010  0.4778727E+02  0.7816164E-02  0.1312668E+00
        -11   -1    0    0    0    0  0.00000000000E+00  0.00000000000E+00  0.45593999997E+02  0.45594000000E+02  0.51100000000E-03 0.  1.
         11   -1    0    0    0    0 -0.00000000000E+00 -0.00000000000E+00 -0.45593999997E+02  0.45594000000E+02  0.51100000000E-03 0. -1.
    9900012    2    1    2    0    0 -0.37955117076E+02  0.13302144420E+02  0.16312131344E+02  0.47787267433E+02  0.19999983532E+02 0.  0.
         12    1    1    2    0    0  0.37955117076E+02 -0.13302144420E+02 -0.16312131344E+02  0.43400732567E+02  0.00000000000E+00 0. -1.
         11    1    3    3    0    0 -0.67237973598E+01  0.77761157541E+01  0.14091251852E+01  0.10376081207E+02  0.51100000000E-03 0. -1.
        -11    1    3    3    0    0 -0.15973689329E+02 -0.20205431068E+01  0.23732447706E+01  0.16274938901E+02  0.51100000000E-03 0.  1.
        -12    1    3    3    0    0 -0.15257630387E+02  0.75465717730E+01  0.12529761388E+02  0.21136247325E+02  0.00000000000E+00 0.  1.
</event>
<event>
 7    1  0.2751796E-010  0.4778727E+02  0.7816164E-02  0.1312668E+00
        -11   -1    0    0    0    0  0.00000000000E+00  0.00000000000E+00  0.45593999997E+02  0.45594000000E+02  0.51100000000E-03 0.  1.
         11   -1    0    0    0    0 -0.00000000000E+00 -0.00000000000E+00 -0.45593999997E+02  0.45594000000E+02  0.51100000000E-03 0. -1.
    9900012    2    1    2    0    0  0.34853318283E+02  0.22526726642E+02  0.12704961544E+02  0.47787271246E+02  0.20000000921E+02 0.  0.
         12    1    1    2    0    0 -0.34853318283E+02 -0.22526726642E+02 -0.12704961544E+02  0.43400728754E+02  0.00000000000E+00 0. -1.
         11    1    3    3    0    0 -0.25447461680E+00  0.54511424846E+01  0.29242965668E+01  0.61912213973E+01  0.51100000000E-03 0. -1.
        -11    1    3    3    0    0  0.23074904628E+02  0.69945452576E+01  0.23424102317E+01  0.24225230090E+02  0.51100000000E-03 0.  1.
        -12    1    3    3    0    0  0.12032888272E+02  0.10081038899E+02  0.74382547454E+01  0.17370819759E+02  0.00000000000E+00 0.  1.
</event>
<event>
 7    1  0.2751796E-010  0.4778727E+02  0.7816164E-02  0.1312668E+00
        -11   -1    0    0    0    0  0.00000000000E+00  0.00000000000E+00  0.45593999997E+02  0.45594000000E+02  0.51100000000E-03 0. -1.
         11   -1    0    0    0    0 -0.00000000000E+00 -0.00000000000E+00 -0.45593999997E+02  0.45594000000E+02  0.51100000000E-03 0.  1.
    9900012    2    1    2    0    0 -0.19100685166E+02 -0.27880280146E+02 -0.27230073795E+02  0.47787272890E+02  0.20000008413E+02 0.  0.
         12    1    1    2    0    0  0.19100685166E+02  0.27880280146E+02  0.27230073795E+02  0.43400727110E+02  0.00000000000E+00 0. -1.
         11    1    3    3    0    0 -0.16223675475E+02 -0.16302037515E+02 -0.17978777047E+02  0.29192473301E+02  0.51100000000E-03 0. -1.
        -11    1    3    3    0    0  0.30499798892E+01 -0.47892517913E+01 -0.75117689514E+01  0.94162616301E+01  0.51100000000E-03 0.  1.
         12    1    3    3    0    0 -0.59269895800E+01 -0.67889908392E+01 -0.17395277969E+01  0.91785379583E+01  0.00000000000E+00 0. -1.
</event>
<event>
 7    1  0.2751796E-010  0.4778727E+02  0.7816164E-02  0.1312668E+00
        -11   -1    0    0    0    0  0.00000000000E+00  0.00000000000E+00  0.45593999997E+02  0.45594000000E+02  0.51100000000E-03 0.  1.
         11   -1    0    0    0    0 -0.00000000000E+00 -0.00000000000E+00 -0.45593999997E+02  0.45594000000E+02  0.51100000000E-03 0. -1.
    9900012    2    1    2    0    0  0.26182530927E+02 -0.45594567413E+01  0.34311951343E+02  0.47787267558E+02  0.19999984104E+02 0.  0.
         12    1    1    2    0    0 -0.26182530927E+02  0.45594567413E+01 -0.34311951343E+02  0.43400732442E+02  0.00000000000E+00 0. -1.
         11    1    3    3    0    0  0.40230321096E+01 -0.93795237325E+00  0.17465513991E+02  0.17947387588E+02  0.51100000000E-03 0. -1.
        -11    1    3    3    0    0  0.19392666311E+02 -0.64196872836E+01  0.15629171288E+02  0.25720787058E+02  0.51100000000E-03 0.  1.
         12    1    3    3    0    0  0.27668325065E+01  0.27981829156E+01  0.12172660644E+01  0.41190929123E+01  0.00000000000E+00 0. -1.
</event>
<event>
 7    1  0.2751796E-010  0.4778726E+02  0.7816164E-02  0.1312668E+00
        -11   -1    0    0    0    0  0.00000000000E+00  0.00000000000E+00  0.45593999997E+02  0.45594000000E+02  0.51100000000E-03 0. -1.
         11   -1    0    0    0    0 -0.00000000000E+00 -0.00000000000E+00 -0.45593999997E+02  0.45594000000E+02  0.51100000000E-03 0.  1.
    9900012    2    1    2    0    0 -0.55281735414E+01 -0.54141604316E+01 -0.42705390054E+02  0.47787260656E+02  0.19999952637E+02 0.  0.
         12    1    1    2    0    0  0.55281735414E+01  0.54141604316E+01  0.42705390054E+02  0.43400739344E+02  0.00000000000E+00 0. -1.
         11    1    3    3    0    0 -0.18090880452E+01 -0.31161570460E+00  0.76828855398E+00  0.19900179562E+01  0.51100000000E-03 0. -1.
        -11    1    3    3    0    0 -0.29652922054E+01 -0.52592459632E+01 -0.44275717155E+02  0.44685475893E+02  0.51100000000E-03 0.  1.
        -12    1    3    3    0    0 -0.75379329074E+00  0.15670123624E+00  0.80203854677E+00  0.11117668070E+01  0.00000000000E+00 0.  1.
</event>
<event>
 7    1  0.2751796E-010  0.4778727E+02  0.7816164E-02  0.1312668E+00
        -11   -1    0    0    0    0  0.00000000000E+00  0.00000000000E+00  0.45593999997E+02  0.45594000000E+02  0.51100000000E-03 0. -1.
         11   -1    0    0    0    0 -0.00000000000E+00 -0.00000000000E+00 -0.45593999997E+02  0.45594000000E+02  0.51100000000E-03 0.  1.
    9900012    2    1    2    0    0 -0.15878733296E+02 -0.12416482234E+02 -0.38435923255E+02  0.47787269607E+02  0.19999993448E+02 0.  0.
         12    1    1    2    0    0  0.15878733296E+02  0.12416482234E+02  0.38435923255E+02  0.43400730393E+02  0.00000000000E+00 0. -1.
         11    1    3    3    0    0 -0.54015108937E+01 -0.15262526536E+01 -0.71517833252E+01  0.90914119965E+01  0.51100000000E-03 0. -1.
        -11    1    3    3    0    0 -0.11907946619E+02 -0.12191743404E+02 -0.16283235454E+02  0.23570777608E+02  0.51100000000E-03 0.  1.
        -12    1    3    3    0    0  0.14307242170E+01  0.13015138236E+01 -0.15000904476E+02  0.15125080003E+02  0.00000000000E+00 0.  1.
</event>
<event>
 7    1  0.2751796E-010  0.4778725E+02  0.7816164E-02  0.1312668E+00
        -11   -1    0    0    0    0  0.00000000000E+00  0.00000000000E+00  0.45593999997E+02  0.45594000000E+02  0.51100000000E-03 0.  1.
         11   -1    0    0    0    0 -0.00000000000E+00 -0.00000000000E+00 -0.45593999997E+02  0.45594000000E+02  0.51100000000E-03 0. -1.
    9900012    2    1    2    0    0  0.18313845870E+02  0.20666965123E+02  0.33482906097E+02  0.47787246566E+02  0.19999888391E+02 0.  0.
         12    1    1    2    0    0 -0.18313845870E+02 -0.20666965123E+02 -0.33482906097E+02  0.43400753434E+02  0.00000000000E+00 0. -1.
         11    1    3    3    0    0 -0.11701499466E+01  0.99649614127E+01  0.87745350840E+01  0.13328997451E+02  0.51100000000E-03 0. -1.
        -11    1    3    3    0    0  0.14857385545E+02  0.62699214246E+01  0.11590430463E+02  0.19859302568E+02  0.51100000000E-03 0.  1.
        -12    1    3    3    0    0  0.46266102712E+01  0.44320822860E+01  0.13117940550E+02  0.14598946546E+02  0.00000000000E+00 0.  1.
</event>
<event>
 7    1  0.2751796E-010  0.4778727E+02  0.7816164E-02  0.1312668E+00
        -11   -1    0    0    0    0  0.00000000000E+00  0.00000000000E+00  0.45593999997E+02  0.45594000000E+02  0.51100000000E-03 0. -1.
         11   -1    0    0    0    0 -0.00000000000E+00 -0.00000000000E+00 -0.45593999997E+02  0.45594000000E+02  0.51100000000E-03 0.  1.
    9900012    2    1    2    0    0  0.16089545210E+02  0.51244902815E+01 -0.39981110039E+02  0.47787273904E+02  0.20000013037E+02 0.  0.
         12    1    1    2    0    0 -0.16089545210E+02 -0.51244902815E+01  0.39981110039E+02  0.43400726096E+02  0.00000000000E+00 0. -1.
         11    1    3    3    0    0 -0.11335791312E+01 -0.28462761324E+01 -0.11511510938E+02  0.11912227911E+02  0.51100000000E-03 0. -1.
        -11    1    3    3    0    0  0.13306546229E+02  0.98036479002E+01 -0.26235730569E+02  0.31007890019E+02  0.51100000000E-03 0.  1.
        -12    1    3    3    0    0  0.39165781126E+01 -0.18328814863E+01 -0.22338685329E+01  0.48671559742E+01  0.00000000000E+00 0.  1.
</event>
<event>
 7    1  0.2751796E-010  0.4778727E+02  0.7816164E-02  0.1312668E+00
        -11   -1    0    0    0    0  0.00000000000E+00  0.00000000000E+00  0.45593999997E+02  0.45594000000E+02  0.51100000000E-03 0.  1.
         11   -1    0    0    0    0 -0.00000000000E+00 -0.00000000000E+00 -0.45593999997E+02  0.45594000000E+02  0.51100000000E-03 0. -1.
    9900012    2    1    2    0    0 -0.34899879574E+02 -0.47851399249E+01  0.25352008158E+02  0.47787268716E+02  0.19999989382E+02 0.  0.
         12    1    1    2    0    0  0.34899879574E+02  0.47851399249E+01 -0.25352008158E+02  0.43400731284E+02  0.00000000000E+00 0. -1.
         11    1    3    3    0    0 -0.13216760596E+01 -0.54111636329E+01  0.53165274047E+01  0.77001937232E+01  0.51100000000E-03 0. -1.
        -11    1    3    3    0    0 -0.18362931278E+02  0.36553573130E+01  0.76102298819E+01  0.20210751627E+02  0.51100000000E-03 0.  1.
         12    1    3    3    0    0 -0.15215272236E+02 -0.30293336049E+01  0.12425250872E+02  0.19876323365E+02  0.00000000000E+00 0. -1.
</event>
<event>
 7    1  0.2751796E-010  0.4778726E+02  0.7816164E-02  0.1312668E+00
        -11   -1    0    0    0    0  0.00000000000E+00  0.00000000000E+00  0.45593999997E+02  0.45594000000E+02  0.51100000000E-03 0.  1.
         11   -1    0    0    0    0 -0.00000000000E+00 -0.00000000000E+00 -0.45593999997E+02  0.45594000000E+02  0.51100000000E-03 0. -1.
    9900012    2    1    2    0    0  0.18727281938E+02  0.25222309408E+02  0.29945748411E+02  0.47787264654E+02  0.19999970866E+02 0.  0.
         12    1    1    2    0    0 -0.18727281938E+02 -0.25222309408E+02 -0.29945748411E+02  0.43400735346E+02  0.00000000000E+00 0. -1.
         11    1    3    3    0    0  0.66865779633E+01  0.22319578920E+02  0.19011978753E+02  0.30072067844E+02  0.51100000000E-03 0. -1.
        -11    1    3    3    0    0  0.88115026708E+01 -0.67163314026E+00  0.53069956743E+01  0.10308145990E+02  0.51100000000E-03 0.  1.
         12    1    3    3    0    0  0.32292013043E+01  0.35743636277E+01  0.56267739836E+01  0.74070508213E+01  0.00000000000E+00 0. -1.
</event>
<event>
 7    1  0.2751796E-010  0.4778727E+02  0.7816164E-02  0.1312668E+00
        -11   -1    0    0    0    0  0.00000000000E+00  0.00000000000E+00  0.45593999997E+02  0.45594000000E+02  0.51100000000E-03 0.  1.
         11   -1    0    0    0    0 -0.00000000000E+00 -0.00000000000E+00 -0.45593999997E+02  0.45594000000E+02  0.51100000000E-03 0. -1.
    9900012    2    1    2    0    0 -0.27517002828E+02  0.30566535576E+02  0.13860899564E+02  0.47787273296E+02  0.20000010265E+02 0.  0.
         12    1    1    2    0    0  0.27517002828E+02 -0.30566535576E+02 -0.13860899564E+02  0.43400726704E+02  0.00000000000E+00 0. -1.
         11    1    3    3    0    0 -0.13348300471E+02  0.90608935305E+01  0.13038696728E+02  0.20743300838E+02  0.51100000000E-03 0. -1.
        -11    1    3    3    0    0 -0.26716040972E+01  0.65878889175E+01  0.36624172989E+01  0.79969400131E+01  0.51100000000E-03 0.  1.
         12    1    3    3    0    0 -0.11497098259E+02  0.14917753128E+02 -0.28402144622E+01  0.19047032445E+02  0.00000000000E+00 0. -1.
</event>
<event>
 7    1  0.2751796E-010  0.4778727E+02  0.7816164E-02  0.1312668E+00
        -11   -1    0    0    0    0  0.00000000000E+00  0.00000000000E+00  0.45593999997E+02  0.45594000000E+02  0.51100000000E-03 0.  1.
         11   -1    0    0    0    0 -0.00000000000E+00 -0.00000000000E+00 -0.45593999997E+02  0.45594000000E+02  0.51100000000E-03 0. -1.
    9900012    2    1    2    0    0 -0.29216055117E+02  0.16964932530E+01  0.32049455608E+02  0.47787267625E+02  0.19999984408E+02 0.  0.
         12    1    1    2    0    0  0.29216055117E+02 -0.16964932530E+01 -0.32049455608E+02  0.43400732375E+02  0.00000000000E+00 0. -1.
         11    1    3    3    0    0 -0.16721561020E+01  0.52735705525E+01  0.89820790290E+01  0.10549141972E+02  0.51100000000E-03 0. -1.
        -11    1    3    3    0    0 -0.24097317741E+02 -0.13614926355E+01  0.15653684800E+02  0.28767555207E+02  0.51100000000E-03 0.  1.
        -12    1    3    3    0    0 -0.34465812734E+01 -0.22155846641E+01  0.74136917787E+01  0.84705704452E+01  0.00000000000E+00 0.  1.
</event>
<event>
 7    1  0.2751796E-010  0.4778730E+02  0.7816164E-02  0.1312668E+00
        -11   -1    0    0    0    0  0.00000000000E+00  0.00000000000E+00  0.45593999997E+02  0.45594000000E+02  0.51100000000E-03 0.  1.
         11   -1    0    0    0    0 -0.00000000000E+00 -0.00000000000E+00 -0.45593999997E+02  0.45594000000E+02  0.51100000000E-03 0. -1.
    9900012    2    1    2    0    0  0.32100763286E+02  0.19774565009E+02  0.21497175881E+02  0.47787297290E+02  0.20000119666E+02 0.  0.
         12    1    1    2    0    0 -0.32100763286E+02 -0.19774565009E+02 -0.21497175881E+02  0.43400702710E+02  0.00000000000E+00 0. -1.
         11    1    3    3    0    0  0.29406502030E+01 -0.22872041830E+01  0.34023161017E+01  0.50452434736E+01  0.51100000000E-03 0. -1.
        -11    1    3    3    0    0  0.21713478860E+02  0.19469473891E+02  0.86112218546E+01  0.30408694807E+02  0.51100000000E-03 0.  1.
        -12    1    3    3    0    0  0.74466342225E+01  0.25922953016E+01  0.94836379242E+01  0.12333359009E+02  0.00000000000E+00 0.  1.
</event>
<event>
 7    1  0.2751796E-010  0.4778727E+02  0.7816164E-02  0.1312668E+00
        -11   -1    0    0    0    0  0.00000000000E+00  0.00000000000E+00  0.45593999997E+02  0.45594000000E+02  0.51100000000E-03 0.  1.
         11   -1    0    0    0    0 -0.00000000000E+00 -0.00000000000E+00 -0.45593999997E+02  0.45594000000E+02  0.51100000000E-03 0. -1.
    9900012    2    1    2    0    0  0.14258512718E+02  0.40718049205E+02  0.47284631635E+01  0.47787273280E+02  0.20000010191E+02 0.  0.
         12    1    1    2    0    0 -0.14258512718E+02 -0.40718049205E+02 -0.47284631635E+01  0.43400726720E+02  0.00000000000E+00 0. -1.
         11    1    3    3    0    0  0.40977632876E+01  0.23171747004E+01 -0.42381661644E+01  0.63342730642E+01  0.51100000000E-03 0. -1.
        -11    1    3    3    0    0  0.28820772964E+01  0.25470922675E+02  0.56071452238E+01  0.26239556957E+02  0.51100000000E-03 0.  1.
        -12    1    3    3    0    0  0.72786721336E+01  0.12929951829E+02  0.33594841042E+01  0.15213443258E+02  0.00000000000E+00 0.  1.
</event>
<event>
 7    1  0.2751796E-010  0.4778726E+02  0.7816164E-02  0.1312668E+00
        -11   -1    0    0    0    0  0.00000000000E+00  0.00000000000E+00  0.45593999997E+02  0.45594000000E+02  0.51100000000E-03 0.  1.
         11   -1    0    0    0    0 -0.00000000000E+00 -0.00000000000E+00 -0.45593999997E+02  0.45594000000E+02  0.51100000000E-03 0. -1.
    9900012    2    1    2    0    0  0.66216070782E+01  0.35053922581E+00  0.42891208283E+02  0.47787259154E+02  0.19999945786E+02 0.  0.
         12    1    1    2    0    0 -0.66216070782E+01 -0.35053922581E+00 -0.42891208283E+02  0.43400740846E+02  0.00000000000E+00 0. -1.
         11    1    3    3    0    0 -0.14703390220E+01  0.64372448229E+01  0.23407926181E+02  0.24321410858E+02  0.51100000000E-03 0.  1.
        -11    1    3    3    0    0  0.88438397697E+01 -0.73539624331E+01  0.16208827361E+02  0.19875118868E+02  0.51100000000E-03 0. -1.
         12    1    3    3    0    0 -0.75189366953E+00  0.12672568360E+01  0.32744547407E+01  0.35907294284E+01  0.00000000000E+00 0. -1.
</event>
<event>
 7    1  0.2751796E-010  0.4778727E+02  0.7816164E-02  0.1312668E+00
        -11   -1    0    0    0    0  0.00000000000E+00  0.00000000000E+00  0.45593999997E+02  0.45594000000E+02  0.51100000000E-03 0.  1.
         11   -1    0    0    0    0 -0.00000000000E+00 -0.00000000000E+00 -0.45593999997E+02  0.45594000000E+02  0.51100000000E-03 0. -1.
    9900012    2    1    2    0    0 -0.40441601122E+02 -0.12596979738E+02 -0.94560190443E+01  0.47787270790E+02  0.19999998840E+02 0.  0.
         12    1    1    2    0    0  0.40441601122E+02  0.12596979738E+02  0.94560190443E+01  0.43400729210E+02  0.00000000000E+00 0. -1.
         11    1    3    3    0    0 -0.19558695771E+02  0.15354319829E+00 -0.31167953505E-01  0.19559323288E+02  0.51100000000E-03 0. -1.
        -11    1    3    3    0    0 -0.79827971568E+01  0.37227902322E-01 -0.52381609037E+00  0.80000512449E+01  0.51100000000E-03 0.  1.
         12    1    3    3    0    0 -0.12900108194E+02 -0.12787750838E+02 -0.89010350005E+01  0.20227896258E+02  0.00000000000E+00 0. -1.
</event>
<event>
 7    1  0.2751796E-010  0.4778727E+02  0.7816164E-02  0.1312668E+00
        -11   -1    0    0    0    0  0.00000000000E+00  0.00000000000E+00  0.45593999997E+02  0.45594000000E+02  0.51100000000E-03 0.  1.
         11   -1    0    0    0    0 -0.00000000000E+00 -0.00000000000E+00 -0.45593999997E+02  0.45594000000E+02  0.51100000000E-03 0. -1.
    9900012    2    1    2    0    0  0.42634653710E+02 -0.73347637781E+01 -0.34800321796E+01  0.47787273271E+02  0.20000010153E+02 0.  0.
         12    1    1    2    0    0 -0.42634653710E+02  0.73347637781E+01  0.34800321796E+01  0.43400726729E+02  0.00000000000E+00 0. -1.
         11    1    3    3    0    0  0.21890581155E+02 -0.73040134586E+01 -0.94055733542E+01  0.24920091619E+02  0.51100000000E-03 0. -1.
        -11    1    3    3    0    0  0.15775695402E+02 -0.27152276344E+01  0.23398522339E+01  0.16177760514E+02  0.51100000000E-03 0.  1.
         12    1    3    3    0    0  0.49683771528E+01  0.26844773148E+01  0.35856889407E+01  0.66894211383E+01  0.00000000000E+00 0. -1.
</event>
<event>
 7    1  0.2751796E-010  0.4778727E+02  0.7816164E-02  0.1312668E+00
        -11   -1    0    0    0    0  0.00000000000E+00  0.00000000000E+00  0.45593999997E+02  0.45594000000E+02  0.51100000000E-03 0.  1.
         11   -1    0    0    0    0 -0.00000000000E+00 -0.00000000000E+00 -0.45593999997E+02  0.45594000000E+02  0.51100000000E-03 0. -1.
    9900012    2    1    2    0    0 -0.25129969239E+01  0.26680210352E+02  0.34139048626E+02  0.47787269372E+02  0.19999992376E+02 0.  0.
         12    1    1    2    0    0  0.25129969239E+01 -0.26680210352E+02 -0.34139048626E+02  0.43400730628E+02  0.00000000000E+00 0. -1.
         11    1    3    3    0    0  0.27419838432E+01  0.41947453951E+01  0.16100287963E+01  0.52637018640E+01  0.51100000000E-03 0. -1.
        -11    1    3    3    0    0  0.13498203201E+01  0.14743124463E+02  0.27361350683E+02  0.31109889831E+02  0.51100000000E-03 0.  1.
        -12    1    3    3    0    0 -0.66048010872E+01  0.77423404937E+01  0.51676691464E+01  0.11413677678E+02  0.00000000000E+00 0.  1.
</event>
<event>
 7    1  0.2751796E-010  0.4778726E+02  0.7816164E-02  0.1312668E+00
        -11   -1    0    0    0    0  0.00000000000E+00  0.00000000000E+00  0.45593999997E+02  0.45594000000E+02  0.51100000000E-03 0.  1.
         11   -1    0    0    0    0 -0.00000000000E+00 -0.00000000000E+00 -0.45593999997E+02  0.45594000000E+02  0.51100000000E-03 0. -1.
    9900012    2    1    2    0    0  0.26807276046E+01  0.29338823449E+02  0.31869592742E+02  0.47787264944E+02  0.19999972186E+02 0.  0.
         12    1    1    2    0    0 -0.26807276046E+01 -0.29338823449E+02 -0.31869592742E+02  0.43400735056E+02  0.00000000000E+00 0. -1.
         11    1    3    3    0    0  0.46983482652E+00  0.15454428829E+02  0.22896095047E+02  0.27627726723E+02  0.51100000000E-03 0.  1.
        -11    1    3    3    0    0 -0.34494209751E+01  0.34945042908E+01 -0.59074240475E+00  0.49456083702E+01  0.51100000000E-03 0. -1.
         12    1    3    3    0    0  0.56603137532E+01  0.10389890329E+02  0.95642400999E+01  0.15213929851E+02  0.00000000000E+00 0. -1.
</event>
<event>
 7    1  0.2751796E-010  0.4778727E+02  0.7816164E-02  0.1312668E+00
        -11   -1    0    0    0    0  0.00000000000E+00  0.00000000000E+00  0.45593999997E+02  0.45594000000E+02  0.51100000000E-03 0. -1.
         11   -1    0    0    0    0 -0.00000000000E+00 -0.00000000000E+00 -0.45593999997E+02  0.45594000000E+02  0.51100000000E-03 0.  1.
    9900012    2    1    2    0    0 -0.42744988690E+02  0.24893161958E+01 -0.70916984680E+01  0.47787274887E+02  0.20000017518E+02 0.  0.
         12    1    1    2    0    0  0.42744988690E+02 -0.24893161958E+01  0.70916984680E+01  0.43400725113E+02  0.00000000000E+00 0. -1.
         11    1    3    3    0    0 -0.82918886846E+01 -0.22145408565E+01  0.25860084658E+01  0.89636515556E+01  0.51100000000E-03 0. -1.
        -11    1    3    3    0    0 -0.35449736810E+02  0.50118558903E+01 -0.77495535439E+01  0.36631381625E+02  0.51100000000E-03 0.  1.
        -12    1    3    3    0    0  0.99663680470E+00 -0.30799883794E+00 -0.19281533898E+01  0.21922417064E+01  0.00000000000E+00 0.  1.
</event>
<event>
 7    1  0.2751796E-010  0.4778726E+02  0.7816164E-02  0.1312668E+00
        -11   -1    0    0    0    0  0.00000000000E+00  0.00000000000E+00  0.45593999997E+02  0.45594000000E+02  0.51100000000E-03 0. -1.
         11   -1    0    0    0    0 -0.00000000000E+00 -0.00000000000E+00 -0.45593999997E+02  0.45594000000E+02  0.51100000000E-03 0.  1.
    9900012    2    1    2    0    0  0.36918310377E+02  0.21447187911E+02 -0.77897628948E+01  0.47787263643E+02  0.19999966256E+02 0.  0.
         12    1    1    2    0    0 -0.36918310377E+02 -0.21447187911E+02  0.77897628948E+01  0.43400736357E+02  0.00000000000E+00 0. -1.
         11    1    3    3    0    0  0.13968657668E+01 -0.35517556970E+00  0.39864780335E+01  0.42390318503E+01  0.51100000000E-03 0. -1.
        -11    1    3    3    0    0  0.25142136409E+02  0.17773292196E+02 -0.88354339673E+01  0.32032512114E+02  0.51100000000E-03 0.  1.
         12    1    3    3    0    0  0.10379308201E+02  0.40290712843E+01 -0.29408069610E+01  0.11515719679E+02  0.00000000000E+00 0. -1.
</event>
<event>
 7    1  0.2751796E-010  0.4778727E+02  0.7816164E-02  0.1312668E+00
        -11   -1    0    0    0    0  0.00000000000E+00  0.00000000000E+00  0.45593999997E+02  0.45594000000E+02  0.51100000000E-03 0. -1.
         11   -1    0    0    0    0 -0.00000000000E+00 -0.00000000000E+00 -0.45593999997E+02  0.45594000000E+02  0.51100000000E-03 0.  1.
    9900012    2    1    2    0    0 -0.60939850107E+01  0.40963837619E+02 -0.12978846916E+02  0.47787272897E+02  0.20000008448E+02 0.  0.
         12    1    1    2    0    0  0.60939850107E+01 -0.40963837619E+02  0.12978846916E+02  0.43400727103E+02  0.00000000000E+00 0. -1.
         11    1    3    3    0    0 -0.60296341782E+01  0.31984038881E+01 -0.38782083145E+01  0.78502723358E+01  0.51100000000E-03 0. -1.
        -11    1    3    3    0    0  0.42380358699E+01  0.26186578569E+02 -0.58654677291E+01  0.27168024535E+02  0.51100000000E-03 0.  1.
         12    1    3    3    0    0 -0.43023867024E+01  0.11578855162E+02 -0.32351708726E+01  0.12768976027E+02  0.00000000000E+00 0. -1.
</event>
<event>
 7    1  0.2751796E-010  0.4778727E+02  0.7816164E-02  0.1312668E+00
        -11   -1    0    0    0    0  0.00000000000E+00  0.00000000000E+00  0.45593999997E+02  0.45594000000E+02  0.51100000000E-03 0.  1.
         11   -1    0    0    0    0 -0.00000000000E+00 -0.00000000000E+00 -0.45593999997E+02  0.45594000000E+02  0.51100000000E-03 0. -1.
    9900012    2    1    2    0    0  0.27703139081E+01  0.43231736936E+02 -0.26391899744E+01  0.47787273723E+02  0.20000012211E+02 0.  0.
         12    1    1    2    0    0 -0.27703139081E+01 -0.43231736936E+02  0.26391899744E+01  0.43400726277E+02  0.00000000000E+00 0. -1.
         11    1    3    3    0    0 -0.22616546681E+01  0.87326939208E+01 -0.58461541366E+01  0.10749536892E+02  0.51100000000E-03 0. -1.
        -11    1    3    3    0    0  0.38583055185E+01  0.27078404133E+02  0.75305036320E+01  0.28369613622E+02  0.51100000000E-03 0.  1.
        -12    1    3    3    0    0  0.11736630577E+01  0.74206388827E+01 -0.43235394698E+01  0.86681232079E+01  0.00000000000E+00 0.  1.
</event>
<event>
 7    1  0.2751796E-010  0.4778727E+02  0.7816164E-02  0.1312668E+00
        -11   -1    0    0    0    0  0.00000000000E+00  0.00000000000E+00  0.45593999997E+02  0.45594000000E+02  0.51100000000E-03 0.  1.
         11   -1    0    0    0    0 -0.00000000000E+00 -0.00000000000E+00 -0.45593999997E+02  0.45594000000E+02  0.51100000000E-03 0. -1.
    9900012    2    1    2    0    0 -0.38367775197E+02  0.74311456999E+00  0.20272765177E+02  0.47787269583E+02  0.19999993337E+02 0.  0.
         12    1    1    2    0    0  0.38367775197E+02 -0.74311456999E+00 -0.20272765177E+02  0.43400730417E+02  0.00000000000E+00 0. -1.
         11    1    3    3    0    0 -0.26872496258E+02 -0.26204852900E+01  0.13325678163E+02  0.30109329070E+02  0.51100000000E-03 0. -1.
        -11    1    3    3    0    0  0.18742878657E+01  0.48436842502E-01  0.26549817531E+01  0.32502660663E+01  0.51100000000E-03 0.  1.
         12    1    3    3    0    0 -0.13369566805E+02  0.33151630175E+01  0.42921052607E+01  0.14427674447E+02  0.00000000000E+00 0. -1.
</event>
<event>
 7    1  0.2751796E-010  0.4778727E+02  0.7816164E-02  0.1312668E+00
        -11   -1    0    0    0    0  0.00000000000E+00  0.00000000000E+00  0.45593999997E+02  0.45594000000E+02  0.51100000000E-03 0.  1.
         11   -1    0    0    0    0 -0.00000000000E+00 -0.00000000000E+00 -0.45593999997E+02  0.45594000000E+02  0.51100000000E-03 0. -1.
    9900012    2    1    2    0    0 -0.90640766022E+00  0.53421256525E+01  0.43061158121E+02  0.47787271664E+02  0.20000002826E+02 0.  0.
         12    1    1    2    0    0  0.90640766022E+00 -0.53421256525E+01 -0.43061158121E+02  0.43400728336E+02  0.00000000000E+00 0. -1.
         11    1    3    3    0    0  0.41306525128E+01 -0.99813254580E+00  0.19838711330E+02  0.20288741367E+02  0.51100000000E-03 0. -1.
        -11    1    3    3    0    0 -0.43182733622E+01  0.99234869947E+01  0.19370752231E+02  0.22188941417E+02  0.51100000000E-03 0.  1.
        -12    1    3    3    0    0 -0.71878681080E+00 -0.35832287964E+01  0.38516945600E+01  0.53095888796E+01  0.00000000000E+00 0.  1.
</event>
<event>
 7    1  0.2751796E-010  0.4778725E+02  0.7816164E-02  0.1312668E+00
        -11   -1    0    0    0    0  0.00000000000E+00  0.00000000000E+00  0.45593999997E+02  0.45594000000E+02  0.51100000000E-03 0.  1.
         11   -1    0    0    0    0 -0.00000000000E+00 -0.00000000000E+00 -0.45593999997E+02  0.45594000000E+02  0.51100000000E-03 0. -1.
    9900012    2    1    2    0    0  0.33273758202E+02 -0.25933765603E+02 -0.10194229178E+02  0.47787245492E+02  0.19999883498E+02 0.  0.
         12    1    1    2    0    0 -0.33273758202E+02  0.25933765603E+02  0.10194229178E+02  0.43400754508E+02  0.00000000000E+00 0. -1.
         11    1    3    3    0    0  0.87766619167E+01  0.96456734304E+00  0.21446223180E+00  0.88321106690E+01  0.51100000000E-03 0. -1.
        -11    1    3    3    0    0  0.13900741393E+02 -0.18330548632E+02 -0.23528388459E+01  0.23125212979E+02  0.51100000000E-03 0.  1.
         12    1    3    3    0    0  0.10596354893E+02 -0.85677843146E+01 -0.80558525641E+01  0.15829921845E+02  0.00000000000E+00 0. -1.
</event>
<event>
 7    1  0.2751796E-010  0.4778727E+02  0.7816164E-02  0.1312668E+00
        -11   -1    0    0    0    0  0.00000000000E+00  0.00000000000E+00  0.45593999997E+02  0.45594000000E+02  0.51100000000E-03 0.  1.
         11   -1    0    0    0    0 -0.00000000000E+00 -0.00000000000E+00 -0.45593999997E+02  0.45594000000E+02  0.51100000000E-03 0. -1.
    9900012    2    1    2    0    0  0.11225890958E+02 -0.24206625018E+02  0.34229259394E+02  0.47787268195E+02  0.19999987007E+02 0.  0.
         12    1    1    2    0    0 -0.11225890958E+02  0.24206625018E+02 -0.34229259394E+02  0.43400731805E+02  0.00000000000E+00 0. -1.
         11    1    3    3    0    0  0.15277536473E+02 -0.99623184300E+01  0.21999337369E+02  0.28576594516E+02  0.51100000000E-03 0. -1.
        -11    1    3    3    0    0 -0.31641279012E+01 -0.10476317990E+02  0.90411010787E+01  0.14195296861E+02  0.51100000000E-03 0.  1.
         12    1    3    3    0    0 -0.88751761466E+00 -0.37679885981E+01  0.31888209465E+01  0.50153768175E+01  0.00000000000E+00 0. -1.
</event>
<event>
 7    1  0.2751796E-010  0.4778727E+02  0.7816164E-02  0.1312668E+00
        -11   -1    0    0    0    0  0.00000000000E+00  0.00000000000E+00  0.45593999997E+02  0.45594000000E+02  0.51100000000E-03 0.  1.
         11   -1    0    0    0    0 -0.00000000000E+00 -0.00000000000E+00 -0.45593999997E+02  0.45594000000E+02  0.51100000000E-03 0. -1.
    9900012    2    1    2    0    0 -0.14877001237E+02 -0.21566208237E+02  0.34600531208E+02  0.47787271165E+02  0.20000000549E+02 0.  0.
         12    1    1    2    0    0  0.14877001237E+02  0.21566208237E+02 -0.34600531208E+02  0.43400728835E+02  0.00000000000E+00 0. -1.
         11    1    3    3    0    0 -0.96605372775E+01 -0.21843754991E+02  0.18093310893E+02  0.29964036977E+02  0.51100000000E-03 0. -1.
        -11    1    3    3    0    0 -0.54576226006E+01  0.64586807002E+00  0.10980562921E+02  0.12279069686E+02  0.51100000000E-03 0.  1.
        -12    1    3    3    0    0  0.24115864144E+00 -0.36832131593E+00  0.55266573934E+01  0.55441645021E+01  0.00000000000E+00 0.  1.
</event>
<event>
 7    1  0.2751796E-010  0.4778728E+02  0.7816164E-02  0.1312668E+00
        -11   -1    0    0    0    0  0.00000000000E+00  0.00000000000E+00  0.45593999997E+02  0.45594000000E+02  0.51100000000E-03 0.  1.
         11   -1    0    0    0    0 -0.00000000000E+00 -0.00000000000E+00 -0.45593999997E+02  0.45594000000E+02  0.51100000000E-03 0. -1.
    9900012    2    1    2    0    0 -0.84081355689E+00 -0.19054692962E+01  0.43350713677E+02  0.47787283912E+02  0.20000058668E+02 0.  0.
         12    1    1    2    0    0  0.84081355689E+00  0.19054692962E+01 -0.43350713677E+02  0.43400716088E+02  0.00000000000E+00 0. -1.
         11    1    3    3    0    0  0.49444726445E+01 -0.55150067096E+01  0.13084233965E+02  0.15035301375E+02  0.51100000000E-03 0. -1.
        -11    1    3    3    0    0 -0.25460645701E+01  0.24416415105E+01  0.28790224259E+02  0.29005535182E+02  0.51100000000E-03 0.  1.
        -12    1    3    3    0    0 -0.32392216313E+01  0.11678959029E+01  0.14762554526E+01  0.37464473542E+01  0.00000000000E+00 0.  1.
</event>
<event>
 7    1  0.2751796E-010  0.4778727E+02  0.7816164E-02  0.1312668E+00
        -11   -1    0    0    0    0  0.00000000000E+00  0.00000000000E+00  0.45593999997E+02  0.45594000000E+02  0.51100000000E-03 0.  1.
         11   -1    0    0    0    0 -0.00000000000E+00 -0.00000000000E+00 -0.45593999997E+02  0.45594000000E+02  0.51100000000E-03 0. -1.
    9900012    2    1    2    0    0 -0.36054958018E+02 -0.17962129483E+02  0.16156265810E+02  0.47787273990E+02  0.20000013432E+02 0.  0.
         12    1    1    2    0    0  0.36054958018E+02  0.17962129483E+02 -0.16156265810E+02  0.43400726010E+02  0.00000000000E+00 0. -1.
         11    1    3    3    0    0 -0.86473173988E+01  0.22724881485E+01  0.45909452796E+01  0.10050725317E+02  0.51100000000E-03 0. -1.
        -11    1    3    3    0    0 -0.20708786022E+02 -0.19791500453E+02  0.11890511919E+02  0.31015183099E+02  0.51100000000E-03 0.  1.
        -12    1    3    3    0    0 -0.66988545971E+01 -0.44311717808E+00 -0.32519138796E+00  0.67213655745E+01  0.00000000000E+00 0.  1.
</event>
<event>
 7    1  0.2751796E-010  0.4778727E+02  0.7816164E-02  0.1312668E+00
        -11   -1    0    0    0    0  0.00000000000E+00  0.00000000000E+00  0.45593999997E+02  0.45594000000E+02  0.51100000000E-03 0. -1.
         11   -1    0    0    0    0 -0.00000000000E+00 -0.00000000000E+00 -0.45593999997E+02  0.45594000000E+02  0.51100000000E-03 0.  1.
    9900012    2    1    2    0    0  0.16436296101E+02  0.32051447859E+02  0.24211071829E+02  0.47787272605E+02  0.20000007114E+02 0.  0.
         12    1    1    2    0    0 -0.16436296101E+02 -0.32051447859E+02 -0.24211071829E+02  0.43400727395E+02  0.00000000000E+00 0. -1.
         11    1    3    3    0    0  0.84187882196E+01  0.22731339784E+02  0.71513795065E+01  0.25273148450E+02  0.51100000000E-03 0. -1.
        -11    1    3    3    0    0  0.48729422958E+00  0.56178224821E+01  0.10285555450E+02  0.11729877932E+02  0.51100000000E-03 0.  1.
         12    1    3    3    0    0  0.75302136517E+01  0.37022855925E+01  0.67741368717E+01  0.10784246223E+02  0.00000000000E+00 0. -1.
</event>
<event>
 7    1  0.2751796E-010  0.4778727E+02  0.7816164E-02  0.1312668E+00
        -11   -1    0    0    0    0  0.00000000000E+00  0.00000000000E+00  0.45593999997E+02  0.45594000000E+02  0.51100000000E-03 0. -1.
         11   -1    0    0    0    0 -0.00000000000E+00 -0.00000000000E+00 -0.45593999997E+02  0.45594000000E+02  0.51100000000E-03 0.  1.
    9900012    2    1    2    0    0  0.10914465729E+02 -0.32043792308E+02 -0.27160506612E+02  0.47787270662E+02  0.19999998258E+02 0.  0.
         12    1    1    2    0    0 -0.10914465729E+02  0.32043792308E+02  0.27160506612E+02  0.43400729338E+02  0.00000000000E+00 0. -1.
         11    1    3    3    0    0  0.45194739735E+01 -0.22866877085E+02 -0.25992611882E+02  0.34913258016E+02  0.51100000000E-03 0. -1.
        -11    1    3    3    0    0  0.44481657651E+01 -0.93413547240E+01 -0.23235497411E+01  0.10604054433E+02  0.51100000000E-03 0.  1.
         12    1    3    3    0    0  0.19468259901E+01  0.16443950071E+00  0.11556550113E+01  0.22699582133E+01  0.00000000000E+00 0. -1.
</event>
<event>
 7    1  0.2751796E-010  0.4778727E+02  0.7816164E-02  0.1312668E+00
        -11   -1    0    0    0    0  0.00000000000E+00  0.00000000000E+00  0.45593999997E+02  0.45594000000E+02  0.51100000000E-03 0.  1.
         11   -1    0    0    0    0 -0.00000000000E+00 -0.00000000000E+00 -0.45593999997E+02  0.45594000000E+02  0.51100000000E-03 0. -1.
    9900012    2    1    2    0    0  0.34860326229E+02  0.18713425907E+02 -0.17837843279E+02  0.47787270665E+02  0.19999998268E+02 0.  0.
         12    1    1    2    0    0 -0.34860326229E+02 -0.18713425907E+02  0.17837843279E+02  0.43400729335E+02  0.00000000000E+00 0. -1.
         11    1    3    3    0    0  0.14580802370E+02  0.10507433376E+02 -0.11601761795E+02  0.21391746794E+02  0.51100000000E-03 0. -1.
        -11    1    3    3    0    0 -0.17678994252E+01 -0.14032267409E-01  0.64201687023E+00  0.18809176497E+01  0.51100000000E-03 0.  1.
        -12    1    3    3    0    0  0.22047423284E+02  0.82200247988E+01 -0.68780983542E+01  0.24514606220E+02  0.00000000000E+00 0.  1.
</event>
<event>
 7    1  0.2751796E-010  0.4778727E+02  0.7816164E-02  0.1312668E+00
        -11   -1    0    0    0    0  0.00000000000E+00  0.00000000000E+00  0.45593999997E+02  0.45594000000E+02  0.51100000000E-03 0.  1.
         11   -1    0    0    0    0 -0.00000000000E+00 -0.00000000000E+00 -0.45593999997E+02  0.45594000000E+02  0.51100000000E-03 0. -1.
    9900012    2    1    2    0    0  0.12626543763E+02  0.38759156487E+02  0.14897024875E+02  0.47787272251E+02  0.20000005503E+02 0.  0.
         12    1    1    2    0    0 -0.12626543763E+02 -0.38759156487E+02 -0.14897024875E+02  0.43400727749E+02  0.00000000000E+00 0. -1.
         11    1    3    3    0    0  0.72701721206E+01  0.11078548617E+02  0.11932906576E+02  0.17832103121E+02  0.51100000000E-03 0. -1.
        -11    1    3    3    0    0  0.14418513160E+01  0.13016845453E+02  0.61158773816E+01  0.14454105201E+02  0.51100000000E-03 0.  1.
         12    1    3    3    0    0  0.39145203262E+01  0.14663762417E+02 -0.31517590821E+01  0.15501063929E+02  0.00000000000E+00 0. -1.
</event>
<event>
 7    1  0.2751796E-010  0.4778727E+02  0.7816164E-02  0.1312668E+00
        -11   -1    0    0    0    0  0.00000000000E+00  0.00000000000E+00  0.45593999997E+02  0.45594000000E+02  0.51100000000E-03 0.  1.
         11   -1    0    0    0    0 -0.00000000000E+00 -0.00000000000E+00 -0.45593999997E+02  0.45594000000E+02  0.51100000000E-03 0. -1.
    9900012    2    1    2    0    0  0.31670959116E+02 -0.17022835289E+02  0.24306317187E+02  0.47787266968E+02  0.19999981412E+02 0.  0.
         12    1    1    2    0    0 -0.31670959116E+02  0.17022835289E+02 -0.24306317187E+02  0.43400733032E+02  0.00000000000E+00 0. -1.
         11    1    3    3    0    0  0.10703886379E+02  0.13190945049E+01  0.11009161731E+02  0.15411516350E+02  0.51100000000E-03 0. -1.
        -11    1    3    3    0    0  0.21387036737E+02 -0.18583756958E+02  0.11608487778E+02  0.30618921467E+02  0.51100000000E-03 0.  1.
         12    1    3    3    0    0 -0.41996400052E+00  0.24182716374E+00  0.16886676774E+01  0.17568291504E+01  0.00000000000E+00 0. -1.
</event>
<event>
 7    1  0.2751796E-010  0.4778727E+02  0.7816164E-02  0.1312668E+00
        -11   -1    0    0    0    0  0.00000000000E+00  0.00000000000E+00  0.45593999997E+02  0.45594000000E+02  0.51100000000E-03 0. -1.
         11   -1    0    0    0    0 -0.00000000000E+00 -0.00000000000E+00 -0.45593999997E+02  0.45594000000E+02  0.51100000000E-03 0.  1.
    9900012    2    1    2    0    0  0.38295405832E+02  0.19105279471E+02  0.72162269866E+01  0.47787265635E+02  0.19999975337E+02 0.  0.
         12    1    1    2    0    0 -0.38295405832E+02 -0.19105279471E+02 -0.72162269866E+01  0.43400734365E+02  0.00000000000E+00 0. -1.
         11    1    3    3    0    0  0.82984992599E+01  0.77119453084E+01 -0.59664267554E+01  0.12803805641E+02  0.51100000000E-03 0. -1.
        -11    1    3    3    0    0  0.23363746837E+02  0.93005972695E+01  0.82844690901E+01  0.26476370677E+02  0.51100000000E-03 0.  1.
         12    1    3    3    0    0  0.66331597345E+01  0.20927368933E+01  0.48981846519E+01  0.85070893172E+01  0.00000000000E+00 0. -1.
</event>
<event>
 7    1  0.2751796E-010  0.4778725E+02  0.7816164E-02  0.1312668E+00
        -11   -1    0    0    0    0  0.00000000000E+00  0.00000000000E+00  0.45593999997E+02  0.45594000000E+02  0.51100000000E-03 0. -1.
         11   -1    0    0    0    0 -0.00000000000E+00 -0.00000000000E+00 -0.45593999997E+02  0.45594000000E+02  0.51100000000E-03 0.  1.
    9900012    2    1    2    0    0 -0.20296657390E+02 -0.37918397442E+02  0.58194159979E+01  0.47787253827E+02  0.19999921500E+02 0.  0.
         12    1    1    2    0    0  0.20296657390E+02  0.37918397442E+02 -0.58194159979E+01  0.43400746173E+02  0.00000000000E+00 0. -1.
         11    1    3    3    0    0 -0.15703067586E+02 -0.98871740937E+01  0.48989741289E+01  0.19192250804E+02  0.51100000000E-03 0. -1.
        -11    1    3    3    0    0 -0.35771879393E+01 -0.21536384320E+02  0.20396578474E+01  0.21926521100E+02  0.51100000000E-03 0.  1.
         12    1    3    3    0    0 -0.10164018654E+01 -0.64948390283E+01 -0.11192159784E+01  0.66684819234E+01  0.00000000000E+00 0. -1.
</event>
<event>
 7    1  0.2751796E-010  0.4778727E+02  0.7816164E-02  0.1312668E+00
        -11   -1    0    0    0    0  0.00000000000E+00  0.00000000000E+00  0.45593999997E+02  0.45594000000E+02  0.51100000000E-03 0.  1.
         11   -1    0    0    0    0 -0.00000000000E+00 -0.00000000000E+00 -0.45593999997E+02  0.45594000000E+02  0.51100000000E-03 0. -1.
    9900012    2    1    2    0    0 -0.19890930019E+02 -0.27642347749E+02  0.26904926407E+02  0.47787267851E+02  0.19999985439E+02 0.  0.
         12    1    1    2    0    0  0.19890930019E+02  0.27642347749E+02 -0.26904926407E+02  0.43400732149E+02  0.00000000000E+00 0. -1.
         11    1    3    3    0    0 -0.10912794733E+02 -0.15034499902E+02  0.48644359615E+01  0.19203854136E+02  0.51100000000E-03 0. -1.
        -11    1    3    3    0    0 -0.64038734821E+01 -0.75576768030E+01  0.60248838111E+01  0.11594278737E+02  0.51100000000E-03 0.  1.
         12    1    3    3    0    0 -0.25742618036E+01 -0.50501710439E+01  0.16015606634E+02  0.16989134977E+02  0.00000000000E+00 0. -1.
</event>
<event>
 7    1  0.2751796E-010  0.4778726E+02  0.7816164E-02  0.1312668E+00
        -11   -1    0    0    0    0  0.00000000000E+00  0.00000000000E+00  0.45593999997E+02  0.45594000000E+02  0.51100000000E-03 0. -1.
         11   -1    0    0    0    0 -0.00000000000E+00 -0.00000000000E+00 -0.45593999997E+02  0.45594000000E+02  0.51100000000E-03 0.  1.
    9900012    2    1    2    0    0 -0.30855592008E+02 -0.11252586331E+02 -0.28371388414E+02  0.47787263395E+02  0.19999965124E+02 0.  0.
         12    1    1    2    0    0  0.30855592008E+02  0.11252586331E+02  0.28371388414E+02  0.43400736605E+02  0.00000000000E+00 0. -1.
         11    1    3    3    0    0 -0.92718153921E+01 -0.51047887753E+01 -0.39849140115E+01  0.11309507905E+02  0.51100000000E-03 0. -1.
        -11    1    3    3    0    0 -0.23152719752E+02 -0.67046218784E+01 -0.24977322567E+02  0.34711194582E+02  0.51100000000E-03 0.  1.
        -12    1    3    3    0    0  0.15689431361E+01  0.55682432226E+00  0.59084816451E+00  0.17665609085E+01  0.00000000000E+00 0.  1.
</event>
<event>
 7    1  0.2751796E-010  0.4778727E+02  0.7816164E-02  0.1312668E+00
        -11   -1    0    0    0    0  0.00000000000E+00  0.00000000000E+00  0.45593999997E+02  0.45594000000E+02  0.51100000000E-03 0. -1.
         11   -1    0    0    0    0 -0.00000000000E+00 -0.00000000000E+00 -0.45593999997E+02  0.45594000000E+02  0.51100000000E-03 0.  1.
    9900012    2    1    2    0    0 -0.14789066236E+02  0.31588264049E+02  0.25828049235E+02  0.47787273819E+02  0.20000012653E+02 0.  0.
         12    1    1    2    0    0  0.14789066236E+02 -0.31588264049E+02 -0.25828049235E+02  0.43400726181E+02  0.00000000000E+00 0. -1.
         11    1    3    3    0    0 -0.14243830929E+02  0.25293991591E+02  0.25932531065E+02  0.38925170492E+02  0.51100000000E-03 0. -1.
        -11    1    3    3    0    0 -0.27252182997E+01  0.25661675842E+01 -0.18846142355E+01  0.41909189838E+01  0.51100000000E-03 0.  1.
        -12    1    3    3    0    0  0.21799829924E+01  0.37281048734E+01  0.17801324052E+01  0.46711843438E+01  0.00000000000E+00 0.  1.
</event>
<event>
 7    1  0.2751796E-010  0.4778726E+02  0.7816164E-02  0.1312668E+00
        -11   -1    0    0    0    0  0.00000000000E+00  0.00000000000E+00  0.45593999997E+02  0.45594000000E+02  0.51100000000E-03 0.  1.
         11   -1    0    0    0    0 -0.00000000000E+00 -0.00000000000E+00 -0.45593999997E+02  0.45594000000E+02  0.51100000000E-03 0. -1.
    9900012    2    1    2    0    0 -0.41595289716E+02 -0.12133789228E+02  0.24954740900E+01  0.47787258549E+02  0.19999943029E+02 0.  0.
         12    1    1    2    0    0  0.41595289716E+02  0.12133789228E+02 -0.24954740900E+01  0.43400741451E+02  0.00000000000E+00 0. -1.
         11    1    3    3    0    0 -0.10194973301E+01 -0.46643388199E+01  0.49053389198E+00  0.47995890650E+01  0.51100000000E-03 0. -1.
        -11    1    3    3    0    0 -0.26734576157E+02 -0.23112894141E+01  0.63798709660E+01  0.27582283713E+02  0.51100000000E-03 0.  1.
        -12    1    3    3    0    0 -0.13841216229E+02 -0.51581609936E+01 -0.43749307680E+01  0.15405385771E+02  0.00000000000E+00 0.  1.
</event>
<event>
 7    1  0.2751796E-010  0.4778727E+02  0.7816164E-02  0.1312668E+00
        -11   -1    0    0    0    0  0.00000000000E+00  0.00000000000E+00  0.45593999997E+02  0.45594000000E+02  0.51100000000E-03 0.  1.
         11   -1    0    0    0    0 -0.00000000000E+00 -0.00000000000E+00 -0.45593999997E+02  0.45594000000E+02  0.51100000000E-03 0. -1.
    9900012    2    1    2    0    0 -0.34476276027E+02 -0.12979187101E+02  0.22946688035E+02  0.47787269611E+02  0.19999993466E+02 0.  0.
         12    1    1    2    0    0  0.34476276027E+02  0.12979187101E+02 -0.22946688035E+02  0.43400730389E+02  0.00000000000E+00 0. -1.
         11    1    3    3    0    0 -0.24278803117E+02 -0.55277051387E+01  0.93570641534E+01  0.26600196517E+02  0.51100000000E-03 0. -1.
        -11    1    3    3    0    0 -0.10858336194E+02 -0.90378057913E+01  0.13376392228E+02  0.19455417439E+02  0.51100000000E-03 0.  1.
         12    1    3    3    0    0  0.66086328480E+00  0.15863238286E+01  0.21323165309E+00  0.17316556552E+01  0.00000000000E+00 0. -1.
</event>
<event>
 7    1  0.2751796E-010  0.4778730E+02  0.7816164E-02  0.1312668E+00
        -11   -1    0    0    0    0  0.00000000000E+00  0.00000000000E+00  0.45593999997E+02  0.45594000000E+02  0.51100000000E-03 0.  1.
         11   -1    0    0    0    0 -0.00000000000E+00 -0.00000000000E+00 -0.45593999997E+02  0.45594000000E+02  0.51100000000E-03 0. -1.
    9900012    2    1    2    0    0 -0.18918834921E+02 -0.38328051638E+02 -0.75272149689E+01  0.47787299288E+02  0.20000128773E+02 0.  0.
         12    1    1    2    0    0  0.18918834921E+02  0.38328051638E+02  0.75272149689E+01  0.43400700712E+02  0.00000000000E+00 0. -1.
         11    1    3    3    0    0 -0.22495847088E-01 -0.37942284294E+01 -0.60834245248E+01  0.71697091746E+01  0.51100000000E-03 0. -1.
        -11    1    3    3    0    0 -0.80903941889E+01 -0.13018667616E+02 -0.53332545672E+01  0.16229103153E+02  0.51100000000E-03 0.  1.
         12    1    3    3    0    0 -0.10805944885E+02 -0.21515155593E+02  0.38894641231E+01  0.24388486960E+02  0.00000000000E+00 0. -1.
</event>
<event>
 7    1  0.2751796E-010  0.4778728E+02  0.7816164E-02  0.1312668E+00
        -11   -1    0    0    0    0  0.00000000000E+00  0.00000000000E+00  0.45593999997E+02  0.45594000000E+02  0.51100000000E-03 0.  1.
         11   -1    0    0    0    0 -0.00000000000E+00 -0.00000000000E+00 -0.45593999997E+02  0.45594000000E+02  0.51100000000E-03 0. -1.
    9900012    2    1    2    0    0  0.18189613515E+02 -0.23802415811E+02  0.31403908497E+02  0.47787279878E+02  0.20000040274E+02 0.  0.
         12    1    1    2    0    0 -0.18189613515E+02  0.23802415811E+02 -0.31403908497E+02  0.43400720122E+02  0.00000000000E+00 0. -1.
         11    1    3    3    0    0  0.97132911481E+01 -0.10456906272E+02  0.34832142172E+01  0.14691075360E+02  0.51100000000E-03 0. -1.
        -11    1    3    3    0    0  0.98690481718E+01 -0.12326202650E+02  0.23145586770E+02  0.28018771757E+02  0.51100000000E-03 0.  1.
         12    1    3    3    0    0 -0.13927258053E+01 -0.10193068899E+01  0.47751075096E+01  0.50774327601E+01  0.00000000000E+00 0. -1.
</event>
<event>
 7    1  0.2751796E-010  0.4778727E+02  0.7816164E-02  0.1312668E+00
        -11   -1    0    0    0    0  0.00000000000E+00  0.00000000000E+00  0.45593999997E+02  0.45594000000E+02  0.51100000000E-03 0.  1.
         11   -1    0    0    0    0 -0.00000000000E+00 -0.00000000000E+00 -0.45593999997E+02  0.45594000000E+02  0.51100000000E-03 0. -1.
    9900012    2    1    2    0    0  0.17089066182E+02 -0.23339343435E+02  0.32355251667E+02  0.47787269068E+02  0.19999990990E+02 0.  0.
         12    1    1    2    0    0 -0.17089066182E+02  0.23339343435E+02 -0.32355251667E+02  0.43400730932E+02  0.00000000000E+00 0. -1.
         11    1    3    3    0    0  0.18656375138E+02 -0.10297757864E+02  0.18567966781E+02  0.28264351062E+02  0.51100000000E-03 0. -1.
        -11    1    3    3    0    0  0.79763734946E+00 -0.91346097335E+01  0.81501280276E+01  0.12267921888E+02  0.51100000000E-03 0.  1.
         12    1    3    3    0    0 -0.23649463057E+01 -0.39069758374E+01  0.56371568589E+01  0.72549961182E+01  0.00000000000E+00 0. -1.
</event>
<event>
 7    1  0.2751796E-010  0.4778730E+02  0.7816164E-02  0.1312668E+00
        -11   -1    0    0    0    0  0.00000000000E+00  0.00000000000E+00  0.45593999997E+02  0.45594000000E+02  0.51100000000E-03 0.  1.
         11   -1    0    0    0    0 -0.00000000000E+00 -0.00000000000E+00 -0.45593999997E+02  0.45594000000E+02  0.51100000000E-03 0. -1.
    9900012    2    1    2    0    0  0.24129275080E+02  0.17184115389E+02  0.31719164650E+02  0.47787295586E+02  0.20000111893E+02 0.  0.
         12    1    1    2    0    0 -0.24129275080E+02 -0.17184115389E+02 -0.31719164650E+02  0.43400704414E+02  0.00000000000E+00 0. -1.
         11    1    3    3    0    0  0.14986740552E+02  0.16569046991E+02  0.18018466802E+02  0.28701931237E+02  0.51100000000E-03 0. -1.
        -11    1    3    3    0    0  0.10580803118E+02  0.19979274543E+01  0.13187616367E+02  0.17025226414E+02  0.51100000000E-03 0.  1.
         12    1    3    3    0    0 -0.14382685900E+01 -0.13828590562E+01  0.51308148077E+00  0.20601379353E+01  0.00000000000E+00 0. -1.
</event>
<event>
 7    1  0.2751796E-010  0.4778727E+02  0.7816164E-02  0.1312668E+00
        -11   -1    0    0    0    0  0.00000000000E+00  0.00000000000E+00  0.45593999997E+02  0.45594000000E+02  0.51100000000E-03 0.  1.
         11   -1    0    0    0    0 -0.00000000000E+00 -0.00000000000E+00 -0.45593999997E+02  0.45594000000E+02  0.51100000000E-03 0. -1.
    9900012    2    1    2    0    0  0.13358852393E+01  0.12453932692E+02  0.41554036980E+02  0.47787273990E+02  0.20000013430E+02 0.  0.
         12    1    1    2    0    0 -0.13358852393E+01 -0.12453932692E+02 -0.41554036980E+02  0.43400726010E+02  0.00000000000E+00 0. -1.
         11    1    3    3    0    0  0.13965529241E+01  0.48700250828E+00  0.30171050884E+00  0.15094903130E+01  0.51100000000E-03 0. -1.
        -11    1    3    3    0    0  0.79632967290E+01  0.21216287216E+01  0.17480725464E+02  0.19325919544E+02  0.51100000000E-03 0.  1.
        -12    1    3    3    0    0 -0.80239644138E+01  0.98453014620E+01  0.23771601007E+02  0.26951864133E+02  0.00000000000E+00 0.  1.
</event>
<event>
 7    1  0.2751796E-010  0.4778727E+02  0.7816164E-02  0.1312668E+00
        -11   -1    0    0    0    0  0.00000000000E+00  0.00000000000E+00  0.45593999997E+02  0.45594000000E+02  0.51100000000E-03 0. -1.
         11   -1    0    0    0    0 -0.00000000000E+00 -0.00000000000E+00 -0.45593999997E+02  0.45594000000E+02  0.51100000000E-03 0.  1.
    9900012    2    1    2    0    0 -0.29184252092E+02  0.30023315005E+02  0.11423793324E+02  0.47787273417E+02  0.20000010816E+02 0.  0.
         12    1    1    2    0    0  0.29184252092E+02 -0.30023315005E+02 -0.11423793324E+02  0.43400726583E+02  0.00000000000E+00 0. -1.
         11    1    3    3    0    0 -0.10119695812E+02  0.22940177423E+01  0.65101874238E+01  0.12249624536E+02  0.51100000000E-03 0. -1.
        -11    1    3    3    0    0 -0.17010821468E+02  0.21933125261E+02  0.76729801284E+01  0.28797650166E+02  0.51100000000E-03 0.  1.
         12    1    3    3    0    0 -0.20537348127E+01  0.57961720011E+01 -0.27593742282E+01  0.67399987150E+01  0.00000000000E+00 0. -1.
</event>
<event>
 7    1  0.2751796E-010  0.4778727E+02  0.7816164E-02  0.1312668E+00
        -11   -1    0    0    0    0  0.00000000000E+00  0.00000000000E+00  0.45593999997E+02  0.45594000000E+02  0.51100000000E-03 0.  1.
         11   -1    0    0    0    0 -0.00000000000E+00 -0.00000000000E+00 -0.45593999997E+02  0.45594000000E+02  0.51100000000E-03 0. -1.
    9900012    2    1    2    0    0  0.10198530398E+02  0.80719923255E+01  0.41405995273E+02  0.47787268129E+02  0.19999986709E+02 0.  0.
         12    1    1    2    0    0 -0.10198530398E+02 -0.80719923255E+01 -0.41405995273E+02  0.43400731871E+02  0.00000000000E+00 0. -1.
         11    1    3    3    0    0  0.50295023754E+01 -0.39070416549E+01  0.32233734077E+01  0.71379972699E+01  0.51100000000E-03 0. -1.
        -11    1    3    3    0    0  0.29459755179E+01  0.82435076880E+01  0.18155334356E+02  0.20155653217E+02  0.51100000000E-03 0.  1.
        -12    1    3    3    0    0  0.22230525047E+01  0.37355262925E+01  0.20027287509E+02  0.20493617643E+02  0.00000000000E+00 0.  1.
</event>
<event>
 7    1  0.2751796E-010  0.4778727E+02  0.7816164E-02  0.1312668E+00
        -11   -1    0    0    0    0  0.00000000000E+00  0.00000000000E+00  0.45593999997E+02  0.45594000000E+02  0.51100000000E-03 0.  1.
         11   -1    0    0    0    0 -0.00000000000E+00 -0.00000000000E+00 -0.45593999997E+02  0.45594000000E+02  0.51100000000E-03 0. -1.
    9900012    2    1    2    0    0  0.40480008563E+02  0.15599768280E+02 -0.12805466012E+01  0.47787266558E+02  0.19999979547E+02 0.  0.
         12    1    1    2    0    0 -0.40480008563E+02 -0.15599768280E+02  0.12805466012E+01  0.43400733442E+02  0.00000000000E+00 0. -1.
         11    1    3    3    0    0  0.35510974397E+00 -0.22943277237E+01  0.10853806789E+01  0.25628293180E+01  0.51100000000E-03 0. -1.
        -11    1    3    3    0    0  0.15496861779E+02  0.89597566418E+01  0.38243305635E+01  0.18304520442E+02  0.51100000000E-03 0.  1.
         12    1    3    3    0    0  0.24628037040E+02  0.89343393614E+01 -0.61902578436E+01  0.26919916799E+02  0.00000000000E+00 0. -1.
</event>
<event>
 7    1  0.2751796E-010  0.4778727E+02  0.7816164E-02  0.1312668E+00
        -11   -1    0    0    0    0  0.00000000000E+00  0.00000000000E+00  0.45593999997E+02  0.45594000000E+02  0.51100000000E-03 0. -1.
         11   -1    0    0    0    0 -0.00000000000E+00 -0.00000000000E+00 -0.45593999997E+02  0.45594000000E+02  0.51100000000E-03 0.  1.
    9900012    2    1    2    0    0 -0.17210871529E+02  0.30023081980E+02 -0.26192057199E+02  0.47787269468E+02  0.19999992814E+02 0.  0.
         12    1    1    2    0    0  0.17210871529E+02 -0.30023081980E+02  0.26192057199E+02  0.43400730532E+02  0.00000000000E+00 0. -1.
         11    1    3    3    0    0 -0.70305560720E+01  0.14586819821E+02 -0.14342639307E+01  0.16256110988E+02  0.51100000000E-03 0. -1.
        -11    1    3    3    0    0 -0.58124937807E+01  0.13307393793E+02 -0.16789020078E+02  0.22197815409E+02  0.51100000000E-03 0.  1.
         12    1    3    3    0    0 -0.43678216766E+01  0.21288683660E+01 -0.79687731904E+01  0.93333430709E+01  0.00000000000E+00 0. -1.
</event>
<event>
 7    1  0.2751796E-010  0.4778727E+02  0.7816164E-02  0.1312668E+00
        -11   -1    0    0    0    0  0.00000000000E+00  0.00000000000E+00  0.45593999997E+02  0.45594000000E+02  0.51100000000E-03 0.  1.
         11   -1    0    0    0    0 -0.00000000000E+00 -0.00000000000E+00 -0.45593999997E+02  0.45594000000E+02  0.51100000000E-03 0. -1.
    9900012    2    1    2    0    0 -0.12338848203E+02  0.37947755680E+02 -0.17068812699E+02  0.47787266100E+02  0.19999977456E+02 0.  0.
         12    1    1    2    0    0  0.12338848203E+02 -0.37947755680E+02  0.17068812699E+02  0.43400733900E+02  0.00000000000E+00 0. -1.
         11    1    3    3    0    0  0.41384674727E+01  0.49390405282E+01 -0.47936732931E+01  0.80312102615E+01  0.51100000000E-03 0. -1.
        -11    1    3    3    0    0 -0.35484525298E+01  0.86799348062E+01 -0.70072748324E+01  0.11706181463E+02  0.51100000000E-03 0.  1.
         12    1    3    3    0    0 -0.12928863146E+02  0.24328780345E+02 -0.52678645738E+01  0.28049874376E+02  0.00000000000E+00 0. -1.
</event>
<event>
 7    1  0.2751796E-010  0.4778728E+02  0.7816164E-02  0.1312668E+00
        -11   -1    0    0    0    0  0.00000000000E+00  0.00000000000E+00  0.45593999997E+02  0.45594000000E+02  0.51100000000E-03 0. -1.
         11   -1    0    0    0    0 -0.00000000000E+00 -0.00000000000E+00 -0.45593999997E+02  0.45594000000E+02  0.51100000000E-03 0.  1.
    9900012    2    1    2    0    0  0.16234958878E+02 -0.35269513597E+02 -0.19393565741E+02  0.47787275682E+02  0.20000021147E+02 0.  0.
         12    1    1    2    0    0 -0.16234958878E+02  0.35269513597E+02  0.19393565741E+02  0.43400724318E+02  0.00000000000E+00 0. -1.
         11    1    3    3    0    0  0.43093770995E+01 -0.24407384540E+02 -0.11476193806E+02  0.27312893944E+02  0.51100000000E-03 0. -1.
        -11    1    3    3    0    0  0.11565745976E+02 -0.43519871917E+01 -0.49793458546E+01  0.13322918520E+02  0.51100000000E-03 0.  1.
        -12    1    3    3    0    0  0.35983580279E+00 -0.65101418649E+01 -0.29380260801E+01  0.71514632176E+01  0.00000000000E+00 0.  1.
</event>
<event>
 7    1  0.2751796E-010  0.4778727E+02  0.7816164E-02  0.1312668E+00
        -11   -1    0    0    0    0  0.00000000000E+00  0.00000000000E+00  0.45593999997E+02  0.45594000000E+02  0.51100000000E-03 0.  1.
         11   -1    0    0    0    0 -0.00000000000E+00 -0.00000000000E+00 -0.45593999997E+02  0.45594000000E+02  0.51100000000E-03 0. -1.
    9900012    2    1    2    0    0 -0.68063655501E+01  0.37968596108E+02 -0.19891773081E+02  0.47787267993E+02  0.19999986088E+02 0.  0.
         12    1    1    2    0    0  0.68063655501E+01 -0.37968596108E+02  0.19891773081E+02  0.43400732007E+02  0.00000000000E+00 0. -1.
         11    1    3    3    0    0  0.40272068158E+01  0.32219134997E+01 -0.68305743833E+01  0.85589641899E+01  0.51100000000E-03 0. -1.
        -11    1    3    3    0    0 -0.10418648591E+02  0.23662381023E+02 -0.82621707876E+01  0.27142586106E+02  0.51100000000E-03 0.  1.
         12    1    3    3    0    0 -0.41492377505E+00  0.11084301586E+02 -0.47990279097E+01  0.12085717698E+02  0.00000000000E+00 0. -1.
</event>
<event>
 7    1  0.2751796E-010  0.4778727E+02  0.7816164E-02  0.1312668E+00
        -11   -1    0    0    0    0  0.00000000000E+00  0.00000000000E+00  0.45593999997E+02  0.45594000000E+02  0.51100000000E-03 0.  1.
         11   -1    0    0    0    0 -0.00000000000E+00 -0.00000000000E+00 -0.45593999997E+02  0.45594000000E+02  0.51100000000E-03 0. -1.
    9900012    2    1    2    0    0  0.19820482846E+02 -0.15007514835E+02  0.35574516822E+02  0.47787270871E+02  0.19999999209E+02 0.  0.
         12    1    1    2    0    0 -0.19820482846E+02  0.15007514835E+02 -0.35574516822E+02  0.43400729129E+02  0.00000000000E+00 0. -1.
         11    1    3    3    0    0  0.85589200384E+00 -0.17202836640E+01 -0.17527818705E+01  0.26008020981E+01  0.51100000000E-03 0. -1.
        -11    1    3    3    0    0 -0.10435130363E+01 -0.15127944290E+01  0.54492293588E+01  0.57507884074E+01  0.51100000000E-03 0.  1.
         12    1    3    3    0    0  0.20008103879E+02 -0.11774436742E+02  0.31878069334E+02  0.39435680365E+02  0.00000000000E+00 0. -1.
</event>
<event>
 7    1  0.2751796E-010  0.4778728E+02  0.7816164E-02  0.1312668E+00
        -11   -1    0    0    0    0  0.00000000000E+00  0.00000000000E+00  0.45593999997E+02  0.45594000000E+02  0.51100000000E-03 0. -1.
         11   -1    0    0    0    0 -0.00000000000E+00 -0.00000000000E+00 -0.45593999997E+02  0.45594000000E+02  0.51100000000E-03 0.  1.
    9900012    2    1    2    0    0 -0.24503531219E+02 -0.35514317385E+02 -0.46832439627E+01  0.47787279320E+02  0.20000037731E+02 0.  0.
         12    1    1    2    0    0  0.24503531219E+02  0.35514317385E+02  0.46832439627E+01  0.43400720680E+02  0.00000000000E+00 0. -1.
         11    1    3    3    0    0 -0.27379694121E+01  0.19274098966E+01  0.15982022036E+01  0.37102069964E+01  0.51100000000E-03 0. -1.
        -11    1    3    3    0    0 -0.17772847691E+02 -0.32409238986E+02 -0.36763814445E+01  0.37144968266E+02  0.51100000000E-03 0.  1.
        -12    1    3    3    0    0 -0.39927141159E+01 -0.50324882961E+01 -0.26050647219E+01  0.69321040578E+01  0.00000000000E+00 0.  1.
</event>
<event>
 7    1  0.2751796E-010  0.4778727E+02  0.7816164E-02  0.1312668E+00
        -11   -1    0    0    0    0  0.00000000000E+00  0.00000000000E+00  0.45593999997E+02  0.45594000000E+02  0.51100000000E-03 0.  1.
         11   -1    0    0    0    0 -0.00000000000E+00 -0.00000000000E+00 -0.45593999997E+02  0.45594000000E+02  0.51100000000E-03 0. -1.
    9900012    2    1    2    0    0  0.15019122274E+02 -0.26404812334E+02  0.30997339072E+02  0.47787272151E+02  0.20000005046E+02 0.  0.
         12    1    1    2    0    0 -0.15019122274E+02  0.26404812334E+02 -0.30997339072E+02  0.43400727849E+02  0.00000000000E+00 0. -1.
         11    1    3    3    0    0 -0.36624311852E+01 -0.22680669370E+00  0.34240214885E+01  0.50188411887E+01  0.51100000000E-03 0. -1.
        -11    1    3    3    0    0  0.11888080395E+02 -0.18149394177E+02  0.15001118895E+02  0.26377273036E+02  0.51100000000E-03 0.  1.
        -12    1    3    3    0    0  0.67934730641E+01 -0.80286114636E+01  0.12572198688E+02  0.16391157926E+02  0.00000000000E+00 0.  1.
</event>
<event>
 7    1  0.2751796E-010  0.4778727E+02  0.7816164E-02  0.1312668E+00
        -11   -1    0    0    0    0  0.00000000000E+00  0.00000000000E+00  0.45593999997E+02  0.45594000000E+02  0.51100000000E-03 0.  1.
         11   -1    0    0    0    0 -0.00000000000E+00 -0.00000000000E+00 -0.45593999997E+02  0.45594000000E+02  0.51100000000E-03 0. -1.
    9900012    2    1    2    0    0  0.59571178002E+01 -0.37231318690E+02  0.21493376987E+02  0.47787267308E+02  0.19999982965E+02 0.  0.
         12    1    1    2    0    0 -0.59571178002E+01  0.37231318690E+02 -0.21493376987E+02  0.43400732692E+02  0.00000000000E+00 0. -1.
         11    1    3    3    0    0  0.14576572002E+00 -0.22603144285E+02  0.43958617414E+01  0.23027092302E+02  0.51100000000E-03 0. -1.
        -11    1    3    3    0    0  0.63825208427E+01 -0.14651850238E+02  0.17755381682E+02  0.23888634675E+02  0.51100000000E-03 0.  1.
         12    1    3    3    0    0 -0.57116876252E+00  0.23675833113E-01 -0.65786643616E+00  0.87154033078E+00  0.00000000000E+00 0. -1.
</event>
<event>
 7    1  0.2751796E-010  0.4778727E+02  0.7816164E-02  0.1312668E+00
        -11   -1    0    0    0    0  0.00000000000E+00  0.00000000000E+00  0.45593999997E+02  0.45594000000E+02  0.51100000000E-03 0.  1.
         11   -1    0    0    0    0 -0.00000000000E+00 -0.00000000000E+00 -0.45593999997E+02  0.45594000000E+02  0.51100000000E-03 0. -1.
    9900012    2    1    2    0    0  0.11183651736E+02  0.23817140123E+02  0.34515114956E+02  0.47787269705E+02  0.19999993891E+02 0.  0.
         12    1    1    2    0    0 -0.11183651736E+02 -0.23817140123E+02 -0.34515114956E+02  0.43400730295E+02  0.00000000000E+00 0. -1.
         11    1    3    3    0    0  0.47053133394E+01 -0.64614428802E+00  0.35493351463E+01  0.59291868165E+01  0.51100000000E-03 0. -1.
        -11    1    3    3    0    0  0.86755896872E+01  0.24440329626E+02  0.27977455213E+02  0.38148834440E+02  0.51100000000E-03 0.  1.
        -12    1    3    3    0    0 -0.21972512908E+01  0.22954784299E-01  0.29883245967E+01  0.37092484484E+01  0.00000000000E+00 0.  1.
</event>
<event>
 7    1  0.2751796E-010  0.4778727E+02  0.7816164E-02  0.1312668E+00
        -11   -1    0    0    0    0  0.00000000000E+00  0.00000000000E+00  0.45593999997E+02  0.45594000000E+02  0.51100000000E-03 0. -1.
         11   -1    0    0    0    0 -0.00000000000E+00 -0.00000000000E+00 -0.45593999997E+02  0.45594000000E+02  0.51100000000E-03 0.  1.
    9900012    2    1    2    0    0  0.82601628696E+01 -0.35852236880E+02 -0.23021942210E+02  0.47787274164E+02  0.20000014225E+02 0.  0.
         12    1    1    2    0    0 -0.82601628696E+01  0.35852236880E+02  0.23021942210E+02  0.43400725836E+02  0.00000000000E+00 0. -1.
         11    1    3    3    0    0  0.51481637908E+01 -0.31011689281E+02 -0.95245016221E+01  0.32847292032E+02  0.51100000000E-03 0.  1.
        -11    1    3    3    0    0  0.13195411822E+01 -0.43201578991E+01 -0.89796662161E+01  0.10051833605E+02  0.51100000000E-03 0. -1.
        -12    1    3    3    0    0  0.17924578966E+01 -0.52038970059E+00 -0.45177743716E+01  0.48881485272E+01  0.00000000000E+00 0.  1.
</event>
<event>
 7    1  0.2751796E-010  0.4778727E+02  0.7816164E-02  0.1312668E+00
        -11   -1    0    0    0    0  0.00000000000E+00  0.00000000000E+00  0.45593999997E+02  0.45594000000E+02  0.51100000000E-03 0. -1.
         11   -1    0    0    0    0 -0.00000000000E+00 -0.00000000000E+00 -0.45593999997E+02  0.45594000000E+02  0.51100000000E-03 0.  1.
    9900012    2    1    2    0    0 -0.41822624675E+02  0.87554702496E+01 -0.76048133026E+01  0.47787269829E+02  0.19999994460E+02 0.  0.
         12    1    1    2    0    0  0.41822624675E+02 -0.87554702496E+01  0.76048133026E+01  0.43400730171E+02  0.00000000000E+00 0. -1.
         11    1    3    3    0    0 -0.35525685424E+02  0.85388662196E+01 -0.91149055091E+00  0.36548835500E+02  0.51100000000E-03 0. -1.
        -11    1    3    3    0    0 -0.31627632410E+01  0.28670972119E+01 -0.55030468207E+01  0.69646853707E+01  0.51100000000E-03 0.  1.
         12    1    3    3    0    0 -0.31341760100E+01 -0.26504931819E+01 -0.11902759310E+01  0.42737489586E+01  0.00000000000E+00 0. -1.
</event>
<event>
 7    1  0.2751796E-010  0.4778727E+02  0.7816164E-02  0.1312668E+00
        -11   -1    0    0    0    0  0.00000000000E+00  0.00000000000E+00  0.45593999997E+02  0.45594000000E+02  0.51100000000E-03 0. -1.
         11   -1    0    0    0    0 -0.00000000000E+00 -0.00000000000E+00 -0.45593999997E+02  0.45594000000E+02  0.51100000000E-03 0.  1.
    9900012    2    1    2    0    0 -0.30158470076E+02 -0.29634708778E+02 -0.97915287902E+01  0.47787270540E+02  0.19999997698E+02 0.  0.
         12    1    1    2    0    0  0.30158470076E+02  0.29634708778E+02  0.97915287902E+01  0.43400729460E+02  0.00000000000E+00 0. -1.
         11    1    3    3    0    0 -0.47650245399E+01 -0.79698577463E+01 -0.23945263464E+01  0.95894654725E+01  0.51100000000E-03 0.  1.
        -11    1    3    3    0    0 -0.86141144743E+01 -0.15027971754E+02  0.26840481385E+01  0.17528463078E+02  0.51100000000E-03 0. -1.
        -12    1    3    3    0    0 -0.16779331062E+02 -0.66368792775E+01 -0.10081050582E+02  0.20669341989E+02  0.00000000000E+00 0.  1.
</event>
<event>
 7    1  0.2751796E-010  0.4778728E+02  0.7816164E-02  0.1312668E+00
        -11   -1    0    0    0    0  0.00000000000E+00  0.00000000000E+00  0.45593999997E+02  0.45594000000E+02  0.51100000000E-03 0.  1.
         11   -1    0    0    0    0 -0.00000000000E+00 -0.00000000000E+00 -0.45593999997E+02  0.45594000000E+02  0.51100000000E-03 0. -1.
    9900012    2    1    2    0    0 -0.31754208561E+02 -0.12016966761E+02  0.27034883144E+02  0.47787283899E+02  0.20000058607E+02 0.  0.
         12    1    1    2    0    0  0.31754208561E+02  0.12016966761E+02 -0.27034883144E+02  0.43400716101E+02  0.00000000000E+00 0. -1.
         11    1    3    3    0    0 -0.90439913556E+01 -0.21202164138E+01  0.59209180517E-01  0.92893812103E+01  0.51100000000E-03 0. -1.
        -11    1    3    3    0    0 -0.27968067351E+01 -0.45815081158E+01  0.11607221004E+02  0.12788272918E+02  0.51100000000E-03 0.  1.
        -12    1    3    3    0    0 -0.19913410471E+02 -0.53152422318E+01  0.15368452960E+02  0.25709629770E+02  0.00000000000E+00 0.  1.
</event>
<event>
 7    1  0.2751796E-010  0.4778727E+02  0.7816164E-02  0.1312668E+00
        -11   -1    0    0    0    0  0.00000000000E+00  0.00000000000E+00  0.45593999997E+02  0.45594000000E+02  0.51100000000E-03 0.  1.
         11   -1    0    0    0    0 -0.00000000000E+00 -0.00000000000E+00 -0.45593999997E+02  0.45594000000E+02  0.51100000000E-03 0. -1.
    9900012    2    1    2    0    0  0.29609076592E+02  0.31713540296E+02 -0.10849566525E+01  0.47787272061E+02  0.20000004634E+02 0.  0.
         12    1    1    2    0    0 -0.29609076592E+02 -0.31713540296E+02  0.10849566525E+01  0.43400727939E+02  0.00000000000E+00 0. -1.
         11    1    3    3    0    0  0.21961473888E+02  0.14010762467E+02  0.20925049844E+01  0.26134008067E+02  0.51100000000E-03 0. -1.
        -11    1    3    3    0    0 -0.29263323401E+00  0.56669827838E+01 -0.44028275695E+01  0.71822850785E+01  0.51100000000E-03 0.  1.
        -12    1    3    3    0    0  0.79402359379E+01  0.12035795045E+02  0.12253659326E+01  0.14470978916E+02  0.00000000000E+00 0.  1.
</event>
<event>
 7    1  0.2751796E-010  0.4778727E+02  0.7816164E-02  0.1312668E+00
        -11   -1    0    0    0    0  0.00000000000E+00  0.00000000000E+00  0.45593999997E+02  0.45594000000E+02  0.51100000000E-03 0.  1.
         11   -1    0    0    0    0 -0.00000000000E+00 -0.00000000000E+00 -0.45593999997E+02  0.45594000000E+02  0.51100000000E-03 0. -1.
    9900012    2    1    2    0    0 -0.14919850549E+02 -0.38793824792E+02  0.12492406971E+02  0.47787274034E+02  0.20000013632E+02 0.  0.
         12    1    1    2    0    0  0.14919850549E+02  0.38793824792E+02 -0.12492406971E+02  0.43400725966E+02  0.00000000000E+00 0. -1.
         11    1    3    3    0    0 -0.49641212876E+01 -0.80746031142E+00  0.10030166705E+01  0.51284047242E+01  0.51100000000E-03 0. -1.
        -11    1    3    3    0    0 -0.32660656036E+01 -0.22362686320E+02  0.12133416156E+02  0.25651056739E+02  0.51100000000E-03 0.  1.
        -12    1    3    3    0    0 -0.66896636579E+01 -0.15623678161E+02 -0.64402585541E+00  0.17007812571E+02  0.00000000000E+00 0.  1.
</event>
<event>
 7    1  0.2751796E-010  0.4778727E+02  0.7816164E-02  0.1312668E+00
        -11   -1    0    0    0    0  0.00000000000E+00  0.00000000000E+00  0.45593999997E+02  0.45594000000E+02  0.51100000000E-03 0.  1.
         11   -1    0    0    0    0 -0.00000000000E+00 -0.00000000000E+00 -0.45593999997E+02  0.45594000000E+02  0.51100000000E-03 0. -1.
    9900012    2    1    2    0    0  0.91625562484E+01  0.24047471415E+02  0.34948386805E+02  0.47787273523E+02  0.20000011301E+02 0.  0.
         12    1    1    2    0    0 -0.91625562484E+01 -0.24047471415E+02 -0.34948386805E+02  0.43400726477E+02  0.00000000000E+00 0. -1.
         11    1    3    3    0    0 -0.17750665703E+01  0.39557182057E+01  0.67827269271E+01  0.80500902281E+01  0.51100000000E-03 0. -1.
        -11    1    3    3    0    0  0.53972558433E+01  0.20018999292E+02  0.15420044549E+02  0.25839281674E+02  0.51100000000E-03 0.  1.
        -12    1    3    3    0    0  0.55403669753E+01  0.72753917828E-01  0.12745615329E+02  0.13897901621E+02  0.00000000000E+00 0.  1.
</event>
<event>
 7    1  0.2751796E-010  0.4778723E+02  0.7816164E-02  0.1312668E+00
        -11   -1    0    0    0    0  0.00000000000E+00  0.00000000000E+00  0.45593999997E+02  0.45594000000E+02  0.51100000000E-03 0. -1.
         11   -1    0    0    0    0 -0.00000000000E+00 -0.00000000000E+00 -0.45593999997E+02  0.45594000000E+02  0.51100000000E-03 0.  1.
    9900012    2    1    2    0    0 -0.14959268397E+02 -0.18441519474E+01 -0.40699467577E+02  0.47787225025E+02  0.19999790179E+02 0.  0.
         12    1    1    2    0    0  0.14959268397E+02  0.18441519474E+01  0.40699467577E+02  0.43400774975E+02  0.00000000000E+00 0. -1.
         11    1    3    3    0    0 -0.80644280930E+01 -0.40336241954E+01 -0.20193770231E+02  0.22115457965E+02  0.51100000000E-03 0.  1.
        -11    1    3    3    0    0  0.13186323718E+01  0.22293832936E+00  0.15542348112E+01  0.20503997026E+01  0.51100000000E-03 0. -1.
        -12    1    3    3    0    0 -0.82134726754E+01  0.19665339186E+01 -0.22059932157E+02  0.23621367357E+02  0.00000000000E+00 0.  1.
</event>
<event>
 7    1  0.2751796E-010  0.4778727E+02  0.7816164E-02  0.1312668E+00
        -11   -1    0    0    0    0  0.00000000000E+00  0.00000000000E+00  0.45593999997E+02  0.45594000000E+02  0.51100000000E-03 0.  1.
         11   -1    0    0    0    0 -0.00000000000E+00 -0.00000000000E+00 -0.45593999997E+02  0.45594000000E+02  0.51100000000E-03 0. -1.
    9900012    2    1    2    0    0 -0.16352297537E+02  0.27347164374E+02  0.29467916408E+02  0.47787272685E+02  0.20000007478E+02 0.  0.
         12    1    1    2    0    0  0.16352297537E+02 -0.27347164374E+02 -0.29467916408E+02  0.43400727315E+02  0.00000000000E+00 0. -1.
         11    1    3    3    0    0 -0.28948274140E+01  0.10803292908E+02  0.11107697028E+02  0.15762997715E+02  0.51100000000E-03 0. -1.
        -11    1    3    3    0    0 -0.78861015783E+00  0.12832458208E+02  0.10935011900E+02  0.16878044174E+02  0.51100000000E-03 0.  1.
        -12    1    3    3    0    0 -0.12668859965E+02  0.37114132580E+01  0.74252074802E+01  0.15146230796E+02  0.00000000000E+00 0.  1.
</event>
<event>
 7    1  0.2751796E-010  0.4778727E+02  0.7816164E-02  0.1312668E+00
        -11   -1    0    0    0    0  0.00000000000E+00  0.00000000000E+00  0.45593999997E+02  0.45594000000E+02  0.51100000000E-03 0.  1.
         11   -1    0    0    0    0 -0.00000000000E+00 -0.00000000000E+00 -0.45593999997E+02  0.45594000000E+02  0.51100000000E-03 0. -1.
    9900012    2    1    2    0    0 -0.85813823613E+01 -0.12557978957E+02  0.40648253223E+02  0.47787269029E+02  0.19999990812E+02 0.  0.
         12    1    1    2    0    0  0.85813823613E+01  0.12557978957E+02 -0.40648253223E+02  0.43400730971E+02  0.00000000000E+00 0. -1.
         11    1    3    3    0    0  0.24214811545E+01 -0.65948708051E+00  0.83814972617E+01  0.87491708636E+01  0.51100000000E-03 0. -1.
        -11    1    3    3    0    0 -0.13445427714E+02 -0.45814770630E+01  0.19569787551E+02  0.24181522771E+02  0.51100000000E-03 0.  1.
        -12    1    3    3    0    0  0.24425641980E+01 -0.73170148137E+01  0.12696968410E+02  0.14856575395E+02  0.00000000000E+00 0.  1.
</event>
<event>
 7    1  0.2751796E-010  0.4778727E+02  0.7816164E-02  0.1312668E+00
        -11   -1    0    0    0    0  0.00000000000E+00  0.00000000000E+00  0.45593999997E+02  0.45594000000E+02  0.51100000000E-03 0. -1.
         11   -1    0    0    0    0 -0.00000000000E+00 -0.00000000000E+00 -0.45593999997E+02  0.45594000000E+02  0.51100000000E-03 0.  1.
    9900012    2    1    2    0    0 -0.31736887509E+02 -0.29362180686E+02 -0.37757093987E+01  0.47787266540E+02  0.19999979464E+02 0.  0.
         12    1    1    2    0    0  0.31736887509E+02  0.29362180686E+02  0.37757093987E+01  0.43400733460E+02  0.00000000000E+00 0. -1.
         11    1    3    3    0    0 -0.11548260774E+02 -0.75775995355E+01  0.47130550459E+01  0.14594356092E+02  0.51100000000E-03 0. -1.
        -11    1    3    3    0    0 -0.17939073503E+02 -0.20287516300E+02 -0.11254066808E+02  0.29326569791E+02  0.51100000000E-03 0.  1.
        -12    1    3    3    0    0 -0.22495532324E+01 -0.14970648506E+01  0.27653023635E+01  0.38663406567E+01  0.00000000000E+00 0.  1.
</event>
<event>
 7    1  0.2751796E-010  0.4778727E+02  0.7816164E-02  0.1312668E+00
        -11   -1    0    0    0    0  0.00000000000E+00  0.00000000000E+00  0.45593999997E+02  0.45594000000E+02  0.51100000000E-03 0.  1.
         11   -1    0    0    0    0 -0.00000000000E+00 -0.00000000000E+00 -0.45593999997E+02  0.45594000000E+02  0.51100000000E-03 0. -1.
    9900012    2    1    2    0    0  0.14557998986E+02 -0.15620484165E+02  0.37784764148E+02  0.47787271184E+02  0.20000000638E+02 0.  0.
         12    1    1    2    0    0 -0.14557998986E+02  0.15620484165E+02 -0.37784764148E+02  0.43400728816E+02  0.00000000000E+00 0. -1.
         11    1    3    3    0    0  0.51464459563E+01 -0.11344579216E+01  0.15541429132E+01  0.54943845163E+01  0.51100000000E-03 0. -1.
        -11    1    3    3    0    0  0.10984930167E+02 -0.15968347678E+02  0.34286716837E+02  0.39385730539E+02  0.51100000000E-03 0.  1.
        -12    1    3    3    0    0 -0.15733771374E+01  0.14823214351E+01  0.19439043978E+01  0.29071561295E+01  0.00000000000E+00 0.  1.
</event>
<event>
 7    1  0.2751796E-010  0.4778727E+02  0.7816164E-02  0.1312668E+00
        -11   -1    0    0    0    0  0.00000000000E+00  0.00000000000E+00  0.45593999997E+02  0.45594000000E+02  0.51100000000E-03 0.  1.
         11   -1    0    0    0    0 -0.00000000000E+00 -0.00000000000E+00 -0.45593999997E+02  0.45594000000E+02  0.51100000000E-03 0. -1.
    9900012    2    1    2    0    0  0.16662995755E+01 -0.27186297065E+02  0.33789816169E+02  0.47787274441E+02  0.20000015484E+02 0.  0.
         12    1    1    2    0    0 -0.16662995755E+01  0.27186297065E+02 -0.33789816169E+02  0.43400725559E+02  0.00000000000E+00 0. -1.
         11    1    3    3    0    0 -0.35510703413E+01 -0.72441210369E+01  0.10972832101E+02  0.13619487315E+02  0.51100000000E-03 0. -1.
        -11    1    3    3    0    0  0.92103113137E+01 -0.18660848501E+02  0.16370442240E+02  0.26477320119E+02  0.51100000000E-03 0.  1.
        -12    1    3    3    0    0 -0.39929413969E+01 -0.12813275264E+01  0.64465418283E+01  0.76904670061E+01  0.00000000000E+00 0.  1.
</event>
<event>
 7    1  0.2751796E-010  0.4778727E+02  0.7816164E-02  0.1312668E+00
        -11   -1    0    0    0    0  0.00000000000E+00  0.00000000000E+00  0.45593999997E+02  0.45594000000E+02  0.51100000000E-03 0.  1.
         11   -1    0    0    0    0 -0.00000000000E+00 -0.00000000000E+00 -0.45593999997E+02  0.45594000000E+02  0.51100000000E-03 0. -1.
    9900012    2    1    2    0    0 -0.13139847683E+02 -0.23630445436E+02  0.33949513860E+02  0.47787273739E+02  0.20000012286E+02 0.  0.
         12    1    1    2    0    0  0.13139847683E+02  0.23630445436E+02 -0.33949513860E+02  0.43400726261E+02  0.00000000000E+00 0. -1.
         11    1    3    3    0    0 -0.43428422997E+01 -0.15560897598E+02  0.10881387669E+02  0.19478357507E+02  0.51100000000E-03 0. -1.
        -11    1    3    3    0    0 -0.54997465353E+01 -0.82548513691E+01  0.22952829034E+02  0.25004442486E+02  0.51100000000E-03 0.  1.
         12    1    3    3    0    0 -0.32972588478E+01  0.18530353069E+00  0.11529715635E+00  0.33044737466E+01  0.00000000000E+00 0. -1.
</event>
<event>
 7    1  0.2751796E-010  0.4778727E+02  0.7816164E-02  0.1312668E+00
        -11   -1    0    0    0    0  0.00000000000E+00  0.00000000000E+00  0.45593999997E+02  0.45594000000E+02  0.51100000000E-03 0. -1.
         11   -1    0    0    0    0 -0.00000000000E+00 -0.00000000000E+00 -0.45593999997E+02  0.45594000000E+02  0.51100000000E-03 0.  1.
    9900012    2    1    2    0    0 -0.25326807624E+02  0.21909458223E+02 -0.27607094380E+02  0.47787271848E+02  0.20000003662E+02 0.  0.
         12    1    1    2    0    0  0.25326807624E+02 -0.21909458223E+02  0.27607094380E+02  0.43400728152E+02  0.00000000000E+00 0. -1.
         11    1    3    3    0    0  0.13949822008E+01  0.11515625122E+01 -0.62423590961E+01  0.64991629388E+01  0.51100000000E-03 0. -1.
        -11    1    3    3    0    0 -0.15550997505E+02  0.17339493251E+02 -0.11391897142E+02  0.25928109657E+02  0.51100000000E-03 0.  1.
         12    1    3    3    0    0 -0.11170792319E+02  0.34184024600E+01 -0.99728381423E+01  0.15359999252E+02  0.00000000000E+00 0. -1.
</event>
<event>
 7    1  0.2751796E-010  0.4778727E+02  0.7816164E-02  0.1312668E+00
        -11   -1    0    0    0    0  0.00000000000E+00  0.00000000000E+00  0.45593999997E+02  0.45594000000E+02  0.51100000000E-03 0. -1.
         11   -1    0    0    0    0 -0.00000000000E+00 -0.00000000000E+00 -0.45593999997E+02  0.45594000000E+02  0.51100000000E-03 0.  1.
    9900012    2    1    2    0    0 -0.43100469860E+02 -0.49278990673E+01 -0.12994791935E+01  0.47787270311E+02  0.19999996654E+02 0.  0.
         12    1    1    2    0    0  0.43100469860E+02  0.49278990673E+01  0.12994791935E+01  0.43400729689E+02  0.00000000000E+00 0. -1.
         11    1    3    3    0    0 -0.16179504378E+02  0.62091458947E+01  0.46401912233E+00  0.17336238596E+02  0.51100000000E-03 0. -1.
        -11    1    3    3    0    0 -0.18373392113E+02 -0.40551602906E+01 -0.37198717945E+01  0.19179763010E+02  0.51100000000E-03 0.  1.
         12    1    3    3    0    0 -0.85475733695E+01 -0.70818846714E+01  0.19563734786E+01  0.11271268704E+02  0.00000000000E+00 0. -1.
</event>
<event>
 7    1  0.2751796E-010  0.4778727E+02  0.7816164E-02  0.1312668E+00
        -11   -1    0    0    0    0  0.00000000000E+00  0.00000000000E+00  0.45593999997E+02  0.45594000000E+02  0.51100000000E-03 0.  1.
         11   -1    0    0    0    0 -0.00000000000E+00 -0.00000000000E+00 -0.45593999997E+02  0.45594000000E+02  0.51100000000E-03 0. -1.
    9900012    2    1    2    0    0 -0.21826065730E+02  0.13856036094E+02  0.34860529054E+02  0.47787269966E+02  0.19999995085E+02 0.  0.
         12    1    1    2    0    0  0.21826065730E+02 -0.13856036094E+02 -0.34860529054E+02  0.43400730034E+02  0.00000000000E+00 0. -1.
         11    1    3    3    0    0 -0.69023029493E+01  0.94660382263E+01  0.12715056245E+02  0.17289312342E+02  0.51100000000E-03 0. -1.
        -11    1    3    3    0    0 -0.32167338535E+01 -0.48984960006E+01  0.80322416259E+01  0.99428137643E+01  0.51100000000E-03 0.  1.
        -12    1    3    3    0    0 -0.11707028927E+02  0.92884938688E+01  0.14113231184E+02  0.20555143860E+02  0.00000000000E+00 0.  1.
</event>
<event>
 7    1  0.2751796E-010  0.4778727E+02  0.7816164E-02  0.1312668E+00
        -11   -1    0    0    0    0  0.00000000000E+00  0.00000000000E+00  0.45593999997E+02  0.45594000000E+02  0.51100000000E-03 0.  1.
         11   -1    0    0    0    0 -0.00000000000E+00 -0.00000000000E+00 -0.45593999997E+02  0.45594000000E+02  0.51100000000E-03 0. -1.
    9900012    2    1    2    0    0 -0.29299927556E+02 -0.21439600484E+02  0.23779845914E+02  0.47787270797E+02  0.19999998873E+02 0.  0.
         12    1    1    2    0    0  0.29299927556E+02  0.21439600484E+02 -0.23779845914E+02  0.43400729203E+02  0.00000000000E+00 0. -1.
         11    1    3    3    0    0 -0.12800877805E+02 -0.80065974997E+00  0.37867102256E+01  0.13373208411E+02  0.51100000000E-03 0. -1.
        -11    1    3    3    0    0 -0.70233688264E+01 -0.33575253029E+01  0.87982416491E+01  0.11747754773E+02  0.51100000000E-03 0.  1.
         12    1    3    3    0    0 -0.94756809244E+01 -0.17281415431E+02  0.11194894039E+02  0.22666307613E+02  0.00000000000E+00 0. -1.
</event>
<event>
 7    1  0.2751796E-010  0.4778728E+02  0.7816164E-02  0.1312668E+00
        -11   -1    0    0    0    0  0.00000000000E+00  0.00000000000E+00  0.45593999997E+02  0.45594000000E+02  0.51100000000E-03 0. -1.
         11   -1    0    0    0    0 -0.00000000000E+00 -0.00000000000E+00 -0.45593999997E+02  0.45594000000E+02  0.51100000000E-03 0.  1.
    9900012    2    1    2    0    0  0.45008288087E+01  0.24055344126E+02 -0.35842786187E+02  0.47787281543E+02  0.20000047865E+02 0.  0.
         12    1    1    2    0    0 -0.45008288087E+01 -0.24055344126E+02  0.35842786187E+02  0.43400718457E+02  0.00000000000E+00 0. -1.
         11    1    3    3    0    0  0.28982217222E+01  0.19934410692E+02 -0.12736803459E+02  0.23832888650E+02  0.51100000000E-03 0. -1.
        -11    1    3    3    0    0  0.24472702412E+01  0.76198705662E+00 -0.13545461195E+02  0.13785836034E+02  0.51100000000E-03 0.  1.
         12    1    3    3    0    0 -0.84466315469E+00  0.33589463777E+01 -0.95605215329E+01  0.10168556859E+02  0.00000000000E+00 0. -1.
</event>
<event>
 7    1  0.2751796E-010  0.4778727E+02  0.7816164E-02  0.1312668E+00
        -11   -1    0    0    0    0  0.00000000000E+00  0.00000000000E+00  0.45593999997E+02  0.45594000000E+02  0.51100000000E-03 0.  1.
         11   -1    0    0    0    0 -0.00000000000E+00 -0.00000000000E+00 -0.45593999997E+02  0.45594000000E+02  0.51100000000E-03 0. -1.
    9900012    2    1    2    0    0  0.19495232138E+02 -0.11002194554E+02  0.37182132626E+02  0.47787270193E+02  0.19999996120E+02 0.  0.
         12    1    1    2    0    0 -0.19495232138E+02  0.11002194554E+02 -0.37182132626E+02  0.43400729807E+02  0.00000000000E+00 0. -1.
         11    1    3    3    0    0 -0.92793319614E+00 -0.48962940596E+01  0.15389601947E+02  0.16176359414E+02  0.51100000000E-03 0. -1.
        -11    1    3    3    0    0  0.10400309577E+02  0.51143110942E+00  0.69563958017E+01  0.12522757040E+02  0.51100000000E-03 0.  1.
         12    1    3    3    0    0  0.10022855758E+02 -0.66173316043E+01  0.14836134877E+02  0.19088153740E+02  0.00000000000E+00 0. -1.
</event>
<event>
 7    1  0.2751796E-010  0.4778726E+02  0.7816164E-02  0.1312668E+00
        -11   -1    0    0    0    0  0.00000000000E+00  0.00000000000E+00  0.45593999997E+02  0.45594000000E+02  0.51100000000E-03 0.  1.
         11   -1    0    0    0    0 -0.00000000000E+00 -0.00000000000E+00 -0.45593999997E+02  0.45594000000E+02  0.51100000000E-03 0. -1.
    9900012    2    1    2    0    0  0.17725302315E+02 -0.75871939283E+01  0.38882806954E+02  0.47787256568E+02  0.19999933995E+02 0.  0.
         12    1    1    2    0    0 -0.17725302315E+02  0.75871939283E+01 -0.38882806954E+02  0.43400743432E+02  0.00000000000E+00 0. -1.
         11    1    3    3    0    0  0.10870824565E+02 -0.10208187483E+02  0.14754820044E+02  0.20978241900E+02  0.51100000000E-03 0. -1.
        -11    1    3    3    0    0  0.25748480838E+01  0.57948841022E+01  0.13822998708E+02  0.15208083967E+02  0.51100000000E-03 0.  1.
         12    1    3    3    0    0  0.42796296664E+01 -0.31738905471E+01  0.10304988202E+02  0.11600930701E+02  0.00000000000E+00 0. -1.
</event>
<event>
 7    1  0.2751796E-010  0.4778728E+02  0.7816164E-02  0.1312668E+00
        -11   -1    0    0    0    0  0.00000000000E+00  0.00000000000E+00  0.45593999997E+02  0.45594000000E+02  0.51100000000E-03 0.  1.
         11   -1    0    0    0    0 -0.00000000000E+00 -0.00000000000E+00 -0.45593999997E+02  0.45594000000E+02  0.51100000000E-03 0. -1.
    9900012    2    1    2    0    0 -0.25844770338E+02 -0.74686713392E+01  0.34057144873E+02  0.47787282007E+02  0.20000049983E+02 0.  0.
         12    1    1    2    0    0  0.25844770338E+02  0.74686713392E+01 -0.34057144873E+02  0.43400717993E+02  0.00000000000E+00 0. -1.
         11    1    3    3    0    0 -0.32308689885E-01  0.29071233561E+01  0.65991794772E+01  0.72112121097E+01  0.51100000000E-03 0. -1.
        -11    1    3    3    0    0 -0.25135871621E+02 -0.89448659711E+01  0.28206107748E+02  0.38825342033E+02  0.51100000000E-03 0.  1.
         12    1    3    3    0    0 -0.67659002648E+00 -0.14309287242E+01 -0.74814235183E+00  0.17507278647E+01  0.00000000000E+00 0. -1.
</event>
<event>
 7    1  0.2751796E-010  0.4778729E+02  0.7816164E-02  0.1312668E+00
        -11   -1    0    0    0    0  0.00000000000E+00  0.00000000000E+00  0.45593999997E+02  0.45594000000E+02  0.51100000000E-03 0.  1.
         11   -1    0    0    0    0 -0.00000000000E+00 -0.00000000000E+00 -0.45593999997E+02  0.45594000000E+02  0.51100000000E-03 0. -1.
    9900012    2    1    2    0    0  0.29814935975E+02  0.12020907870E+02  0.29158001789E+02  0.47787289159E+02  0.20000082590E+02 0.  0.
         12    1    1    2    0    0 -0.29814935975E+02 -0.12020907870E+02 -0.29158001789E+02  0.43400710841E+02  0.00000000000E+00 0. -1.
         11    1    3    3    0    0  0.87145427679E+01  0.11792743741E+02  0.94173680568E+01  0.17426958483E+02  0.51100000000E-03 0. -1.
        -11    1    3    3    0    0  0.19379926634E+02 -0.65251113382E+00  0.12993369158E+02  0.23341700226E+02  0.51100000000E-03 0.  1.
         12    1    3    3    0    0  0.17204665729E+01  0.88067526274E+00  0.67472645743E+01  0.70186304492E+01  0.00000000000E+00 0. -1.
</event>
<event>
 7    1  0.2751796E-010  0.4778727E+02  0.7816164E-02  0.1312668E+00
        -11   -1    0    0    0    0  0.00000000000E+00  0.00000000000E+00  0.45593999997E+02  0.45594000000E+02  0.51100000000E-03 0. -1.
         11   -1    0    0    0    0 -0.00000000000E+00 -0.00000000000E+00 -0.45593999997E+02  0.45594000000E+02  0.51100000000E-03 0.  1.
    9900012    2    1    2    0    0  0.99563701399E+01  0.42228286367E+02  0.11251999415E+01  0.47787267855E+02  0.19999985456E+02 0.  0.
         12    1    1    2    0    0 -0.99563701399E+01 -0.42228286367E+02 -0.11251999415E+01  0.43400732145E+02  0.00000000000E+00 0. -1.
         11    1    3    3    0    0  0.79212926788E+01  0.13651458527E+02  0.51594450457E+01  0.16605091721E+02  0.51100000000E-03 0. -1.
        -11    1    3    3    0    0  0.31557405492E+01  0.14158076494E+02 -0.74721248436E+01  0.16316938388E+02  0.51100000000E-03 0.  1.
        -12    1    3    3    0    0 -0.11206630881E+01  0.14418751346E+02  0.34378797393E+01  0.14865237746E+02  0.00000000000E+00 0.  1.
</event>
<event>
 7    1  0.2751796E-010  0.4778727E+02  0.7816164E-02  0.1312668E+00
        -11   -1    0    0    0    0  0.00000000000E+00  0.00000000000E+00  0.45593999997E+02  0.45594000000E+02  0.51100000000E-03 0.  1.
         11   -1    0    0    0    0 -0.00000000000E+00 -0.00000000000E+00 -0.45593999997E+02  0.45594000000E+02  0.51100000000E-03 0. -1.
    9900012    2    1    2    0    0  0.15138636363E+02 -0.21168269832E+02  0.34732536088E+02  0.47787273949E+02  0.20000013245E+02 0.  0.
         12    1    1    2    0    0 -0.15138636363E+02  0.21168269832E+02 -0.34732536088E+02  0.43400726051E+02  0.00000000000E+00 0. -1.
         11    1    3    3    0    0  0.15173528133E+02 -0.10104561714E+02  0.13793473455E+02  0.22860403183E+02  0.51100000000E-03 0.  1.
        -11    1    3    3    0    0 -0.25248537678E+00 -0.11561819913E+02  0.14889937575E+02  0.18853372903E+02  0.51100000000E-03 0. -1.
        -12    1    3    3    0    0  0.21759360608E+00  0.49811179515E+00  0.60491250577E+01  0.60734978638E+01  0.00000000000E+00 0.  1.
</event>
<event>
 7    1  0.2751796E-010  0.4778727E+02  0.7816164E-02  0.1312668E+00
        -11   -1    0    0    0    0  0.00000000000E+00  0.00000000000E+00  0.45593999997E+02  0.45594000000E+02  0.51100000000E-03 0. -1.
         11   -1    0    0    0    0 -0.00000000000E+00 -0.00000000000E+00 -0.45593999997E+02  0.45594000000E+02  0.51100000000E-03 0.  1.
    9900012    2    1    2    0    0  0.33311109603E+02 -0.24731610202E+02 -0.12741308365E+02  0.47787268381E+02  0.19999987858E+02 0.  0.
         12    1    1    2    0    0 -0.33311109603E+02  0.24731610202E+02  0.12741308365E+02  0.43400731619E+02  0.00000000000E+00 0. -1.
         11    1    3    3    0    0  0.17191516997E+02 -0.19542613932E+02 -0.16711624253E+01  0.26081694732E+02  0.51100000000E-03 0. -1.
        -11    1    3    3    0    0  0.16707601848E+02 -0.52968227372E+01 -0.11505455615E+02  0.20966063049E+02  0.51100000000E-03 0.  1.
         12    1    3    3    0    0 -0.58800924180E+00  0.10782646771E+00  0.43530967470E+00  0.73951060064E+00  0.00000000000E+00 0. -1.
</event>
<event>
 7    1  0.2751796E-010  0.4778727E+02  0.7816164E-02  0.1312668E+00
        -11   -1    0    0    0    0  0.00000000000E+00  0.00000000000E+00  0.45593999997E+02  0.45594000000E+02  0.51100000000E-03 0.  1.
         11   -1    0    0    0    0 -0.00000000000E+00 -0.00000000000E+00 -0.45593999997E+02  0.45594000000E+02  0.51100000000E-03 0. -1.
    9900012    2    1    2    0    0  0.94055581462E+01  0.34274985466E+02  0.24907505221E+02  0.47787274556E+02  0.20000016010E+02 0.  0.
         12    1    1    2    0    0 -0.94055581462E+01 -0.34274985466E+02 -0.24907505221E+02  0.43400725444E+02  0.00000000000E+00 0. -1.
         11    1    3    3    0    0  0.32680655450E+01  0.14496286523E+02  0.18889786493E+02  0.24034279881E+02  0.51100000000E-03 0.  1.
        -11    1    3    3    0    0 -0.14288693450E+00  0.21544619246E+01  0.44884489149E+01  0.49807927867E+01  0.51100000000E-03 0. -1.
         12    1    3    3    0    0  0.62803795357E+01  0.17624237018E+02  0.15292698135E+01  0.18772201889E+02  0.00000000000E+00 0. -1.
</event>
<event>
 7    1  0.2751796E-010  0.4778727E+02  0.7816164E-02  0.1312668E+00
        -11   -1    0    0    0    0  0.00000000000E+00  0.00000000000E+00  0.45593999997E+02  0.45594000000E+02  0.51100000000E-03 0.  1.
         11   -1    0    0    0    0 -0.00000000000E+00 -0.00000000000E+00 -0.45593999997E+02  0.45594000000E+02  0.51100000000E-03 0. -1.
    9900012    2    1    2    0    0 -0.48815430902E+01 -0.31701847332E+02  0.29236736090E+02  0.47787270462E+02  0.19999997344E+02 0.  0.
         12    1    1    2    0    0  0.48815430902E+01  0.31701847332E+02 -0.29236736090E+02  0.43400729538E+02  0.00000000000E+00 0. -1.
         11    1    3    3    0    0 -0.76930022263E+01 -0.14685811134E+02  0.20585926692E+02  0.26431717877E+02  0.51100000000E-03 0. -1.
        -11    1    3    3    0    0  0.19475191520E+01 -0.11118305888E+01 -0.12833835314E+01  0.25838095239E+01  0.51100000000E-03 0.  1.
        -12    1    3    3    0    0  0.86393998410E+00 -0.15904205610E+02  0.99341929293E+01  0.18771743061E+02  0.00000000000E+00 0.  1.
</event>
<event>
 7    1  0.2751796E-010  0.4778728E+02  0.7816164E-02  0.1312668E+00
        -11   -1    0    0    0    0  0.00000000000E+00  0.00000000000E+00  0.45593999997E+02  0.45594000000E+02  0.51100000000E-03 0.  1.
         11   -1    0    0    0    0 -0.00000000000E+00 -0.00000000000E+00 -0.45593999997E+02  0.45594000000E+02  0.51100000000E-03 0. -1.
    9900012    2    1    2    0    0 -0.64069077831E+01  0.37176893882E+02  0.21458163462E+02  0.47787277826E+02  0.20000030918E+02 0.  0.
         12    1    1    2    0    0  0.64069077831E+01 -0.37176893882E+02 -0.21458163462E+02  0.43400722174E+02  0.00000000000E+00 0. -1.
         11    1    3    3    0    0 -0.64292282761E+01  0.52438808879E+01  0.83248007496E+00  0.83382424005E+01  0.51100000000E-03 0. -1.
        -11    1    3    3    0    0 -0.22866144385E+01  0.21552601727E+02  0.18734048179E+02  0.28647998328E+02  0.51100000000E-03 0.  1.
        -12    1    3    3    0    0  0.23089349315E+01  0.10380411268E+02  0.18916352078E+01  0.10801037097E+02  0.00000000000E+00 0.  1.
</event>
<event>
 7    1  0.2751796E-010  0.4778727E+02  0.7816164E-02  0.1312668E+00
        -11   -1    0    0    0    0  0.00000000000E+00  0.00000000000E+00  0.45593999997E+02  0.45594000000E+02  0.51100000000E-03 0. -1.
         11   -1    0    0    0    0 -0.00000000000E+00 -0.00000000000E+00 -0.45593999997E+02  0.45594000000E+02  0.51100000000E-03 0.  1.
    9900012    2    1    2    0    0  0.17065430474E+02  0.11905663847E+02 -0.38087395855E+02  0.47787268763E+02  0.19999989598E+02 0.  0.
         12    1    1    2    0    0 -0.17065430474E+02 -0.11905663847E+02  0.38087395855E+02  0.43400731237E+02  0.00000000000E+00 0. -1.
         11    1    3    3    0    0  0.25745022553E+01  0.73317863841E+01 -0.90041404806E+01  0.11893599098E+02  0.51100000000E-03 0. -1.
        -11    1    3    3    0    0  0.56714874114E+01  0.89613952682E+01 -0.10865279421E+02  0.15183104813E+02  0.51100000000E-03 0.  1.
        -12    1    3    3    0    0  0.88194408069E+01 -0.43875178058E+01 -0.18217975953E+02  0.20710564852E+02  0.00000000000E+00 0.  1.
</event>
<event>
 7    1  0.2751796E-010  0.4778727E+02  0.7816164E-02  0.1312668E+00
        -11   -1    0    0    0    0  0.00000000000E+00  0.00000000000E+00  0.45593999997E+02  0.45594000000E+02  0.51100000000E-03 0. -1.
         11   -1    0    0    0    0 -0.00000000000E+00 -0.00000000000E+00 -0.45593999997E+02  0.45594000000E+02  0.51100000000E-03 0.  1.
    9900012    2    1    2    0    0 -0.39999040634E+02 -0.36688581419E+01 -0.16438967603E+02  0.47787269274E+02  0.19999991928E+02 0.  0.
         12    1    1    2    0    0  0.39999040634E+02  0.36688581419E+01  0.16438967603E+02  0.43400730726E+02  0.00000000000E+00 0. -1.
         11    1    3    3    0    0 -0.17416089538E+02  0.21689944012E+01 -0.13328213632E+02  0.22037830891E+02  0.51100000000E-03 0. -1.
        -11    1    3    3    0    0 -0.38334000135E+01 -0.34953657653E+01 -0.44108985699E+01  0.68094466700E+01  0.51100000000E-03 0.  1.
         12    1    3    3    0    0 -0.18749551082E+02 -0.23424867779E+01  0.13001445991E+01  0.18939991713E+02  0.00000000000E+00 0. -1.
</event>
<event>
 7    1  0.2751796E-010  0.4778727E+02  0.7816164E-02  0.1312668E+00
        -11   -1    0    0    0    0  0.00000000000E+00  0.00000000000E+00  0.45593999997E+02  0.45594000000E+02  0.51100000000E-03 0.  1.
         11   -1    0    0    0    0 -0.00000000000E+00 -0.00000000000E+00 -0.45593999997E+02  0.45594000000E+02  0.51100000000E-03 0. -1.
    9900012    2    1    2    0    0 -0.60158545052E+01 -0.21753129136E+02  0.37070664848E+02  0.47787270457E+02  0.19999997320E+02 0.  0.
         12    1    1    2    0    0  0.60158545052E+01  0.21753129136E+02 -0.37070664848E+02  0.43400729543E+02  0.00000000000E+00 0. -1.
         11    1    3    3    0    0  0.38354588912E+01 -0.23566482377E+01  0.54233564149E+01  0.70482147305E+01  0.51100000000E-03 0. -1.
        -11    1    3    3    0    0 -0.54249978688E+01 -0.80020630089E+01  0.39114661688E+01  0.10428958823E+02  0.51100000000E-03 0.  1.
        -12    1    3    3    0    0 -0.44263155276E+01 -0.11394417889E+02  0.27735842264E+02  0.30310096903E+02  0.00000000000E+00 0.  1.
</event>
<event>
 7    1  0.2751796E-010  0.4778727E+02  0.7816164E-02  0.1312668E+00
        -11   -1    0    0    0    0  0.00000000000E+00  0.00000000000E+00  0.45593999997E+02  0.45594000000E+02  0.51100000000E-03 0.  1.
         11   -1    0    0    0    0 -0.00000000000E+00 -0.00000000000E+00 -0.45593999997E+02  0.45594000000E+02  0.51100000000E-03 0. -1.
    9900012    2    1    2    0    0 -0.19144444173E+02 -0.14067351278E+02  0.36321115203E+02  0.47787268160E+02  0.19999986849E+02 0.  0.
         12    1    1    2    0    0  0.19144444173E+02  0.14067351278E+02 -0.36321115203E+02  0.43400731840E+02  0.00000000000E+00 0. -1.
         11    1    3    3    0    0 -0.23210795854E+01 -0.63583543994E+01  0.49983788454E+01  0.84142660080E+01  0.51100000000E-03 0. -1.
        -11    1    3    3    0    0 -0.50932707489E+01  0.39025343504E+01  0.43534812171E+01  0.77539654531E+01  0.51100000000E-03 0.  1.
        -12    1    3    3    0    0 -0.11730093839E+02 -0.11611531229E+02  0.26969255140E+02  0.31619036699E+02  0.00000000000E+00 0.  1.
</event>
<event>
 7    1  0.2751796E-010  0.4778728E+02  0.7816164E-02  0.1312668E+00
        -11   -1    0    0    0    0  0.00000000000E+00  0.00000000000E+00  0.45593999997E+02  0.45594000000E+02  0.51100000000E-03 0.  1.
         11   -1    0    0    0    0 -0.00000000000E+00 -0.00000000000E+00 -0.45593999997E+02  0.45594000000E+02  0.51100000000E-03 0. -1.
    9900012    2    1    2    0    0  0.37511005617E+02 -0.11639512829E+02  0.18468053622E+02  0.47787276436E+02  0.20000024580E+02 0.  0.
         12    1    1    2    0    0 -0.37511005617E+02  0.11639512829E+02 -0.18468053622E+02  0.43400723564E+02  0.00000000000E+00 0. -1.
         11    1    3    3    0    0 -0.12918329797E+01  0.42918450210E-01 -0.15148635990E+01  0.19913529133E+01  0.51100000000E-03 0. -1.
        -11    1    3    3    0    0  0.28189387082E+02 -0.84218679718E+01  0.10641442181E+02  0.31285934478E+02  0.51100000000E-03 0.  1.
        -12    1    3    3    0    0  0.10613451515E+02 -0.32605633079E+01  0.93414750401E+01  0.14509989045E+02  0.00000000000E+00 0.  1.
</event>
<event>
 7    1  0.2751796E-010  0.4778732E+02  0.7816164E-02  0.1312668E+00
        -11   -1    0    0    0    0  0.00000000000E+00  0.00000000000E+00  0.45593999997E+02  0.45594000000E+02  0.51100000000E-03 0.  1.
         11   -1    0    0    0    0 -0.00000000000E+00 -0.00000000000E+00 -0.45593999997E+02  0.45594000000E+02  0.51100000000E-03 0. -1.
    9900012    2    1    2    0    0  0.34249862343E+02 -0.10110940642E+02  0.24664436664E+02  0.47787324578E+02  0.20000244079E+02 0.  0.
         12    1    1    2    0    0 -0.34249862343E+02  0.10110940642E+02 -0.24664436664E+02  0.43400675422E+02  0.00000000000E+00 0. -1.
         11    1    3    3    0    0  0.22023733094E+02 -0.11958758441E+02  0.11912953206E+02  0.27748426571E+02  0.51100000000E-03 0. -1.
        -11    1    3    3    0    0  0.12177251843E+02 -0.13362969858E+01  0.10555604085E+02  0.16170712104E+02  0.51100000000E-03 0.  1.
         12    1    3    3    0    0  0.48877405485E-01  0.31841147841E+01  0.21958793731E+01  0.38681859030E+01  0.00000000000E+00 0. -1.
</event>
<event>
 7    1  0.2751796E-010  0.4778728E+02  0.7816164E-02  0.1312668E+00
        -11   -1    0    0    0    0  0.00000000000E+00  0.00000000000E+00  0.45593999997E+02  0.45594000000E+02  0.51100000000E-03 0. -1.
         11   -1    0    0    0    0 -0.00000000000E+00 -0.00000000000E+00 -0.45593999997E+02  0.45594000000E+02  0.51100000000E-03 0.  1.
    9900012    2    1    2    0    0 -0.64878794917E+00  0.14004143442E+02 -0.41074145457E+02  0.47787281292E+02  0.20000046724E+02 0.  0.
         12    1    1    2    0    0  0.64878794917E+00 -0.14004143442E+02  0.41074145457E+02  0.43400718708E+02  0.00000000000E+00 0. -1.
         11    1    3    3    0    0  0.79778661874E+01  0.88861583838E+01 -0.12296786401E+02  0.17141211036E+02  0.51100000000E-03 0.  1.
        -11    1    3    3    0    0 -0.50320930119E+01  0.13818506331E+01 -0.11990581159E+02  0.13076907434E+02  0.51100000000E-03 0. -1.
        -12    1    3    3    0    0 -0.35945611246E+01  0.37361344255E+01 -0.16786777896E+02  0.17569162822E+02  0.00000000000E+00 0.  1.
</event>
<event>
 7    1  0.2751796E-010  0.4778726E+02  0.7816164E-02  0.1312668E+00
        -11   -1    0    0    0    0  0.00000000000E+00  0.00000000000E+00  0.45593999997E+02  0.45594000000E+02  0.51100000000E-03 0. -1.
         11   -1    0    0    0    0 -0.00000000000E+00 -0.00000000000E+00 -0.45593999997E+02  0.45594000000E+02  0.51100000000E-03 0.  1.
    9900012    2    1    2    0    0 -0.40123626825E+02  0.10697894877E+02 -0.12620377826E+02  0.47787258983E+02  0.19999945007E+02 0.  0.
         12    1    1    2    0    0  0.40123626825E+02 -0.10697894877E+02  0.12620377826E+02  0.43400741017E+02  0.00000000000E+00 0. -1.
         11    1    3    3    0    0 -0.18036165466E+02 -0.36118099698E+01 -0.63910677302E+01  0.19472908950E+02  0.51100000000E-03 0. -1.
        -11    1    3    3    0    0 -0.20866258790E+02  0.10638213105E+02 -0.68336460770E+01  0.24398177246E+02  0.51100000000E-03 0.  1.
         12    1    3    3    0    0 -0.12212025687E+01  0.36714917415E+01  0.60433598154E+00  0.39161727873E+01  0.00000000000E+00 0. -1.
</event>
<event>
 7    1  0.2751796E-010  0.4778725E+02  0.7816164E-02  0.1312668E+00
        -11   -1    0    0    0    0  0.00000000000E+00  0.00000000000E+00  0.45593999997E+02  0.45594000000E+02  0.51100000000E-03 0.  1.
         11   -1    0    0    0    0 -0.00000000000E+00 -0.00000000000E+00 -0.45593999997E+02  0.45594000000E+02  0.51100000000E-03 0. -1.
    9900012    2    1    2    0    0 -0.93470778791E+01  0.40216192883E+02  0.13375924829E+02  0.47787246551E+02  0.19999888326E+02 0.  0.
         12    1    1    2    0    0  0.93470778791E+01 -0.40216192883E+02 -0.13375924829E+02  0.43400753449E+02  0.00000000000E+00 0. -1.
         11    1    3    3    0    0 -0.64823895794E+01  0.50527567635E+01  0.85425041004E-02  0.82189901330E+01  0.51100000000E-03 0. -1.
        -11    1    3    3    0    0  0.46358794953E+01  0.11670973853E+02  0.38535014694E+01  0.13135923386E+02  0.51100000000E-03 0.  1.
        -12    1    3    3    0    0 -0.75005677950E+01  0.23492462267E+02  0.95138808554E+01  0.26432333033E+02  0.00000000000E+00 0.  1.
</event>
<event>
 7    1  0.2751796E-010  0.4778727E+02  0.7816164E-02  0.1312668E+00
        -11   -1    0    0    0    0  0.00000000000E+00  0.00000000000E+00  0.45593999997E+02  0.45594000000E+02  0.51100000000E-03 0.  1.
         11   -1    0    0    0    0 -0.00000000000E+00 -0.00000000000E+00 -0.45593999997E+02  0.45594000000E+02  0.51100000000E-03 0. -1.
    9900012    2    1    2    0    0  0.22424598479E+02  0.36945301542E+02  0.39755922975E+01  0.47787271238E+02  0.20000000883E+02 0.  0.
         12    1    1    2    0    0 -0.22424598479E+02 -0.36945301542E+02 -0.39755922975E+01  0.43400728762E+02  0.00000000000E+00 0. -1.
         11    1    3    3    0    0  0.12345883036E+01  0.10902333548E+01  0.49844681873E+01  0.52495466869E+01  0.51100000000E-03 0. -1.
        -11    1    3    3    0    0  0.12252901286E+02  0.15570227004E+02 -0.38694208590E+01  0.20187569862E+02  0.51100000000E-03 0.  1.
        -12    1    3    3    0    0  0.89371088887E+01  0.20284841183E+02  0.28605449692E+01  0.22350154689E+02  0.00000000000E+00 0.  1.
</event>
<event>
 7    1  0.2751796E-010  0.4778727E+02  0.7816164E-02  0.1312668E+00
        -11   -1    0    0    0    0  0.00000000000E+00  0.00000000000E+00  0.45593999997E+02  0.45594000000E+02  0.51100000000E-03 0.  1.
         11   -1    0    0    0    0 -0.00000000000E+00 -0.00000000000E+00 -0.45593999997E+02  0.45594000000E+02  0.51100000000E-03 0. -1.
    9900012    2    1    2    0    0  0.28758900402E+01  0.42385173641E+02  0.88797204515E+01  0.47787272778E+02  0.20000007904E+02 0.  0.
         12    1    1    2    0    0 -0.28758900402E+01 -0.42385173641E+02 -0.88797204515E+01  0.43400727222E+02  0.00000000000E+00 0. -1.
         11    1    3    3    0    0 -0.62041060780E+01  0.14298928572E+02  0.32055805883E+01  0.15913077568E+02  0.51100000000E-03 0. -1.
        -11    1    3    3    0    0  0.10621629753E+02  0.21721421065E+02  0.17566218279E+01  0.24243037602E+02  0.51100000000E-03 0.  1.
        -12    1    3    3    0    0 -0.15416336346E+01  0.63648240044E+01  0.39175180353E+01  0.76311576073E+01  0.00000000000E+00 0.  1.
</event>
<event>
 7    1  0.2751796E-010  0.4778727E+02  0.7816164E-02  0.1312668E+00
        -11   -1    0    0    0    0  0.00000000000E+00  0.00000000000E+00  0.45593999997E+02  0.45594000000E+02  0.51100000000E-03 0. -1.
         11   -1    0    0    0    0 -0.00000000000E+00 -0.00000000000E+00 -0.45593999997E+02  0.45594000000E+02  0.51100000000E-03 0.  1.
    9900012    2    1    2    0    0  0.17633260242E+02  0.38004937032E+02 -0.11327686949E+02  0.47787267320E+02  0.19999983019E+02 0.  0.
         12    1    1    2    0    0 -0.17633260242E+02 -0.38004937032E+02  0.11327686949E+02  0.43400732680E+02  0.00000000000E+00 0. -1.
         11    1    3    3    0    0  0.42512419836E+01  0.14694599887E+02  0.42026716481E+01  0.15864008745E+02  0.51100000000E-03 0. -1.
        -11    1    3    3    0    0  0.92293419990E+01  0.10168700477E+02 -0.10364336338E+02  0.17204728743E+02  0.51100000000E-03 0.  1.
         12    1    3    3    0    0  0.41526762589E+01  0.13141636668E+02 -0.51660222591E+01  0.14718529832E+02  0.00000000000E+00 0. -1.
</event>
<event>
 7    1  0.2751796E-010  0.4778727E+02  0.7816164E-02  0.1312668E+00
        -11   -1    0    0    0    0  0.00000000000E+00  0.00000000000E+00  0.45593999997E+02  0.45594000000E+02  0.51100000000E-03 0.  1.
         11   -1    0    0    0    0 -0.00000000000E+00 -0.00000000000E+00 -0.45593999997E+02  0.45594000000E+02  0.51100000000E-03 0. -1.
    9900012    2    1    2    0    0  0.26233640901E+02  0.19996150704E+02  0.28205906670E+02  0.47787272713E+02  0.20000007609E+02 0.  0.
         12    1    1    2    0    0 -0.26233640901E+02 -0.19996150704E+02 -0.28205906670E+02  0.43400727287E+02  0.00000000000E+00 0. -1.
         11    1    3    3    0    0  0.79196523576E+01  0.21118737480E+01  0.15688176494E+02  0.17700276443E+02  0.51100000000E-03 0. -1.
        -11    1    3    3    0    0  0.80052180892E+01  0.92978069488E+01  0.11189008859E+02  0.16605018826E+02  0.51100000000E-03 0.  1.
         12    1    3    3    0    0  0.10308770454E+02  0.85864700075E+01  0.13287213180E+01  0.13481977444E+02  0.00000000000E+00 0. -1.
</event>
<event>
 7    1  0.2751796E-010  0.4778727E+02  0.7816164E-02  0.1312668E+00
        -11   -1    0    0    0    0  0.00000000000E+00  0.00000000000E+00  0.45593999997E+02  0.45594000000E+02  0.51100000000E-03 0.  1.
         11   -1    0    0    0    0 -0.00000000000E+00 -0.00000000000E+00 -0.45593999997E+02  0.45594000000E+02  0.51100000000E-03 0. -1.
    9900012    2    1    2    0    0  0.21449134292E+02 -0.37636288912E+02  0.26585664605E+01  0.47787267511E+02  0.19999983891E+02 0.  0.
         12    1    1    2    0    0 -0.21449134292E+02  0.37636288912E+02 -0.26585664605E+01  0.43400732489E+02  0.00000000000E+00 0. -1.
         11    1    3    3    0    0  0.79543812206E+01 -0.17351805333E+02 -0.44823309289E+01  0.19607361366E+02  0.51100000000E-03 0. -1.
        -11    1    3    3    0    0  0.11734215070E+02 -0.18640222682E+02  0.15364151203E+01  0.22079634885E+02  0.51100000000E-03 0.  1.
         12    1    3    3    0    0  0.17605380015E+01 -0.16442608965E+01  0.56044822691E+01  0.61002712607E+01  0.00000000000E+00 0. -1.
</event>
<event>
 7    1  0.2751796E-010  0.4778727E+02  0.7816164E-02  0.1312668E+00
        -11   -1    0    0    0    0  0.00000000000E+00  0.00000000000E+00  0.45593999997E+02  0.45594000000E+02  0.51100000000E-03 0. -1.
         11   -1    0    0    0    0 -0.00000000000E+00 -0.00000000000E+00 -0.45593999997E+02  0.45594000000E+02  0.51100000000E-03 0.  1.
    9900012    2    1    2    0    0 -0.74814771045E+01  0.34642241330E+01 -0.42610445202E+02  0.47787269720E+02  0.19999993963E+02 0.  0.
         12    1    1    2    0    0  0.74814771045E+01 -0.34642241330E+01  0.42610445202E+02  0.43400730280E+02  0.00000000000E+00 0. -1.
         11    1    3    3    0    0 -0.25562830784E+01  0.64817448838E+01 -0.33613377972E+02  0.34327930011E+02  0.51100000000E-03 0. -1.
        -11    1    3    3    0    0  0.20272264245E+01 -0.71979032796E+00 -0.41609888474E+01  0.46841833377E+01  0.51100000000E-03 0.  1.
         12    1    3    3    0    0 -0.69524204506E+01 -0.22977304228E+01 -0.48360783826E+01  0.87751563713E+01  0.00000000000E+00 0. -1.
</event>
<event>
 7    1  0.2751796E-010  0.4778727E+02  0.7816164E-02  0.1312668E+00
        -11   -1    0    0    0    0  0.00000000000E+00  0.00000000000E+00  0.45593999997E+02  0.45594000000E+02  0.51100000000E-03 0.  1.
         11   -1    0    0    0    0 -0.00000000000E+00 -0.00000000000E+00 -0.45593999997E+02  0.45594000000E+02  0.51100000000E-03 0. -1.
    9900012    2    1    2    0    0 -0.27041727221E+02 -0.17853269611E+01  0.33899571149E+02  0.47787270426E+02  0.19999997181E+02 0.  0.
         12    1    1    2    0    0  0.27041727221E+02  0.17853269611E+01 -0.33899571149E+02  0.43400729574E+02  0.00000000000E+00 0. -1.
         11    1    3    3    0    0 -0.10427908140E+02 -0.77875045777E+01  0.23878205706E+02  0.27194764270E+02  0.51100000000E-03 0. -1.
        -11    1    3    3    0    0 -0.92506849209E+01  0.30500521588E+01  0.35933320605E+01  0.10382197515E+02  0.51100000000E-03 0.  1.
        -12    1    3    3    0    0 -0.73631341597E+01  0.29521254579E+01  0.64280333831E+01  0.10210308641E+02  0.00000000000E+00 0.  1.
</event>
<event>
 7    1  0.2751796E-010  0.4778727E+02  0.7816164E-02  0.1312668E+00
        -11   -1    0    0    0    0  0.00000000000E+00  0.00000000000E+00  0.45593999997E+02  0.45594000000E+02  0.51100000000E-03 0.  1.
         11   -1    0    0    0    0 -0.00000000000E+00 -0.00000000000E+00 -0.45593999997E+02  0.45594000000E+02  0.51100000000E-03 0. -1.
    9900012    2    1    2    0    0  0.11393808382E+02 -0.11129842236E+02  0.40372400914E+02  0.47787274047E+02  0.20000013691E+02 0.  0.
         12    1    1    2    0    0 -0.11393808382E+02  0.11129842236E+02 -0.40372400914E+02  0.43400725953E+02  0.00000000000E+00 0. -1.
         11    1    3    3    0    0 -0.25049681559E+01 -0.64533345774E+00  0.19946634911E+02  0.20113666132E+02  0.51100000000E-03 0. -1.
        -11    1    3    3    0    0  0.10243756385E+02 -0.66608978719E+01  0.18230550401E+02  0.21946641508E+02  0.51100000000E-03 0.  1.
         12    1    3    3    0    0  0.36550201530E+01 -0.38236109065E+01  0.21952156026E+01  0.57269664068E+01  0.00000000000E+00 0. -1.
</event>
<event>
 7    1  0.2751796E-010  0.4778728E+02  0.7816164E-02  0.1312668E+00
        -11   -1    0    0    0    0  0.00000000000E+00  0.00000000000E+00  0.45593999997E+02  0.45594000000E+02  0.51100000000E-03 0. -1.
         11   -1    0    0    0    0 -0.00000000000E+00 -0.00000000000E+00 -0.45593999997E+02  0.45594000000E+02  0.51100000000E-03 0.  1.
    9900012    2    1    2    0    0  0.18072070837E+02  0.39263821870E+02 -0.39211550897E+01  0.47787275243E+02  0.20000019141E+02 0.  0.
         12    1    1    2    0    0 -0.18072070837E+02 -0.39263821870E+02  0.39211550897E+01  0.43400724757E+02  0.00000000000E+00 0. -1.
         11    1    3    3    0    0  0.69930749821E+00  0.59169831189E+01  0.70922183571E+00  0.60002263357E+01  0.51100000000E-03 0. -1.
        -11    1    3    3    0    0  0.72483327863E+01  0.25729737878E+02  0.31544327929E+01  0.26916689729E+02  0.51100000000E-03 0.  1.
        -12    1    3    3    0    0  0.10124430553E+02  0.76171008738E+01 -0.77848097183E+01  0.14870359178E+02  0.00000000000E+00 0.  1.
</event>
<event>
 7    1  0.2751796E-010  0.4778727E+02  0.7816164E-02  0.1312668E+00
        -11   -1    0    0    0    0  0.00000000000E+00  0.00000000000E+00  0.45593999997E+02  0.45594000000E+02  0.51100000000E-03 0.  1.
         11   -1    0    0    0    0 -0.00000000000E+00 -0.00000000000E+00 -0.45593999997E+02  0.45594000000E+02  0.51100000000E-03 0. -1.
    9900012    2    1    2    0    0 -0.68127222836E+01  0.22898836960E-01  0.42862681851E+02  0.47787271841E+02  0.20000003631E+02 0.  0.
         12    1    1    2    0    0  0.68127222836E+01 -0.22898836960E-01 -0.42862681851E+02  0.43400728159E+02  0.00000000000E+00 0. -1.
         11    1    3    3    0    0  0.31221686585E+01  0.29887556155E+01  0.25099958853E+02  0.25469364577E+02  0.51100000000E-03 0. -1.
        -11    1    3    3    0    0 -0.18857391108E+00  0.19268739493E+01  0.58746592262E+01  0.61854688279E+01  0.51100000000E-03 0.  1.
         12    1    3    3    0    0 -0.97463170310E+01 -0.48927307278E+01  0.11888063772E+02  0.16132438436E+02  0.00000000000E+00 0. -1.
</event>
<event>
 7    1  0.2751796E-010  0.4778727E+02  0.7816164E-02  0.1312668E+00
        -11   -1    0    0    0    0  0.00000000000E+00  0.00000000000E+00  0.45593999997E+02  0.45594000000E+02  0.51100000000E-03 0. -1.
         11   -1    0    0    0    0 -0.00000000000E+00 -0.00000000000E+00 -0.45593999997E+02  0.45594000000E+02  0.51100000000E-03 0.  1.
    9900012    2    1    2    0    0 -0.38037254415E+02 -0.14452159465E+02 -0.15097213907E+02  0.47787268389E+02  0.19999987894E+02 0.  0.
         12    1    1    2    0    0  0.38037254415E+02  0.14452159465E+02  0.15097213907E+02  0.43400731611E+02  0.00000000000E+00 0. -1.
         11    1    3    3    0    0 -0.32419625905E+00 -0.54076838740E+01 -0.58216719034E+00  0.54485839439E+01  0.51100000000E-03 0. -1.
        -11    1    3    3    0    0 -0.28405576122E+02 -0.91295333079E+01 -0.77341988149E+01  0.30822766988E+02  0.51100000000E-03 0.  1.
         12    1    3    3    0    0 -0.93074820340E+01  0.85057716746E-01 -0.67808479013E+01  0.11515917458E+02  0.00000000000E+00 0. -1.
</event>
<event>
 7    1  0.2751796E-010  0.4778729E+02  0.7816164E-02  0.1312668E+00
        -11   -1    0    0    0    0  0.00000000000E+00  0.00000000000E+00  0.45593999997E+02  0.45594000000E+02  0.51100000000E-03 0.  1.
         11   -1    0    0    0    0 -0.00000000000E+00 -0.00000000000E+00 -0.45593999997E+02  0.45594000000E+02  0.51100000000E-03 0. -1.
    9900012    2    1    2    0    0 -0.42602305510E+02 -0.44569194224E+00 -0.82744295554E+01  0.47787294239E+02  0.20000105753E+02 0.  0.
         12    1    1    2    0    0  0.42602305510E+02  0.44569194224E+00  0.82744295554E+01  0.43400705761E+02  0.00000000000E+00 0. -1.
         11    1    3    3    0    0 -0.16627230136E+02  0.25020788232E+01  0.39069717110E+01  0.17262375522E+02  0.51100000000E-03 0. -1.
        -11    1    3    3    0    0 -0.17524772886E+02  0.44632594615E+00 -0.33661955944E+01  0.17850718322E+02  0.51100000000E-03 0.  1.
         12    1    3    3    0    0 -0.84503024876E+01 -0.33940967115E+01 -0.88152056721E+01  0.12674200395E+02  0.00000000000E+00 0. -1.
</event>
<event>
 7    1  0.2751796E-010  0.4778722E+02  0.7816164E-02  0.1312668E+00
        -11   -1    0    0    0    0  0.00000000000E+00  0.00000000000E+00  0.45593999997E+02  0.45594000000E+02  0.51100000000E-03 0.  1.
         11   -1    0    0    0    0 -0.00000000000E+00 -0.00000000000E+00 -0.45593999997E+02  0.45594000000E+02  0.51100000000E-03 0. -1.
    9900012    2    1    2    0    0  0.16561765061E+02  0.35163096576E+02  0.19310414327E+02  0.47787222078E+02  0.19999776741E+02 0.  0.
         12    1    1    2    0    0 -0.16561765061E+02 -0.35163096576E+02 -0.19310414327E+02  0.43400777922E+02  0.00000000000E+00 0. -1.
         11    1    3    3    0    0  0.14354936711E+01  0.29117156085E+01  0.92401714526E+01  0.97938500397E+01  0.51100000000E-03 0.  1.
        -11    1    3    3    0    0  0.32523815464E+01  0.12366850560E+02  0.12398020302E+00  0.12787976769E+02  0.51100000000E-03 0. -1.
         12    1    3    3    0    0  0.11873889843E+02  0.19884530408E+02  0.99462626714E+01  0.25205395269E+02  0.00000000000E+00 0. -1.
</event>
<event>
 7    1  0.2751796E-010  0.4778727E+02  0.7816164E-02  0.1312668E+00
        -11   -1    0    0    0    0  0.00000000000E+00  0.00000000000E+00  0.45593999997E+02  0.45594000000E+02  0.51100000000E-03 0. -1.
         11   -1    0    0    0    0 -0.00000000000E+00 -0.00000000000E+00 -0.45593999997E+02  0.45594000000E+02  0.51100000000E-03 0.  1.
    9900012    2    1    2    0    0  0.26591797223E+02  0.15897121466E+02 -0.30393771257E+02  0.47787268650E+02  0.19999989084E+02 0.  0.
         12    1    1    2    0    0 -0.26591797223E+02 -0.15897121466E+02  0.30393771257E+02  0.43400731350E+02  0.00000000000E+00 0. -1.
         11    1    3    3    0    0  0.18650810503E+02  0.40015086036E+01 -0.86614859440E+01  0.20949609603E+02  0.51100000000E-03 0. -1.
        -11    1    3    3    0    0 -0.11603119470E+00  0.51997849801E+01 -0.84310636686E+01  0.99062637721E+01  0.51100000000E-03 0.  1.
         12    1    3    3    0    0  0.80570179151E+01  0.66958278821E+01 -0.13301221645E+02  0.16931395275E+02  0.00000000000E+00 0. -1.
</event>
<event>
 7    1  0.2751796E-010  0.4778726E+02  0.7816164E-02  0.1312668E+00
        -11   -1    0    0    0    0  0.00000000000E+00  0.00000000000E+00  0.45593999997E+02  0.45594000000E+02  0.51100000000E-03 0.  1.
         11   -1    0    0    0    0 -0.00000000000E+00 -0.00000000000E+00 -0.45593999997E+02  0.45594000000E+02  0.51100000000E-03 0. -1.
    9900012    2    1    2    0    0 -0.21297131342E+02  0.79887767568E+01  0.36962627775E+02  0.47787260266E+02  0.19999950856E+02 0.  0.
         12    1    1    2    0    0  0.21297131342E+02 -0.79887767568E+01 -0.36962627775E+02  0.43400739734E+02  0.00000000000E+00 0. -1.
         11    1    3    3    0    0 -0.77877501897E+01  0.95744957344E+01  0.23961447862E+02  0.26953126080E+02  0.51100000000E-03 0. -1.
        -11    1    3    3    0    0 -0.21583642558E+01  0.27243594062E+01  0.56706324518E+01  0.66510708235E+01  0.51100000000E-03 0.  1.
         12    1    3    3    0    0 -0.11351016896E+02 -0.43100783837E+01  0.73305474607E+01  0.14183063362E+02  0.00000000000E+00 0. -1.
</event>
<event>
 7    1  0.2751796E-010  0.4778728E+02  0.7816164E-02  0.1312668E+00
        -11   -1    0    0    0    0  0.00000000000E+00  0.00000000000E+00  0.45593999997E+02  0.45594000000E+02  0.51100000000E-03 0.  1.
         11   -1    0    0    0    0 -0.00000000000E+00 -0.00000000000E+00 -0.45593999997E+02  0.45594000000E+02  0.51100000000E-03 0. -1.
    9900012    2    1    2    0    0  0.35357678068E+02 -0.24265331719E+02  0.66821302092E+01  0.47787278970E+02  0.20000036135E+02 0.  0.
         12    1    1    2    0    0 -0.35357678068E+02  0.24265331719E+02 -0.66821302092E+01  0.43400721030E+02  0.00000000000E+00 0. -1.
         11    1    3    3    0    0  0.32401019938E-01 -0.56667780393E+00  0.13014350868E+01  0.14198264351E+01  0.51100000000E-03 0. -1.
        -11    1    3    3    0    0  0.23581928432E+02 -0.71291647607E+01  0.79722444642E+01  0.25893802749E+02  0.51100000000E-03 0.  1.
        -12    1    3    3    0    0  0.11743348617E+02 -0.16569489154E+02 -0.25915493418E+01  0.20473649786E+02  0.00000000000E+00 0.  1.
</event>
<event>
 7    1  0.2751796E-010  0.4778727E+02  0.7816164E-02  0.1312668E+00
        -11   -1    0    0    0    0  0.00000000000E+00  0.00000000000E+00  0.45593999997E+02  0.45594000000E+02  0.51100000000E-03 0.  1.
         11   -1    0    0    0    0 -0.00000000000E+00 -0.00000000000E+00 -0.45593999997E+02  0.45594000000E+02  0.51100000000E-03 0. -1.
    9900012    2    1    2    0    0  0.42319117169E+02 -0.96259250354E+01  0.23917676440E+00  0.47787270556E+02  0.19999997772E+02 0.  0.
         12    1    1    2    0    0 -0.42319117169E+02  0.96259250354E+01 -0.23917676440E+00  0.43400729444E+02  0.00000000000E+00 0. -1.
         11    1    3    3    0    0  0.22927927948E+02  0.15697629091E+01 -0.16292636752E+01  0.23039282453E+02  0.51100000000E-03 0.  1.
        -11    1    3    3    0    0  0.98410483444E+01 -0.90450043920E+01  0.52941338950E+01  0.14376584815E+02  0.51100000000E-03 0. -1.
         12    1    3    3    0    0  0.95501408772E+01 -0.21506835526E+01 -0.34256934555E+01  0.10371403288E+02  0.00000000000E+00 0. -1.
</event>
<event>
 7    1  0.2751796E-010  0.4778726E+02  0.7816164E-02  0.1312668E+00
        -11   -1    0    0    0    0  0.00000000000E+00  0.00000000000E+00  0.45593999997E+02  0.45594000000E+02  0.51100000000E-03 0. -1.
         11   -1    0    0    0    0 -0.00000000000E+00 -0.00000000000E+00 -0.45593999997E+02  0.45594000000E+02  0.51100000000E-03 0.  1.
    9900012    2    1    2    0    0  0.35995300877E+02 -0.24220535000E+02  0.11523252602E+01  0.47787264356E+02  0.19999969505E+02 0.  0.
         12    1    1    2    0    0 -0.35995300877E+02  0.24220535000E+02 -0.11523252602E+01  0.43400735644E+02  0.00000000000E+00 0. -1.
         11    1    3    3    0    0  0.91506857051E+00  0.16316116723E+01  0.11277167801E+01  0.21843196962E+01  0.51100000000E-03 0. -1.
        -11    1    3    3    0    0  0.24026340827E+02 -0.10307137565E+02 -0.29050927842E+01  0.26304784786E+02  0.51100000000E-03 0.  1.
        -12    1    3    3    0    0  0.11053891480E+02 -0.15545009108E+02  0.29297012643E+01  0.19298159874E+02  0.00000000000E+00 0.  1.
</event>
<event>
 7    1  0.2751796E-010  0.4778728E+02  0.7816164E-02  0.1312668E+00
        -11   -1    0    0    0    0  0.00000000000E+00  0.00000000000E+00  0.45593999997E+02  0.45594000000E+02  0.51100000000E-03 0.  1.
         11   -1    0    0    0    0 -0.00000000000E+00 -0.00000000000E+00 -0.45593999997E+02  0.45594000000E+02  0.51100000000E-03 0. -1.
    9900012    2    1    2    0    0  0.11108132768E+02  0.40166154896E+02  0.12120726787E+02  0.47787278456E+02  0.20000033791E+02 0.  0.
         12    1    1    2    0    0 -0.11108132768E+02 -0.40166154896E+02 -0.12120726787E+02  0.43400721544E+02  0.00000000000E+00 0. -1.
         11    1    3    3    0    0  0.38188886455E+01  0.13783208249E+02  0.10797129444E+02  0.17920344434E+02  0.51100000000E-03 0. -1.
        -11    1    3    3    0    0  0.86722776233E+01  0.26151767646E+02 -0.51210196264E+00  0.27556951915E+02  0.51100000000E-03 0.  1.
        -12    1    3    3    0    0 -0.13830335005E+01  0.23117900076E+00  0.18356993055E+01  0.23099821068E+01  0.00000000000E+00 0.  1.
</event>
<event>
 7    1  0.2751796E-010  0.4778732E+02  0.7816164E-02  0.1312668E+00
        -11   -1    0    0    0    0  0.00000000000E+00  0.00000000000E+00  0.45593999997E+02  0.45594000000E+02  0.51100000000E-03 0.  1.
         11   -1    0    0    0    0 -0.00000000000E+00 -0.00000000000E+00 -0.45593999997E+02  0.45594000000E+02  0.51100000000E-03 0. -1.
    9900012    2    1    2    0    0 -0.16174875170E+02 -0.22519669861E+02  0.33389478873E+02  0.47787315480E+02  0.20000202600E+02 0.  0.
         12    1    1    2    0    0  0.16174875170E+02  0.22519669861E+02 -0.33389478873E+02  0.43400684520E+02  0.00000000000E+00 0. -1.
         11    1    3    3    0    0 -0.77385903883E+01  0.28810681489E+00  0.13912743603E+02  0.15922726574E+02  0.51100000000E-03 0. -1.
        -11    1    3    3    0    0 -0.92752514556E+01 -0.22445462850E+02  0.18988869423E+02  0.30828659626E+02  0.51100000000E-03 0.  1.
        -12    1    3    3    0    0  0.83896667427E+00 -0.36231382616E+00  0.48786584675E+00  0.10359292802E+01  0.00000000000E+00 0.  1.
</event>
<event>
 7    1  0.2751796E-010  0.4778727E+02  0.7816164E-02  0.1312668E+00
        -11   -1    0    0    0    0  0.00000000000E+00  0.00000000000E+00  0.45593999997E+02  0.45594000000E+02  0.51100000000E-03 0.  1.
         11   -1    0    0    0    0 -0.00000000000E+00 -0.00000000000E+00 -0.45593999997E+02  0.45594000000E+02  0.51100000000E-03 0. -1.
    9900012    2    1    2    0    0  0.84270283376E+01  0.36880338428E+02 -0.21270853360E+02  0.47787269916E+02  0.19999994856E+02 0.  0.
         12    1    1    2    0    0 -0.84270283376E+01 -0.36880338428E+02  0.21270853360E+02  0.43400730084E+02  0.00000000000E+00 0. -1.
         11    1    3    3    0    0  0.25747731087E+01 -0.13401210089E+01 -0.33050409234E+01  0.43987130671E+01  0.51100000000E-03 0. -1.
        -11    1    3    3    0    0  0.56272411311E+00  0.20999299255E+02 -0.12990347354E+02  0.24698913990E+02  0.51100000000E-03 0.  1.
         12    1    3    3    0    0  0.52895311158E+01  0.17221160182E+02 -0.49754650818E+01  0.18689642859E+02  0.00000000000E+00 0. -1.
</event>
<event>
 7    1  0.2751796E-010  0.4778727E+02  0.7816164E-02  0.1312668E+00
        -11   -1    0    0    0    0  0.00000000000E+00  0.00000000000E+00  0.45593999997E+02  0.45594000000E+02  0.51100000000E-03 0.  1.
         11   -1    0    0    0    0 -0.00000000000E+00 -0.00000000000E+00 -0.45593999997E+02  0.45594000000E+02  0.51100000000E-03 0. -1.
    9900012    2    1    2    0    0  0.40621602507E+02 -0.60779394489E+01  0.14020250202E+02  0.47787270122E+02  0.19999995795E+02 0.  0.
         12    1    1    2    0    0 -0.40621602507E+02  0.60779394489E+01 -0.14020250202E+02  0.43400729878E+02  0.00000000000E+00 0. -1.
         11    1    3    3    0    0  0.17190052898E+02 -0.16029765972E+01  0.13923159698E+02  0.22179310829E+02  0.51100000000E-03 0. -1.
        -11    1    3    3    0    0  0.10109504104E+02  0.24595983806E+01  0.15491528072E+01  0.10519105100E+02  0.51100000000E-03 0.  1.
         12    1    3    3    0    0  0.13322045505E+02 -0.69345612323E+01 -0.14520623030E+01  0.15088854193E+02  0.00000000000E+00 0. -1.
</event>
<event>
 7    1  0.2751796E-010  0.4778727E+02  0.7816164E-02  0.1312668E+00
        -11   -1    0    0    0    0  0.00000000000E+00  0.00000000000E+00  0.45593999997E+02  0.45594000000E+02  0.51100000000E-03 0.  1.
         11   -1    0    0    0    0 -0.00000000000E+00 -0.00000000000E+00 -0.45593999997E+02  0.45594000000E+02  0.51100000000E-03 0. -1.
    9900012    2    1    2    0    0 -0.73996512181E+00  0.43267945182E+02  0.33106607593E+01  0.47787273010E+02  0.20000008960E+02 0.  0.
         12    1    1    2    0    0  0.73996512181E+00 -0.43267945182E+02 -0.33106607593E+01  0.43400726990E+02  0.00000000000E+00 0. -1.
         11    1    3    3    0    0  0.52946363756E+01  0.17477980147E+02  0.26407936740E+01  0.18452283216E+02  0.51100000000E-03 0. -1.
        -11    1    3    3    0    0  0.35738182284E+01  0.43235669340E+01 -0.12198878455E+01  0.57405169087E+01  0.51100000000E-03 0.  1.
        -12    1    3    3    0    0 -0.96084197258E+01  0.21466398100E+02  0.18897549309E+01  0.23594472885E+02  0.00000000000E+00 0.  1.
</event>
<event>
 7    1  0.2751796E-010  0.4778729E+02  0.7816164E-02  0.1312668E+00
        -11   -1    0    0    0    0  0.00000000000E+00  0.00000000000E+00  0.45593999997E+02  0.45594000000E+02  0.51100000000E-03 0.  1.
         11   -1    0    0    0    0 -0.00000000000E+00 -0.00000000000E+00 -0.45593999997E+02  0.45594000000E+02  0.51100000000E-03 0. -1.
    9900012    2    1    2    0    0  0.24191681579E+02  0.29290448023E+02  0.20987001023E+02  0.47787285548E+02  0.20000066128E+02 0.  0.
         12    1    1    2    0    0 -0.24191681579E+02 -0.29290448023E+02 -0.20987001023E+02  0.43400714452E+02  0.00000000000E+00 0. -1.
         11    1    3    3    0    0  0.47303859545E+01 -0.39267358985E+00 -0.10576339584E+01  0.48630580582E+01  0.51100000000E-03 0. -1.
        -11    1    3    3    0    0  0.10507173804E+02  0.17468972663E+02  0.18131460695E+02  0.27282147541E+02  0.51100000000E-03 0.  1.
         12    1    3    3    0    0  0.89541218199E+01  0.12214148950E+02  0.39131742866E+01  0.15642079949E+02  0.00000000000E+00 0. -1.
</event>
<event>
 7    1  0.2751796E-010  0.4778726E+02  0.7816164E-02  0.1312668E+00
        -11   -1    0    0    0    0  0.00000000000E+00  0.00000000000E+00  0.45593999997E+02  0.45594000000E+02  0.51100000000E-03 0. -1.
         11   -1    0    0    0    0 -0.00000000000E+00 -0.00000000000E+00 -0.45593999997E+02  0.45594000000E+02  0.51100000000E-03 0.  1.
    9900012    2    1    2    0    0  0.26659956778E+00  0.19549657571E+02 -0.38747435558E+02  0.47787263269E+02  0.19999964549E+02 0.  0.
         12    1    1    2    0    0 -0.26659956778E+00 -0.19549657571E+02  0.38747435558E+02  0.43400736731E+02  0.00000000000E+00 0. -1.
         11    1    3    3    0    0  0.80836246676E+01  0.28993943473E+01 -0.12049168084E+02  0.14796416023E+02  0.51100000000E-03 0. -1.
        -11    1    3    3    0    0 -0.60695222120E+01  0.15987363301E+02 -0.21530003691E+02  0.27495016720E+02  0.51100000000E-03 0.  1.
         12    1    3    3    0    0 -0.17475028878E+01  0.66289992267E+00 -0.51682637829E+01  0.54958305268E+01  0.00000000000E+00 0. -1.
</event>
<event>
 7    1  0.2751796E-010  0.4778727E+02  0.7816164E-02  0.1312668E+00
        -11   -1    0    0    0    0  0.00000000000E+00  0.00000000000E+00  0.45593999997E+02  0.45594000000E+02  0.51100000000E-03 0. -1.
         11   -1    0    0    0    0 -0.00000000000E+00 -0.00000000000E+00 -0.45593999997E+02  0.45594000000E+02  0.51100000000E-03 0.  1.
    9900012    2    1    2    0    0 -0.38936917378E+02 -0.13671491732E+02 -0.13439861934E+02  0.47787272934E+02  0.20000008614E+02 0.  0.
         12    1    1    2    0    0  0.38936917378E+02  0.13671491732E+02  0.13439861934E+02  0.43400727066E+02  0.00000000000E+00 0. -1.
         11    1    3    3    0    0 -0.45785526585E+01 -0.20422624548E+01  0.16591506680E+01  0.52807917571E+01  0.51100000000E-03 0. -1.
        -11    1    3    3    0    0 -0.13155812552E+01 -0.20006154857E+01  0.28238118555E+01  0.37023141435E+01  0.51100000000E-03 0.  1.
        -12    1    3    3    0    0 -0.33042783464E+02 -0.96286137917E+01 -0.17922824457E+02  0.38804167033E+02  0.00000000000E+00 0.  1.
</event>
<event>
 7    1  0.2751796E-010  0.4778727E+02  0.7816164E-02  0.1312668E+00
        -11   -1    0    0    0    0  0.00000000000E+00  0.00000000000E+00  0.45593999997E+02  0.45594000000E+02  0.51100000000E-03 0.  1.
         11   -1    0    0    0    0 -0.00000000000E+00 -0.00000000000E+00 -0.45593999997E+02  0.45594000000E+02  0.51100000000E-03 0. -1.
    9900012    2    1    2    0    0  0.40134635136E+02  0.16486539706E+02  0.10142135674E+01  0.47787267769E+02  0.19999985067E+02 0.  0.
         12    1    1    2    0    0 -0.40134635136E+02 -0.16486539706E+02 -0.10142135674E+01  0.43400732231E+02  0.00000000000E+00 0. -1.
         11    1    3    3    0    0 -0.18794938914E+01 -0.27066283153E+00  0.25983512717E+00  0.19165777340E+01  0.51100000000E-03 0. -1.
        -11    1    3    3    0    0  0.32613533409E+02  0.10387587987E+02  0.27626877700E+01  0.34339146606E+02  0.51100000000E-03 0.  1.
         12    1    3    3    0    0  0.94005956186E+01  0.63696145501E+01 -0.20083093297E+01  0.11531543429E+02  0.00000000000E+00 0. -1.
</event>
<event>
 7    1  0.2751796E-010  0.4778727E+02  0.7816164E-02  0.1312668E+00
        -11   -1    0    0    0    0  0.00000000000E+00  0.00000000000E+00  0.45593999997E+02  0.45594000000E+02  0.51100000000E-03 0. -1.
         11   -1    0    0    0    0 -0.00000000000E+00 -0.00000000000E+00 -0.45593999997E+02  0.45594000000E+02  0.51100000000E-03 0.  1.
    9900012    2    1    2    0    0 -0.16053143951E+02  0.39618802891E+02 -0.75013658253E+01  0.47787268872E+02  0.19999990093E+02 0.  0.
         12    1    1    2    0    0  0.16053143951E+02 -0.39618802891E+02  0.75013658253E+01  0.43400731128E+02  0.00000000000E+00 0. -1.
         11    1    3    3    0    0 -0.60175106770E+01  0.21484282183E+02 -0.11269547155E+02  0.24995749819E+02  0.51100000000E-03 0. -1.
        -11    1    3    3    0    0 -0.77676918276E+01  0.16431239723E+02  0.60457311936E+01  0.19153943225E+02  0.51100000000E-03 0.  1.
        -12    1    3    3    0    0 -0.22679414460E+01  0.17032809855E+01 -0.22775498635E+01  0.36375758273E+01  0.00000000000E+00 0.  1.
</event>
<event>
 7    1  0.2751796E-010  0.4778728E+02  0.7816164E-02  0.1312668E+00
        -11   -1    0    0    0    0  0.00000000000E+00  0.00000000000E+00  0.45593999997E+02  0.45594000000E+02  0.51100000000E-03 0. -1.
         11   -1    0    0    0    0 -0.00000000000E+00 -0.00000000000E+00 -0.45593999997E+02  0.45594000000E+02  0.51100000000E-03 0.  1.
    9900012    2    1    2    0    0 -0.26050256263E+02  0.34619343359E+02  0.25511057562E+01  0.47787275046E+02  0.20000018245E+02 0.  0.
         12    1    1    2    0    0  0.26050256263E+02 -0.34619343359E+02 -0.25511057562E+01  0.43400724954E+02  0.00000000000E+00 0. -1.
         11    1    3    3    0    0 -0.12504630116E+02  0.37014990091E+01 -0.10430039567E+01  0.13082611619E+02  0.51100000000E-03 0. -1.
        -11    1    3    3    0    0 -0.36979472074E+01  0.13170025436E+02 -0.15478134524E+01  0.13766630316E+02  0.51100000000E-03 0.  1.
        -12    1    3    3    0    0 -0.98476789387E+01  0.17747818914E+02  0.51419231653E+01  0.20938033110E+02  0.00000000000E+00 0.  1.
</event>
<event>
 7    1  0.2751796E-010  0.4778727E+02  0.7816164E-02  0.1312668E+00
        -11   -1    0    0    0    0  0.00000000000E+00  0.00000000000E+00  0.45593999997E+02  0.45594000000E+02  0.51100000000E-03 0.  1.
         11   -1    0    0    0    0 -0.00000000000E+00 -0.00000000000E+00 -0.45593999997E+02  0.45594000000E+02  0.51100000000E-03 0. -1.
    9900012    2    1    2    0    0  0.75392676527E+01 -0.33486207073E+02  0.26560432761E+02  0.47787271788E+02  0.20000003389E+02 0.  0.
         12    1    1    2    0    0 -0.75392676527E+01  0.33486207073E+02 -0.26560432761E+02  0.43400728212E+02  0.00000000000E+00 0. -1.
         11    1    3    3    0    0  0.86351897501E+01 -0.16931177203E+02  0.87110862608E+01  0.20907278340E+02  0.51100000000E-03 0. -1.
        -11    1    3    3    0    0  0.30425964343E+01 -0.12713251435E+01  0.68438637205E+01  0.75968501083E+01  0.51100000000E-03 0.  1.
         12    1    3    3    0    0 -0.41385185317E+01 -0.15283704727E+02  0.11005482780E+02  0.19283143339E+02  0.00000000000E+00 0. -1.
</event>
<event>
 7    1  0.2751796E-010  0.4778727E+02  0.7816164E-02  0.1312668E+00
        -11   -1    0    0    0    0  0.00000000000E+00  0.00000000000E+00  0.45593999997E+02  0.45594000000E+02  0.51100000000E-03 0.  1.
         11   -1    0    0    0    0 -0.00000000000E+00 -0.00000000000E+00 -0.45593999997E+02  0.45594000000E+02  0.51100000000E-03 0. -1.
    9900012    2    1    2    0    0 -0.40536743669E+00 -0.25843394590E+02  0.34865140254E+02  0.47787269919E+02  0.19999994868E+02 0.  0.
         12    1    1    2    0    0  0.40536743669E+00  0.25843394590E+02 -0.34865140254E+02  0.43400730081E+02  0.00000000000E+00 0. -1.
         11    1    3    3    0    0 -0.39083462099E+01 -0.61097841277E+01  0.87872130171E+01  0.11393846807E+02  0.51100000000E-03 0.  1.
        -11    1    3    3    0    0  0.80676277914E+00 -0.35891717030E+01  0.17560891213E+02  0.17942071233E+02  0.51100000000E-03 0. -1.
        -12    1    3    3    0    0  0.26962159941E+01 -0.16144438759E+02  0.85170360239E+01  0.18451351879E+02  0.00000000000E+00 0.  1.
</event>
<event>
 7    1  0.2751796E-010  0.4778728E+02  0.7816164E-02  0.1312668E+00
        -11   -1    0    0    0    0  0.00000000000E+00  0.00000000000E+00  0.45593999997E+02  0.45594000000E+02  0.51100000000E-03 0. -1.
         11   -1    0    0    0    0 -0.00000000000E+00 -0.00000000000E+00 -0.45593999997E+02  0.45594000000E+02  0.51100000000E-03 0.  1.
    9900012    2    1    2    0    0 -0.19242544817E+01  0.17678316327E+02 -0.39590364842E+02  0.47787278672E+02  0.20000034775E+02 0.  0.
         12    1    1    2    0    0  0.19242544817E+01 -0.17678316327E+02  0.39590364842E+02  0.43400721328E+02  0.00000000000E+00 0. -1.
         11    1    3    3    0    0 -0.74315813513E+01  0.14157873910E+02 -0.21559903388E+02  0.26842191219E+02  0.51100000000E-03 0. -1.
        -11    1    3    3    0    0  0.50911965581E+01 -0.43265493481E-01 -0.16068395067E+02  0.16855725276E+02  0.51100000000E-03 0.  1.
        -12    1    3    3    0    0  0.41613031149E+00  0.35637079104E+01 -0.19620663872E+01  0.40893621770E+01  0.00000000000E+00 0.  1.
</event>
<event>
 7    1  0.2751796E-010  0.4778727E+02  0.7816164E-02  0.1312668E+00
        -11   -1    0    0    0    0  0.00000000000E+00  0.00000000000E+00  0.45593999997E+02  0.45594000000E+02  0.51100000000E-03 0. -1.
         11   -1    0    0    0    0 -0.00000000000E+00 -0.00000000000E+00 -0.45593999997E+02  0.45594000000E+02  0.51100000000E-03 0.  1.
    9900012    2    1    2    0    0 -0.29593290330E+02 -0.31515536659E+02 -0.38251615688E+01  0.47787265623E+02  0.19999975283E+02 0.  0.
         12    1    1    2    0    0  0.29593290330E+02  0.31515536659E+02  0.38251615688E+01  0.43400734377E+02  0.00000000000E+00 0. -1.
         11    1    3    3    0    0  0.62042428039E+00  0.15383762464E+01 -0.84174734741E+00  0.18601254316E+01  0.51100000000E-03 0. -1.
        -11    1    3    3    0    0 -0.18260481117E+02 -0.25665102596E+02  0.28463131644E+00  0.31499582174E+02  0.51100000000E-03 0.  1.
        -12    1    3    3    0    0 -0.11953233493E+02 -0.73888103091E+01 -0.32680455378E+01  0.14427558018E+02  0.00000000000E+00 0.  1.
</event>
<event>
 7    1  0.2751796E-010  0.4778728E+02  0.7816164E-02  0.1312668E+00
        -11   -1    0    0    0    0  0.00000000000E+00  0.00000000000E+00  0.45593999997E+02  0.45594000000E+02  0.51100000000E-03 0.  1.
         11   -1    0    0    0    0 -0.00000000000E+00 -0.00000000000E+00 -0.45593999997E+02  0.45594000000E+02  0.51100000000E-03 0. -1.
    9900012    2    1    2    0    0 -0.25304424939E+02 -0.28484844563E+01  0.35145341196E+02  0.47787276585E+02  0.20000025262E+02 0.  0.
         12    1    1    2    0    0  0.25304424939E+02  0.28484844563E+01 -0.35145341196E+02  0.43400723415E+02  0.00000000000E+00 0. -1.
         11    1    3    3    0    0 -0.19022635480E+02 -0.24192015244E+01  0.17024813101E+02  0.25642883184E+02  0.51100000000E-03 0. -1.
        -11    1    3    3    0    0 -0.10864506711E+01  0.50524763040E+01  0.77543380668E+01  0.93186721682E+01  0.51100000000E-03 0.  1.
        -12    1    3    3    0    0 -0.51953387874E+01 -0.54817592359E+01  0.10366190028E+02  0.12825721232E+02  0.00000000000E+00 0.  1.
</event>
<event>
 7    1  0.2751796E-010  0.4778727E+02  0.7816164E-02  0.1312668E+00
        -11   -1    0    0    0    0  0.00000000000E+00  0.00000000000E+00  0.45593999997E+02  0.45594000000E+02  0.51100000000E-03 0.  1.
         11   -1    0    0    0    0 -0.00000000000E+00 -0.00000000000E+00 -0.45593999997E+02  0.45594000000E+02  0.51100000000E-03 0. -1.
    9900012    2    1    2    0    0  0.35059601367E+02  0.12072759631E+02  0.22554291628E+02  0.47787271389E+02  0.20000001571E+02 0.  0.
         12    1    1    2    0    0 -0.35059601367E+02 -0.12072759631E+02 -0.22554291628E+02  0.43400728611E+02  0.00000000000E+00 0. -1.
         11    1    3    3    0    0 -0.50461705558E-01  0.25379180534E+01  0.71323940498E+01  0.75706419525E+01  0.51100000000E-03 0. -1.
        -11    1    3    3    0    0  0.35165408323E+02  0.10059983325E+02  0.14967781595E+02  0.39520168183E+02  0.51100000000E-03 0.  1.
         12    1    3    3    0    0 -0.55345250663E-01 -0.52514174790E+00  0.45411598288E+00  0.69646125382E+00  0.00000000000E+00 0. -1.
</event>
<event>
 7    1  0.2751796E-010  0.4778727E+02  0.7816164E-02  0.1312668E+00
        -11   -1    0    0    0    0  0.00000000000E+00  0.00000000000E+00  0.45593999997E+02  0.45594000000E+02  0.51100000000E-03 0.  1.
         11   -1    0    0    0    0 -0.00000000000E+00 -0.00000000000E+00 -0.45593999997E+02  0.45594000000E+02  0.51100000000E-03 0. -1.
    9900012    2    1    2    0    0 -0.25538180951E+02  0.75896489203E+01  0.34261083229E+02  0.47787270962E+02  0.19999999625E+02 0.  0.
         12    1    1    2    0    0  0.25538180951E+02 -0.75896489203E+01 -0.34261083229E+02  0.43400729038E+02  0.00000000000E+00 0. -1.
         11    1    3    3    0    0 -0.22973152107E+02  0.87822874772E+01  0.20795380500E+02  0.32207796283E+02  0.51100000000E-03 0. -1.
        -11    1    3    3    0    0 -0.41399920378E+01 -0.16563249040E+01  0.13178897258E+02  0.13912809905E+02  0.51100000000E-03 0.  1.
         12    1    3    3    0    0  0.15749631936E+01  0.46368634712E+00  0.28680547124E+00  0.16666647737E+01  0.00000000000E+00 0. -1.
</event>
<event>
 7    1  0.2751796E-010  0.4778727E+02  0.7816164E-02  0.1312668E+00
        -11   -1    0    0    0    0  0.00000000000E+00  0.00000000000E+00  0.45593999997E+02  0.45594000000E+02  0.51100000000E-03 0.  1.
         11   -1    0    0    0    0 -0.00000000000E+00 -0.00000000000E+00 -0.45593999997E+02  0.45594000000E+02  0.51100000000E-03 0. -1.
    9900012    2    1    2    0    0  0.36330125273E+02  0.73230594451E+01  0.22585794120E+02  0.47787270766E+02  0.19999998732E+02 0.  0.
         12    1    1    2    0    0 -0.36330125273E+02 -0.73230594451E+01 -0.22585794120E+02  0.43400729234E+02  0.00000000000E+00 0. -1.
         11    1    3    3    0    0  0.44856122085E+01  0.18034798111E+01 -0.28976551393E+01  0.56364582746E+01  0.51100000000E-03 0. -1.
        -11    1    3    3    0    0  0.31585855489E+02  0.65723391059E+01  0.25404300829E+02  0.41063857699E+02  0.51100000000E-03 0.  1.
        -12    1    3    3    0    0  0.25865757550E+00 -0.10527594719E+01  0.79148430406E-01  0.10869547926E+01  0.00000000000E+00 0.  1.
</event>
<event>
 7    1  0.2751796E-010  0.4778728E+02  0.7816164E-02  0.1312668E+00
        -11   -1    0    0    0    0  0.00000000000E+00  0.00000000000E+00  0.45593999997E+02  0.45594000000E+02  0.51100000000E-03 0. -1.
         11   -1    0    0    0    0 -0.00000000000E+00 -0.00000000000E+00 -0.45593999997E+02  0.45594000000E+02  0.51100000000E-03 0.  1.
    9900012    2    1    2    0    0  0.36690020428E+02  0.20216588128E+02 -0.11347008897E+02  0.47787278284E+02  0.20000033008E+02 0.  0.
         12    1    1    2    0    0 -0.36690020428E+02 -0.20216588128E+02  0.11347008897E+02  0.43400721716E+02  0.00000000000E+00 0. -1.
         11    1    3    3    0    0  0.30921488161E+01  0.93219923873E+00  0.48016252402E+01  0.57867076071E+01  0.51100000000E-03 0. -1.
        -11    1    3    3    0    0  0.34697270329E+01  0.25698428304E+01 -0.18420121908E+01  0.46942632040E+01  0.51100000000E-03 0.  1.
         12    1    3    3    0    0  0.30128144579E+02  0.16714546059E+02 -0.14306621947E+02  0.37306307473E+02  0.00000000000E+00 0. -1.
</event>
<event>
 7    1  0.2751796E-010  0.4778727E+02  0.7816164E-02  0.1312668E+00
        -11   -1    0    0    0    0  0.00000000000E+00  0.00000000000E+00  0.45593999997E+02  0.45594000000E+02  0.51100000000E-03 0.  1.
         11   -1    0    0    0    0 -0.00000000000E+00 -0.00000000000E+00 -0.45593999997E+02  0.45594000000E+02  0.51100000000E-03 0. -1.
    9900012    2    1    2    0    0  0.26002513126E+02 -0.18150046646E+02  0.29632224936E+02  0.47787266863E+02  0.19999980936E+02 0.  0.
         12    1    1    2    0    0 -0.26002513126E+02  0.18150046646E+02 -0.29632224936E+02  0.43400733137E+02  0.00000000000E+00 0. -1.
         11    1    3    3    0    0 -0.20270165960E+01 -0.63805950675E+01  0.81101696663E+01  0.10516446262E+02  0.51100000000E-03 0. -1.
        -11    1    3    3    0    0  0.14937799888E+02 -0.69544510843E+01  0.11420785434E+02  0.20048356431E+02  0.51100000000E-03 0.  1.
         12    1    3    3    0    0  0.13091729834E+02 -0.48150004945E+01  0.10101269836E+02  0.17222464171E+02  0.00000000000E+00 0. -1.
</event>
<event>
 7    1  0.2751796E-010  0.4778727E+02  0.7816164E-02  0.1312668E+00
        -11   -1    0    0    0    0  0.00000000000E+00  0.00000000000E+00  0.45593999997E+02  0.45594000000E+02  0.51100000000E-03 0.  1.
         11   -1    0    0    0    0 -0.00000000000E+00 -0.00000000000E+00 -0.45593999997E+02  0.45594000000E+02  0.51100000000E-03 0. -1.
    9900012    2    1    2    0    0 -0.15822628887E+02 -0.82516254271E+00  0.40405282955E+02  0.47787269951E+02  0.19999995013E+02 0.  0.
         12    1    1    2    0    0  0.15822628887E+02  0.82516254271E+00 -0.40405282955E+02  0.43400730049E+02  0.00000000000E+00 0. -1.
         11    1    3    3    0    0 -0.52326189577E+01  0.90385799092E+01  0.18934434289E+02  0.21623807020E+02  0.51100000000E-03 0. -1.
        -11    1    3    3    0    0 -0.94328458907E+01 -0.68532649635E+01  0.15750287992E+02  0.19596361763E+02  0.51100000000E-03 0.  1.
         12    1    3    3    0    0 -0.11571640388E+01 -0.30104774884E+01  0.57205606738E+01  0.65671011674E+01  0.00000000000E+00 0. -1.
</event>
<event>
 7    1  0.2751796E-010  0.4778727E+02  0.7816164E-02  0.1312668E+00
        -11   -1    0    0    0    0  0.00000000000E+00  0.00000000000E+00  0.45593999997E+02  0.45594000000E+02  0.51100000000E-03 0. -1.
         11   -1    0    0    0    0 -0.00000000000E+00 -0.00000000000E+00 -0.45593999997E+02  0.45594000000E+02  0.51100000000E-03 0.  1.
    9900012    2    1    2    0    0 -0.30049125396E+02  0.31314041212E+02 -0.32283598529E+00  0.47787270315E+02  0.19999996676E+02 0.  0.
         12    1    1    2    0    0  0.30049125396E+02 -0.31314041212E+02  0.32283598529E+00  0.43400729685E+02  0.00000000000E+00 0. -1.
         11    1    3    3    0    0 -0.18774750316E+02  0.17744807619E+02 -0.35585355201E+01  0.26077435115E+02  0.51100000000E-03 0. -1.
        -11    1    3    3    0    0 -0.11520195092E+02  0.10002850875E+02 -0.19819012297E+01  0.15385052919E+02  0.51100000000E-03 0.  1.
         12    1    3    3    0    0  0.24582001178E+00  0.35663827182E+01  0.52176007645E+01  0.63247822815E+01  0.00000000000E+00 0. -1.
</event>
<event>
 7    1  0.2751796E-010  0.4778727E+02  0.7816164E-02  0.1312668E+00
        -11   -1    0    0    0    0  0.00000000000E+00  0.00000000000E+00  0.45593999997E+02  0.45594000000E+02  0.51100000000E-03 0.  1.
         11   -1    0    0    0    0 -0.00000000000E+00 -0.00000000000E+00 -0.45593999997E+02  0.45594000000E+02  0.51100000000E-03 0. -1.
    9900012    2    1    2    0    0  0.11419558309E+02  0.41005694364E+02  0.84705269771E+01  0.47787272938E+02  0.20000008633E+02 0.  0.
         12    1    1    2    0    0 -0.11419558309E+02 -0.41005694364E+02 -0.84705269771E+01  0.43400727062E+02  0.00000000000E+00 0. -1.
         11    1    3    3    0    0  0.83856659459E+01  0.12175964666E+02  0.70194995129E+01  0.16366028308E+02  0.51100000000E-03 0. -1.
        -11    1    3    3    0    0 -0.41305201198E+01  0.12944261927E+02  0.30379945993E+01  0.13922805922E+02  0.51100000000E-03 0.  1.
        -12    1    3    3    0    0  0.71644124832E+01  0.15885467771E+02 -0.15869671351E+01  0.17498438708E+02  0.00000000000E+00 0.  1.
</event>
<event>
 7    1  0.2751796E-010  0.4778727E+02  0.7816164E-02  0.1312668E+00
        -11   -1    0    0    0    0  0.00000000000E+00  0.00000000000E+00  0.45593999997E+02  0.45594000000E+02  0.51100000000E-03 0.  1.
         11   -1    0    0    0    0 -0.00000000000E+00 -0.00000000000E+00 -0.45593999997E+02  0.45594000000E+02  0.51100000000E-03 0. -1.
    9900012    2    1    2    0    0  0.28464769853E+01 -0.37473515239E+02  0.21708442576E+02  0.47787271266E+02  0.20000001010E+02 0.  0.
         12    1    1    2    0    0 -0.28464769853E+01  0.37473515239E+02 -0.21708442576E+02  0.43400728734E+02  0.00000000000E+00 0. -1.
         11    1    3    3    0    0 -0.40987020511E+01 -0.91595034457E+01  0.45609856158E+01  0.11022633620E+02  0.51100000000E-03 0. -1.
        -11    1    3    3    0    0  0.88830580936E+01 -0.27351825582E+02  0.11963580498E+02  0.31147364934E+02  0.51100000000E-03 0.  1.
        -12    1    3    3    0    0 -0.19378790573E+01 -0.96218621161E+00  0.51838764619E+01  0.56172727118E+01  0.00000000000E+00 0.  1.
</event>
<event>
 7    1  0.2751796E-010  0.4778727E+02  0.7816164E-02  0.1312668E+00
        -11   -1    0    0    0    0  0.00000000000E+00  0.00000000000E+00  0.45593999997E+02  0.45594000000E+02  0.51100000000E-03 0. -1.
         11   -1    0    0    0    0 -0.00000000000E+00 -0.00000000000E+00 -0.45593999997E+02  0.45594000000E+02  0.51100000000E-03 0.  1.
    9900012    2    1    2    0    0  0.31056016101E+02 -0.30114652130E+02  0.35006928673E+01  0.47787271210E+02  0.20000000755E+02 0.  0.
         12    1    1    2    0    0 -0.31056016101E+02  0.30114652130E+02 -0.35006928673E+01  0.43400728790E+02  0.00000000000E+00 0. -1.
         11    1    3    3    0    0  0.11396479288E+02 -0.86072076912E+01 -0.71057188929E+01  0.15951645860E+02  0.51100000000E-03 0. -1.
        -11    1    3    3    0    0  0.29109541353E+01 -0.33014847873E+01  0.46250631823E+01  0.63847212531E+01  0.51100000000E-03 0.  1.
         12    1    3    3    0    0  0.16748582678E+02 -0.18205959652E+02  0.59813485778E+01  0.25450904097E+02  0.00000000000E+00 0. -1.
</event>
<event>
 7    1  0.2751796E-010  0.4778727E+02  0.7816164E-02  0.1312668E+00
        -11   -1    0    0    0    0  0.00000000000E+00  0.00000000000E+00  0.45593999997E+02  0.45594000000E+02  0.51100000000E-03 0.  1.
         11   -1    0    0    0    0 -0.00000000000E+00 -0.00000000000E+00 -0.45593999997E+02  0.45594000000E+02  0.51100000000E-03 0. -1.
    9900012    2    1    2    0    0  0.41368682974E+02  0.77866775736E+01 -0.10565163373E+02  0.47787274710E+02  0.20000016712E+02 0.  0.
         12    1    1    2    0    0 -0.41368682974E+02 -0.77866775736E+01  0.10565163373E+02  0.43400725290E+02  0.00000000000E+00 0. -1.
         11    1    3    3    0    0  0.78260805536E+01 -0.59357146306E+01 -0.32674265970E+01  0.10351633776E+02  0.51100000000E-03 0. -1.
        -11    1    3    3    0    0  0.19188430700E+02  0.98936737322E+01 -0.65506672554E+01  0.22560848707E+02  0.51100000000E-03 0.  1.
         12    1    3    3    0    0  0.14354171720E+02  0.38287184720E+01 -0.74706952043E+00  0.14874792227E+02  0.00000000000E+00 0. -1.
</event>
<event>
 7    1  0.2751796E-010  0.4778727E+02  0.7816164E-02  0.1312668E+00
        -11   -1    0    0    0    0  0.00000000000E+00  0.00000000000E+00  0.45593999997E+02  0.45594000000E+02  0.51100000000E-03 0.  1.
         11   -1    0    0    0    0 -0.00000000000E+00 -0.00000000000E+00 -0.45593999997E+02  0.45594000000E+02  0.51100000000E-03 0. -1.
    9900012    2    1    2    0    0  0.31369736972E+02  0.15246289174E+02  0.25828535936E+02  0.47787274201E+02  0.20000014392E+02 0.  0.
         12    1    1    2    0    0 -0.31369736972E+02 -0.15246289174E+02 -0.25828535936E+02  0.43400725799E+02  0.00000000000E+00 0. -1.
         11    1    3    3    0    0  0.13979577923E+02  0.15012411689E+02  0.95308338046E+01  0.22619414159E+02  0.51100000000E-03 0. -1.
        -11    1    3    3    0    0  0.17392824833E+02  0.43382261594E+00  0.17067762775E+02  0.24372260547E+02  0.51100000000E-03 0.  1.
        -12    1    3    3    0    0 -0.26657838158E-02 -0.19994513115E+00 -0.77006064390E+00  0.79559949545E+00  0.00000000000E+00 0.  1.
</event>
<event>
 7    1  0.2751796E-010  0.4778727E+02  0.7816164E-02  0.1312668E+00
        -11   -1    0    0    0    0  0.00000000000E+00  0.00000000000E+00  0.45593999997E+02  0.45594000000E+02  0.51100000000E-03 0.  1.
         11   -1    0    0    0    0 -0.00000000000E+00 -0.00000000000E+00 -0.45593999997E+02  0.45594000000E+02  0.51100000000E-03 0. -1.
    9900012    2    1    2    0    0 -0.26192151002E+02  0.16785119054E+02  0.30263087446E+02  0.47787268928E+02  0.19999990352E+02 0.  0.
         12    1    1    2    0    0  0.26192151002E+02 -0.16785119054E+02 -0.30263087446E+02  0.43400731072E+02  0.00000000000E+00 0. -1.
         11    1    3    3    0    0 -0.71967962308E+01  0.18206570636E+01  0.15551862269E+00  0.74251501288E+01  0.51100000000E-03 0. -1.
        -11    1    3    3    0    0 -0.11646190495E+02  0.10648339304E+02  0.27032673646E+02  0.31301538743E+02  0.51100000000E-03 0.  1.
        -12    1    3    3    0    0 -0.73491642763E+01  0.43161226873E+01  0.30748951773E+01  0.90605800566E+01  0.00000000000E+00 0.  1.
</event>
<event>
 7    1  0.2751796E-010  0.4778727E+02  0.7816164E-02  0.1312668E+00
        -11   -1    0    0    0    0  0.00000000000E+00  0.00000000000E+00  0.45593999997E+02  0.45594000000E+02  0.51100000000E-03 0.  1.
         11   -1    0    0    0    0 -0.00000000000E+00 -0.00000000000E+00 -0.45593999997E+02  0.45594000000E+02  0.51100000000E-03 0. -1.
    9900012    2    1    2    0    0  0.14991500865E+01  0.23858068754E+02  0.36223863223E+02  0.47787272328E+02  0.20000005850E+02 0.  0.
         12    1    1    2    0    0 -0.14991500865E+01 -0.23858068754E+02 -0.36223863223E+02  0.43400727672E+02  0.00000000000E+00 0. -1.
         11    1    3    3    0    0  0.13835742504E+01  0.18605318094E+02  0.18782233298E+02  0.26473466471E+02  0.51100000000E-03 0. -1.
        -11    1    3    3    0    0  0.36458889186E+01  0.26591122011E+01  0.16117665532E+02  0.16737458772E+02  0.51100000000E-03 0.  1.
        -12    1    3    3    0    0 -0.35303130825E+01  0.25936384596E+01  0.13239643939E+01  0.45763470843E+01  0.00000000000E+00 0.  1.
</event>
<event>
 7    1  0.2751796E-010  0.4778727E+02  0.7816164E-02  0.1312668E+00
        -11   -1    0    0    0    0  0.00000000000E+00  0.00000000000E+00  0.45593999997E+02  0.45594000000E+02  0.51100000000E-03 0.  1.
         11   -1    0    0    0    0 -0.00000000000E+00 -0.00000000000E+00 -0.45593999997E+02  0.45594000000E+02  0.51100000000E-03 0. -1.
    9900012    2    1    2    0    0 -0.21931636175E+02  0.28913770847E+02  0.23803789197E+02  0.47787272010E+02  0.20000004402E+02 0.  0.
         12    1    1    2    0    0  0.21931636175E+02 -0.28913770847E+02 -0.23803789197E+02  0.43400727990E+02  0.00000000000E+00 0. -1.
         11    1    3    3    0    0  0.23870545191E+01  0.92512568984E+01  0.32157876373E+01  0.10080926241E+02  0.51100000000E-03 0. -1.
        -11    1    3    3    0    0 -0.18193604705E+02  0.16779909201E+02  0.17170961102E+02  0.30123321703E+02  0.51100000000E-03 0.  1.
        -12    1    3    3    0    0 -0.61250859892E+01  0.28826047480E+01  0.34170404575E+01  0.75830240668E+01  0.00000000000E+00 0.  1.
</event>
<event>
 7    1  0.2751796E-010  0.4778727E+02  0.7816164E-02  0.1312668E+00
        -11   -1    0    0    0    0  0.00000000000E+00  0.00000000000E+00  0.45593999997E+02  0.45594000000E+02  0.51100000000E-03 0.  1.
         11   -1    0    0    0    0 -0.00000000000E+00 -0.00000000000E+00 -0.45593999997E+02  0.45594000000E+02  0.51100000000E-03 0. -1.
    9900012    2    1    2    0    0 -0.32213038514E+02 -0.12244281530E+02  0.26382212373E+02  0.47787269474E+02  0.19999992841E+02 0.  0.
         12    1    1    2    0    0  0.32213038514E+02  0.12244281530E+02 -0.26382212373E+02  0.43400730526E+02  0.00000000000E+00 0. -1.
         11    1    3    3    0    0 -0.20135669888E+02 -0.91107803432E+00  0.14567858055E+02  0.24869615068E+02  0.51100000000E-03 0. -1.
        -11    1    3    3    0    0 -0.99559186092E+01 -0.12991054664E+02  0.11880254998E+02  0.20224447476E+02  0.51100000000E-03 0.  1.
         12    1    3    3    0    0 -0.21214500163E+01  0.16578511687E+01 -0.65900680456E-01  0.26932069302E+01  0.00000000000E+00 0. -1.
</event>
<event>
 7    1  0.2751796E-010  0.4778728E+02  0.7816164E-02  0.1312668E+00
        -11   -1    0    0    0    0  0.00000000000E+00  0.00000000000E+00  0.45593999997E+02  0.45594000000E+02  0.51100000000E-03 0.  1.
         11   -1    0    0    0    0 -0.00000000000E+00 -0.00000000000E+00 -0.45593999997E+02  0.45594000000E+02  0.51100000000E-03 0. -1.
    9900012    2    1    2    0    0  0.37348119072E+02 -0.17839116882E+02  0.13057819422E+02  0.47787277225E+02  0.20000028178E+02 0.  0.
         12    1    1    2    0    0 -0.37348119072E+02  0.17839116882E+02 -0.13057819422E+02  0.43400722775E+02  0.00000000000E+00 0. -1.
         11    1    3    3    0    0  0.18769642846E+01 -0.62281268129E+01  0.66392938776E+01  0.92947717550E+01  0.51100000000E-03 0. -1.
        -11    1    3    3    0    0  0.22398473021E+02 -0.53429524777E+01  0.67340352848E+01  0.23991372748E+02  0.51100000000E-03 0.  1.
        -12    1    3    3    0    0  0.13072681766E+02 -0.62680375914E+01 -0.31550974013E+00  0.14501132721E+02  0.00000000000E+00 0.  1.
</event>
<event>
 7    1  0.2751796E-010  0.4778730E+02  0.7816164E-02  0.1312668E+00
        -11   -1    0    0    0    0  0.00000000000E+00  0.00000000000E+00  0.45593999997E+02  0.45594000000E+02  0.51100000000E-03 0. -1.
         11   -1    0    0    0    0 -0.00000000000E+00 -0.00000000000E+00 -0.45593999997E+02  0.45594000000E+02  0.51100000000E-03 0.  1.
    9900012    2    1    2    0    0  0.31574072095E+02  0.27830725874E+02 -0.10590079810E+02  0.47787295839E+02  0.20000113046E+02 0.  0.
         12    1    1    2    0    0 -0.31574072095E+02 -0.27830725874E+02  0.10590079810E+02  0.43400704161E+02  0.00000000000E+00 0. -1.
         11    1    3    3    0    0  0.15997647739E+02  0.15432668942E+02 -0.10566619392E+02  0.24611896503E+02  0.51100000000E-03 0.  1.
        -11    1    3    3    0    0  0.13621626792E+02  0.53952152031E+01  0.35485134545E+01  0.15074780646E+02  0.51100000000E-03 0. -1.
         12    1    3    3    0    0  0.19547975639E+01  0.70028417287E+01 -0.35719738731E+01  0.81006186889E+01  0.00000000000E+00 0. -1.
</event>
<event>
 7    1  0.2751796E-010  0.4778727E+02  0.7816164E-02  0.1312668E+00
        -11   -1    0    0    0    0  0.00000000000E+00  0.00000000000E+00  0.45593999997E+02  0.45594000000E+02  0.51100000000E-03 0. -1.
         11   -1    0    0    0    0 -0.00000000000E+00 -0.00000000000E+00 -0.45593999997E+02  0.45594000000E+02  0.51100000000E-03 0.  1.
    9900012    2    1    2    0    0 -0.21478352792E+02 -0.14969281009E+02 -0.34615372603E+02  0.47787273819E+02  0.20000012651E+02 0.  0.
         12    1    1    2    0    0  0.21478352792E+02  0.14969281009E+02  0.34615372603E+02  0.43400726181E+02  0.00000000000E+00 0. -1.
         11    1    3    3    0    0 -0.13541186450E+02 -0.11414444773E+01 -0.84907779310E+01  0.16023730405E+02  0.51100000000E-03 0.  1.
        -11    1    3    3    0    0 -0.90626192918E+01 -0.10262076643E+02 -0.23492841343E+02  0.27191080892E+02  0.51100000000E-03 0. -1.
         12    1    3    3    0    0  0.11254529501E+01 -0.35657598884E+01 -0.26317533295E+01  0.45724625216E+01  0.00000000000E+00 0. -1.
</event>
<event>
 7    1  0.2751796E-010  0.4778727E+02  0.7816164E-02  0.1312668E+00
        -11   -1    0    0    0    0  0.00000000000E+00  0.00000000000E+00  0.45593999997E+02  0.45594000000E+02  0.51100000000E-03 0. -1.
         11   -1    0    0    0    0 -0.00000000000E+00 -0.00000000000E+00 -0.45593999997E+02  0.45594000000E+02  0.51100000000E-03 0.  1.
    9900012    2    1    2    0    0  0.26525796925E+02  0.19739799990E+02 -0.28113085535E+02  0.47787272074E+02  0.20000004696E+02 0.  0.
         12    1    1    2    0    0 -0.26525796925E+02 -0.19739799990E+02  0.28113085535E+02  0.43400727926E+02  0.00000000000E+00 0. -1.
         11    1    3    3    0    0  0.48591139168E+01  0.37153268807E+01  0.61377624437E+00  0.61474680500E+01  0.51100000000E-03 0. -1.
        -11    1    3    3    0    0  0.56419306022E+01  0.11231670703E+02 -0.17296394427E+02  0.21380997829E+02  0.51100000000E-03 0.  1.
        -12    1    3    3    0    0  0.16024752406E+02  0.47928024063E+01 -0.11430467352E+02  0.20258806196E+02  0.00000000000E+00 0.  1.
</event>
<event>
 7    1  0.2751796E-010  0.4778727E+02  0.7816164E-02  0.1312668E+00
        -11   -1    0    0    0    0  0.00000000000E+00  0.00000000000E+00  0.45593999997E+02  0.45594000000E+02  0.51100000000E-03 0. -1.
         11   -1    0    0    0    0 -0.00000000000E+00 -0.00000000000E+00 -0.45593999997E+02  0.45594000000E+02  0.51100000000E-03 0.  1.
    9900012    2    1    2    0    0 -0.36204868655E+02 -0.13506384828E+01 -0.23895743951E+02  0.47787270541E+02  0.19999997704E+02 0.  0.
         12    1    1    2    0    0  0.36204868655E+02  0.13506384828E+01  0.23895743951E+02  0.43400729459E+02  0.00000000000E+00 0. -1.
         11    1    3    3    0    0 -0.15168903979E+02  0.29028124172E+01 -0.16469079607E+02  0.22577700308E+02  0.51100000000E-03 0. -1.
        -11    1    3    3    0    0  0.30704453908E+00 -0.40998314506E+00 -0.30415100099E+01  0.30843388157E+01  0.51100000000E-03 0.  1.
        -12    1    3    3    0    0 -0.21343009214E+02 -0.38434677549E+01 -0.43851543343E+01  0.22125231417E+02  0.00000000000E+00 0.  1.
</event>
<event>
 7    1  0.2751796E-010  0.4778726E+02  0.7816164E-02  0.1312668E+00
        -11   -1    0    0    0    0  0.00000000000E+00  0.00000000000E+00  0.45593999997E+02  0.45594000000E+02  0.51100000000E-03 0.  1.
         11   -1    0    0    0    0 -0.00000000000E+00 -0.00000000000E+00 -0.45593999997E+02  0.45594000000E+02  0.51100000000E-03 0. -1.
    9900012    2    1    2    0    0 -0.13940318034E+02 -0.88096165458E+01  0.40145759418E+02  0.47787264870E+02  0.19999971849E+02 0.  0.
         12    1    1    2    0    0  0.13940318034E+02  0.88096165458E+01 -0.40145759418E+02  0.43400735130E+02  0.00000000000E+00 0. -1.
         11    1    3    3    0    0 -0.89497377236E+01 -0.10550637255E+02  0.32653726043E+02  0.35463778374E+02  0.51100000000E-03 0. -1.
        -11    1    3    3    0    0 -0.24889293291E+01  0.44384685556E+01  0.15228589302E+01  0.53116731740E+01  0.51100000000E-03 0.  1.
        -12    1    3    3    0    0 -0.25016509817E+01 -0.26974478467E+01  0.59691744446E+01  0.70118133225E+01  0.00000000000E+00 0.  1.
</event>
<event>
 7    1  0.2751796E-010  0.4778727E+02  0.7816164E-02  0.1312668E+00
        -11   -1    0    0    0    0  0.00000000000E+00  0.00000000000E+00  0.45593999997E+02  0.45594000000E+02  0.51100000000E-03 0. -1.
         11   -1    0    0    0    0 -0.00000000000E+00 -0.00000000000E+00 -0.45593999997E+02  0.45594000000E+02  0.51100000000E-03 0.  1.
    9900012    2    1    2    0    0 -0.80953793713E+01  0.42620515934E+02 -0.12569785133E+01  0.47787267971E+02  0.19999985986E+02 0.  0.
         12    1    1    2    0    0  0.80953793713E+01 -0.42620515934E+02  0.12569785133E+01  0.43400732029E+02  0.00000000000E+00 0. -1.
         11    1    3    3    0    0  0.11418496595E+01 -0.60818979791E+00  0.18394650813E+01  0.22488547133E+01  0.51100000000E-03 0. -1.
        -11    1    3    3    0    0 -0.68302219174E+01  0.35387020847E+02 -0.65636153305E+01  0.36632966332E+02  0.51100000000E-03 0.  1.
        -12    1    3    3    0    0 -0.24070071133E+01  0.78416848857E+01  0.34671717359E+01  0.89054469251E+01  0.00000000000E+00 0.  1.
</event>
<event>
 7    1  0.2751796E-010  0.4778727E+02  0.7816164E-02  0.1312668E+00
        -11   -1    0    0    0    0  0.00000000000E+00  0.00000000000E+00  0.45593999997E+02  0.45594000000E+02  0.51100000000E-03 0.  1.
         11   -1    0    0    0    0 -0.00000000000E+00 -0.00000000000E+00 -0.45593999997E+02  0.45594000000E+02  0.51100000000E-03 0. -1.
    9900012    2    1    2    0    0 -0.18072415635E+02  0.23544858991E+02  0.31664661765E+02  0.47787269632E+02  0.19999993560E+02 0.  0.
         12    1    1    2    0    0  0.18072415635E+02 -0.23544858991E+02 -0.31664661765E+02  0.43400730368E+02  0.00000000000E+00 0. -1.
         11    1    3    3    0    0 -0.12528443512E+02  0.15841560645E+02  0.20215928103E+02  0.28576225955E+02  0.51100000000E-03 0. -1.
        -11    1    3    3    0    0 -0.84131879081E+01  0.83802744524E+01  0.11077950679E+02  0.16239819032E+02  0.51100000000E-03 0.  1.
         12    1    3    3    0    0  0.28692157853E+01 -0.67697610587E+00  0.37078298228E+00  0.29712246449E+01  0.00000000000E+00 0. -1.
</event>
<event>
 7    1  0.2751796E-010  0.4778727E+02  0.7816164E-02  0.1312668E+00
        -11   -1    0    0    0    0  0.00000000000E+00  0.00000000000E+00  0.45593999997E+02  0.45594000000E+02  0.51100000000E-03 0.  1.
         11   -1    0    0    0    0 -0.00000000000E+00 -0.00000000000E+00 -0.45593999997E+02  0.45594000000E+02  0.51100000000E-03 0. -1.
    9900012    2    1    2    0    0  0.91463920342E+01  0.17015129431E+02  0.38864535142E+02  0.47787271796E+02  0.20000003427E+02 0.  0.
         12    1    1    2    0    0 -0.91463920342E+01 -0.17015129431E+02 -0.38864535142E+02  0.43400728204E+02  0.00000000000E+00 0. -1.
         11    1    3    3    0    0 -0.68948072673E+00  0.51769893753E+01  0.42669794149E+01  0.67441616419E+01  0.51100000000E-03 0. -1.
        -11    1    3    3    0    0 -0.12157017952E+01  0.81171967811E+01  0.23705895524E+02  0.25086576037E+02  0.51100000000E-03 0.  1.
        -12    1    3    3    0    0  0.11051574556E+02  0.37209432747E+01  0.10891660204E+02  0.15956534117E+02  0.00000000000E+00 0.  1.
</event>
<event>
 7    1  0.2751796E-010  0.4778727E+02  0.7816164E-02  0.1312668E+00
        -11   -1    0    0    0    0  0.00000000000E+00  0.00000000000E+00  0.45593999997E+02  0.45594000000E+02  0.51100000000E-03 0. -1.
         11   -1    0    0    0    0 -0.00000000000E+00 -0.00000000000E+00 -0.45593999997E+02  0.45594000000E+02  0.51100000000E-03 0.  1.
    9900012    2    1    2    0    0 -0.24874362248E+02  0.35098307574E+02  0.57443988733E+01  0.47787271778E+02  0.20000003343E+02 0.  0.
         12    1    1    2    0    0  0.24874362248E+02 -0.35098307574E+02 -0.57443988733E+01  0.43400728222E+02  0.00000000000E+00 0. -1.
         11    1    3    3    0    0 -0.94494555200E+01  0.16722722004E+02 -0.45778751470E+01  0.19745849740E+02  0.51100000000E-03 0. -1.
        -11    1    3    3    0    0 -0.74703243832E+01  0.38821803224E+01  0.74886664767E+01  0.11267528403E+02  0.51100000000E-03 0.  1.
         12    1    3    3    0    0 -0.79545823451E+01  0.14493405248E+02  0.28336075436E+01  0.16773893635E+02  0.00000000000E+00 0. -1.
</event>
<event>
 7    1  0.2751796E-010  0.4778727E+02  0.7816164E-02  0.1312668E+00
        -11   -1    0    0    0    0  0.00000000000E+00  0.00000000000E+00  0.45593999997E+02  0.45594000000E+02  0.51100000000E-03 0. -1.
         11   -1    0    0    0    0 -0.00000000000E+00 -0.00000000000E+00 -0.45593999997E+02  0.45594000000E+02  0.51100000000E-03 0.  1.
    9900012    2    1    2    0    0 -0.17543078059E+01  0.11670881716E+02 -0.41765253691E+02  0.47787268535E+02  0.19999988557E+02 0.  0.
         12    1    1    2    0    0  0.17543078059E+01 -0.11670881716E+02  0.41765253691E+02  0.43400731465E+02  0.00000000000E+00 0. -1.
         11    1    3    3    0    0  0.22772806676E+01  0.60546707776E+01 -0.60712954137E+01  0.88716218205E+01  0.51100000000E-03 0. -1.
        -11    1    3    3    0    0 -0.69459326136E+01 -0.20849183766E+01 -0.15792340831E+02  0.17377885190E+02  0.51100000000E-03 0.  1.
        -12    1    3    3    0    0  0.29143441402E+01  0.77011293146E+01 -0.19901617446E+02  0.21537761524E+02  0.00000000000E+00 0.  1.
</event>
<event>
 7    1  0.2751796E-010  0.4778727E+02  0.7816164E-02  0.1312668E+00
        -11   -1    0    0    0    0  0.00000000000E+00  0.00000000000E+00  0.45593999997E+02  0.45594000000E+02  0.51100000000E-03 0.  1.
         11   -1    0    0    0    0 -0.00000000000E+00 -0.00000000000E+00 -0.45593999997E+02  0.45594000000E+02  0.51100000000E-03 0. -1.
    9900012    2    1    2    0    0  0.30485575695E+02  0.25709821431E+02  0.17124787520E+02  0.47787267390E+02  0.19999983338E+02 0.  0.
         12    1    1    2    0    0 -0.30485575695E+02 -0.25709821431E+02 -0.17124787520E+02  0.43400732610E+02  0.00000000000E+00 0. -1.
         11    1    3    3    0    0 -0.13242098031E+01  0.58172760297E-01  0.18213129464E+00  0.13379416065E+01  0.51100000000E-03 0. -1.
        -11    1    3    3    0    0  0.18074189467E+02  0.22698386316E+02  0.93811808637E+01  0.30494255539E+02  0.51100000000E-03 0.  1.
        -12    1    3    3    0    0  0.13735596031E+02  0.29532623552E+01  0.75614753613E+01  0.15955070244E+02  0.00000000000E+00 0.  1.
</event>
<event>
 7    1  0.2751796E-010  0.4778727E+02  0.7816164E-02  0.1312668E+00
        -11   -1    0    0    0    0  0.00000000000E+00  0.00000000000E+00  0.45593999997E+02  0.45594000000E+02  0.51100000000E-03 0. -1.
         11   -1    0    0    0    0 -0.00000000000E+00 -0.00000000000E+00 -0.45593999997E+02  0.45594000000E+02  0.51100000000E-03 0.  1.
    9900012    2    1    2    0    0 -0.42087192258E+02 -0.78255102278E+01  0.71451502060E+01  0.47787268048E+02  0.19999986337E+02 0.  0.
         12    1    1    2    0    0  0.42087192258E+02  0.78255102278E+01 -0.71451502060E+01  0.43400731952E+02  0.00000000000E+00 0. -1.
         11    1    3    3    0    0 -0.19200543246E+02 -0.67926863195E+01  0.32212039474E+00  0.20369222130E+02  0.51100000000E-03 0. -1.
        -11    1    3    3    0    0 -0.23551406178E+02 -0.47410404219E+00  0.88885844132E+01  0.25177379545E+02  0.51100000000E-03 0.  1.
        -12    1    3    3    0    0  0.66475716641E+00 -0.55871986607E+00 -0.20655546019E+01  0.22406663724E+01  0.00000000000E+00 0.  1.
</event>
<event>
 7    1  0.2751796E-010  0.4778727E+02  0.7816164E-02  0.1312668E+00
        -11   -1    0    0    0    0  0.00000000000E+00  0.00000000000E+00  0.45593999997E+02  0.45594000000E+02  0.51100000000E-03 0.  1.
         11   -1    0    0    0    0 -0.00000000000E+00 -0.00000000000E+00 -0.45593999997E+02  0.45594000000E+02  0.51100000000E-03 0. -1.
    9900012    2    1    2    0    0 -0.16118429277E+01  0.12620466915E+02  0.41493962455E+02  0.47787272553E+02  0.20000006876E+02 0.  0.
         12    1    1    2    0    0  0.16118429277E+01 -0.12620466915E+02 -0.41493962455E+02  0.43400727447E+02  0.00000000000E+00 0. -1.
         11    1    3    3    0    0  0.11722776288E+01 -0.11996952034E+01  0.16021009219E+01  0.23195325058E+01  0.51100000000E-03 0. -1.
        -11    1    3    3    0    0 -0.57981169871E+01 -0.16296136735E+01  0.96698726635E+01  0.11392113013E+02  0.51100000000E-03 0.  1.
        -12    1    3    3    0    0  0.30139964305E+01  0.15449775791E+02  0.30221988870E+02  0.34075627033E+02  0.00000000000E+00 0.  1.
</event>
<event>
 7    1  0.2751796E-010  0.4778727E+02  0.7816164E-02  0.1312668E+00
        -11   -1    0    0    0    0  0.00000000000E+00  0.00000000000E+00  0.45593999997E+02  0.45594000000E+02  0.51100000000E-03 0.  1.
         11   -1    0    0    0    0 -0.00000000000E+00 -0.00000000000E+00 -0.45593999997E+02  0.45594000000E+02  0.51100000000E-03 0. -1.
    9900012    2    1    2    0    0  0.94058759026E+01 -0.42223031439E+02 -0.35168965068E+01  0.47787269057E+02  0.19999990937E+02 0.  0.
         12    1    1    2    0    0 -0.94058759026E+01  0.42223031439E+02  0.35168965068E+01  0.43400730943E+02  0.00000000000E+00 0. -1.
         11    1    3    3    0    0 -0.22404397079E+01 -0.51919502595E+01  0.38723877992E+01  0.68535614910E+01  0.51100000000E-03 0. -1.
        -11    1    3    3    0    0 -0.44701791038E+00 -0.12481972305E+02  0.34783676765E+00  0.12494816858E+02  0.51100000000E-03 0.  1.
         12    1    3    3    0    0  0.12093333521E+02 -0.24549108874E+02 -0.77371210737E+01  0.28438890708E+02  0.00000000000E+00 0. -1.
</event>
<event>
 7    1  0.2751796E-010  0.4778726E+02  0.7816164E-02  0.1312668E+00
        -11   -1    0    0    0    0  0.00000000000E+00  0.00000000000E+00  0.45593999997E+02  0.45594000000E+02  0.51100000000E-03 0.  1.
         11   -1    0    0    0    0 -0.00000000000E+00 -0.00000000000E+00 -0.45593999997E+02  0.45594000000E+02  0.51100000000E-03 0. -1.
    9900012    2    1    2    0    0  0.15477320438E+02  0.38892049950E+02  0.11466684411E+02  0.47787264423E+02  0.19999969809E+02 0.  0.
         12    1    1    2    0    0 -0.15477320438E+02 -0.38892049950E+02 -0.11466684411E+02  0.43400735577E+02  0.00000000000E+00 0. -1.
         11    1    3    3    0    0  0.45477059152E+01  0.14694324381E+02 -0.36032328485E+01  0.15798357045E+02  0.51100000000E-03 0. -1.
        -11    1    3    3    0    0 -0.13667669531E+01  0.52111741899E+01  0.14292173457E+01  0.55737824521E+01  0.51100000000E-03 0.  1.
         12    1    3    3    0    0  0.12296381476E+02  0.18986551379E+02  0.13640699914E+02  0.26415124925E+02  0.00000000000E+00 0. -1.
</event>
<event>
 7    1  0.2751796E-010  0.4778727E+02  0.7816164E-02  0.1312668E+00
        -11   -1    0    0    0    0  0.00000000000E+00  0.00000000000E+00  0.45593999997E+02  0.45594000000E+02  0.51100000000E-03 0.  1.
         11   -1    0    0    0    0 -0.00000000000E+00 -0.00000000000E+00 -0.45593999997E+02  0.45594000000E+02  0.51100000000E-03 0. -1.
    9900012    2    1    2    0    0  0.10746391407E+01  0.38275423835E+02  0.20431842908E+02  0.47787272775E+02  0.20000007891E+02 0.  0.
         12    1    1    2    0    0 -0.10746391407E+01 -0.38275423835E+02 -0.20431842908E+02  0.43400727225E+02  0.00000000000E+00 0. -1.
         11    1    3    3    0    0 -0.81533098293E+01  0.18167015696E+02  0.12552048901E+02  0.23538709658E+02  0.51100000000E-03 0. -1.
        -11    1    3    3    0    0  0.51729710340E+01  0.17129095024E+02  0.64065598803E+01  0.19005513291E+02  0.51100000000E-03 0.  1.
         12    1    3    3    0    0  0.40549779360E+01  0.29793131146E+01  0.14732341269E+01  0.52430498270E+01  0.00000000000E+00 0. -1.
</event>
<event>
 7    1  0.2751796E-010  0.4778727E+02  0.7816164E-02  0.1312668E+00
        -11   -1    0    0    0    0  0.00000000000E+00  0.00000000000E+00  0.45593999997E+02  0.45594000000E+02  0.51100000000E-03 0.  1.
         11   -1    0    0    0    0 -0.00000000000E+00 -0.00000000000E+00 -0.45593999997E+02  0.45594000000E+02  0.51100000000E-03 0. -1.
    9900012    2    1    2    0    0 -0.25078218596E+02  0.35124835213E+02  0.45773363784E+01  0.47787272990E+02  0.20000008869E+02 0.  0.
         12    1    1    2    0    0  0.25078218596E+02 -0.35124835213E+02 -0.45773363784E+01  0.43400727010E+02  0.00000000000E+00 0. -1.
         11    1    3    3    0    0 -0.78696872773E+01  0.22191427982E+01  0.36747877356E+01  0.89644095045E+01  0.51100000000E-03 0. -1.
        -11    1    3    3    0    0 -0.76011281240E+01  0.25151272255E+02 -0.11838583707E+01  0.26301428967E+02  0.51100000000E-03 0.  1.
        -12    1    3    3    0    0 -0.96074031949E+01  0.77544201601E+01  0.20864070135E+01  0.12521434518E+02  0.00000000000E+00 0.  1.
</event>
<event>
 7    1  0.2751796E-010  0.4778727E+02  0.7816164E-02  0.1312668E+00
        -11   -1    0    0    0    0  0.00000000000E+00  0.00000000000E+00  0.45593999997E+02  0.45594000000E+02  0.51100000000E-03 0. -1.
         11   -1    0    0    0    0 -0.00000000000E+00 -0.00000000000E+00 -0.45593999997E+02  0.45594000000E+02  0.51100000000E-03 0.  1.
    9900012    2    1    2    0    0  0.11172507061E+02  0.35555838821E+02 -0.22239170168E+02  0.47787270996E+02  0.19999999781E+02 0.  0.
         12    1    1    2    0    0 -0.11172507061E+02 -0.35555838821E+02  0.22239170168E+02  0.43400729004E+02  0.00000000000E+00 0. -1.
         11    1    3    3    0    0  0.30292424615E+01 -0.13444445527E+00  0.86858747113E+00  0.31541765420E+01  0.51100000000E-03 0. -1.
        -11    1    3    3    0    0  0.60537703202E+01  0.21940639934E+02 -0.80667457116E+01  0.24147716299E+02  0.51100000000E-03 0.  1.
         12    1    3    3    0    0  0.20894942793E+01  0.13749643342E+02 -0.15041011927E+02  0.20485378155E+02  0.00000000000E+00 0. -1.
</event>
<event>
 7    1  0.2751796E-010  0.4778727E+02  0.7816164E-02  0.1312668E+00
        -11   -1    0    0    0    0  0.00000000000E+00  0.00000000000E+00  0.45593999997E+02  0.45594000000E+02  0.51100000000E-03 0.  1.
         11   -1    0    0    0    0 -0.00000000000E+00 -0.00000000000E+00 -0.45593999997E+02  0.45594000000E+02  0.51100000000E-03 0. -1.
    9900012    2    1    2    0    0 -0.59563172040E+00 -0.32043734676E+02  0.29265464825E+02  0.47787272580E+02  0.20000007002E+02 0.  0.
         12    1    1    2    0    0  0.59563172040E+00  0.32043734676E+02 -0.29265464825E+02  0.43400727420E+02  0.00000000000E+00 0. -1.
         11    1    3    3    0    0 -0.20315107235E+01 -0.20951181844E+02  0.89545495116E+01  0.22874942922E+02  0.51100000000E-03 0. -1.
        -11    1    3    3    0    0  0.33203016691E+01 -0.11017548028E+02  0.19891952524E+02  0.22980438273E+02  0.51100000000E-03 0.  1.
         12    1    3    3    0    0 -0.18844226660E+01 -0.75004803514E-01  0.41896278998E+00  0.19318913852E+01  0.00000000000E+00 0. -1.
</event>
<event>
 7    1  0.2751796E-010  0.4778728E+02  0.7816164E-02  0.1312668E+00
        -11   -1    0    0    0    0  0.00000000000E+00  0.00000000000E+00  0.45593999997E+02  0.45594000000E+02  0.51100000000E-03 0.  1.
         11   -1    0    0    0    0 -0.00000000000E+00 -0.00000000000E+00 -0.45593999997E+02  0.45594000000E+02  0.51100000000E-03 0. -1.
    9900012    2    1    2    0    0  0.10358415398E+02  0.21487945378E+02  0.36257329131E+02  0.47787280169E+02  0.20000041604E+02 0.  0.
         12    1    1    2    0    0 -0.10358415398E+02 -0.21487945378E+02 -0.36257329131E+02  0.43400719831E+02  0.00000000000E+00 0. -1.
         11    1    3    3    0    0  0.27699914145E+00  0.58137186515E+00 -0.14570206068E+01  0.15929943753E+01  0.51100000000E-03 0. -1.
        -11    1    3    3    0    0  0.80788130826E+01  0.62837240495E+01  0.23811771489E+02  0.25918195741E+02  0.51100000000E-03 0.  1.
        -12    1    3    3    0    0  0.20026031740E+01  0.14622849463E+02  0.13902578248E+02  0.20276090053E+02  0.00000000000E+00 0.  1.
</event>
<event>
 7    1  0.2751796E-010  0.4778727E+02  0.7816164E-02  0.1312668E+00
        -11   -1    0    0    0    0  0.00000000000E+00  0.00000000000E+00  0.45593999997E+02  0.45594000000E+02  0.51100000000E-03 0. -1.
         11   -1    0    0    0    0 -0.00000000000E+00 -0.00000000000E+00 -0.45593999997E+02  0.45594000000E+02  0.51100000000E-03 0.  1.
    9900012    2    1    2    0    0  0.42098458369E+02  0.95010441132E+01  0.45905744835E+01  0.47787269472E+02  0.19999992832E+02 0.  0.
         12    1    1    2    0    0 -0.42098458369E+02 -0.95010441132E+01 -0.45905744835E+01  0.43400730528E+02  0.00000000000E+00 0. -1.
         11    1    3    3    0    0  0.21916856755E+02  0.13206806775E+02 -0.32283298040E+01  0.25791286683E+02  0.51100000000E-03 0. -1.
        -11    1    3    3    0    0  0.15850817453E+02 -0.25554951005E+01  0.56786579222E+01  0.17030153410E+02  0.51100000000E-03 0.  1.
         12    1    3    3    0    0  0.43307841613E+01 -0.11502675611E+01  0.21402463653E+01  0.49658293787E+01  0.00000000000E+00 0. -1.
</event>
<event>
 7    1  0.2751796E-010  0.4778727E+02  0.7816164E-02  0.1312668E+00
        -11   -1    0    0    0    0  0.00000000000E+00  0.00000000000E+00  0.45593999997E+02  0.45594000000E+02  0.51100000000E-03 0. -1.
         11   -1    0    0    0    0 -0.00000000000E+00 -0.00000000000E+00 -0.45593999997E+02  0.45594000000E+02  0.51100000000E-03 0.  1.
    9900012    2    1    2    0    0  0.26378130821E+02 -0.32343883950E+02 -0.11903395675E+02  0.47787269094E+02  0.19999991106E+02 0.  0.
         12    1    1    2    0    0 -0.26378130821E+02  0.32343883950E+02  0.11903395675E+02  0.43400730906E+02  0.00000000000E+00 0. -1.
         11    1    3    3    0    0  0.10382225600E+02 -0.27784395514E+01 -0.68138986466E+01  0.12725547131E+02  0.51100000000E-03 0. -1.
        -11    1    3    3    0    0  0.11217495628E+02 -0.13148201467E+02 -0.48916706314E+01  0.17962067024E+02  0.51100000000E-03 0.  1.
         12    1    3    3    0    0  0.47784095937E+01 -0.16417242932E+02 -0.19782639699E+00  0.17099654939E+02  0.00000000000E+00 0. -1.
</event>
<event>
 7    1  0.2751796E-010  0.4778727E+02  0.7816164E-02  0.1312668E+00
        -11   -1    0    0    0    0  0.00000000000E+00  0.00000000000E+00  0.45593999997E+02  0.45594000000E+02  0.51100000000E-03 0. -1.
         11   -1    0    0    0    0 -0.00000000000E+00 -0.00000000000E+00 -0.45593999997E+02  0.45594000000E+02  0.51100000000E-03 0.  1.
    9900012    2    1    2    0    0 -0.12314281247E+02  0.94515133119E+01 -0.40529626127E+02  0.47787271659E+02  0.20000002802E+02 0.  0.
         12    1    1    2    0    0  0.12314281247E+02 -0.94515133119E+01  0.40529626127E+02  0.43400728341E+02  0.00000000000E+00 0. -1.
         11    1    3    3    0    0  0.21561386097E+01  0.49946193657E+01 -0.13921164713E+02  0.14946370246E+02  0.51100000000E-03 0. -1.
        -11    1    3    3    0    0 -0.90948307842E+01 -0.34123122898E+01 -0.13799200601E+02  0.16875359541E+02  0.51100000000E-03 0.  1.
        -12    1    3    3    0    0 -0.53755890727E+01  0.78692062361E+01 -0.12809260814E+02  0.15965541872E+02  0.00000000000E+00 0.  1.
</event>
<event>
 7    1  0.2751796E-010  0.4778727E+02  0.7816164E-02  0.1312668E+00
        -11   -1    0    0    0    0  0.00000000000E+00  0.00000000000E+00  0.45593999997E+02  0.45594000000E+02  0.51100000000E-03 0.  1.
         11   -1    0    0    0    0 -0.00000000000E+00 -0.00000000000E+00 -0.45593999997E+02  0.45594000000E+02  0.51100000000E-03 0. -1.
    9900012    2    1    2    0    0  0.40444542098E+01  0.21082288928E+02 -0.37720062066E+02  0.47787267304E+02  0.19999982945E+02 0.  0.
         12    1    1    2    0    0 -0.40444542098E+01 -0.21082288928E+02  0.37720062066E+02  0.43400732696E+02  0.00000000000E+00 0. -1.
         11    1    3    3    0    0 -0.53358638888E+01  0.10896454606E+02 -0.27080256012E+02  0.29673968935E+02  0.51100000000E-03 0. -1.
        -11    1    3    3    0    0  0.51853990271E+01  0.85293502907E+01 -0.85475700859E+01  0.13141504255E+02  0.51100000000E-03 0.  1.
         12    1    3    3    0    0  0.41949190715E+01  0.16564840313E+01 -0.20922359680E+01  0.49717941136E+01  0.00000000000E+00 0. -1.
</event>
<event>
 7    1  0.2751796E-010  0.4778727E+02  0.7816164E-02  0.1312668E+00
        -11   -1    0    0    0    0  0.00000000000E+00  0.00000000000E+00  0.45593999997E+02  0.45594000000E+02  0.51100000000E-03 0.  1.
         11   -1    0    0    0    0 -0.00000000000E+00 -0.00000000000E+00 -0.45593999997E+02  0.45594000000E+02  0.51100000000E-03 0. -1.
    9900012    2    1    2    0    0 -0.19324225268E+02  0.12470298962E+02  0.36806099887E+02  0.47787273885E+02  0.20000012949E+02 0.  0.
         12    1    1    2    0    0  0.19324225268E+02 -0.12470298962E+02 -0.36806099887E+02  0.43400726115E+02  0.00000000000E+00 0. -1.
         11    1    3    3    0    0 -0.49259771067E+01  0.51849869850E+01 -0.25028719444E+00  0.71562549166E+01  0.51100000000E-03 0. -1.
        -11    1    3    3    0    0 -0.11355768619E+02  0.36737538769E+01  0.26016832510E+02  0.28623862817E+02  0.51100000000E-03 0.  1.
         12    1    3    3    0    0 -0.30424795429E+01  0.36115581004E+01  0.11039554572E+02  0.12007156151E+02  0.00000000000E+00 0. -1.
</event>
<event>
 7    1 -0.2751796E-010  0.4778727E+02  0.7816164E-02  0.1312668E+00
        -11   -1    0    0    0    0  0.00000000000E+00  0.00000000000E+00  0.45593999997E+02  0.45594000000E+02  0.51100000000E-03 0.  1.
         11   -1    0    0    0    0 -0.00000000000E+00 -0.00000000000E+00 -0.45593999997E+02  0.45594000000E+02  0.51100000000E-03 0. -1.
    9900012    2    1    2    0    0  0.31300092200E+02 -0.20368371482E+02  0.22114626645E+02  0.47787273736E+02  0.20000012273E+02 0.  0.
         12    1    1    2    0    0 -0.31300092200E+02  0.20368371482E+02 -0.22114626645E+02  0.43400726264E+02  0.00000000000E+00 0. -1.
         11    1    3    3    0    0  0.51627998211E+01  0.81101247880E-01  0.31381677746E-01  0.51635321705E+01  0.51100000000E-03 0.  1.
        -11    1    3    3    0    0  0.16892604143E+02 -0.17290512351E+02  0.79576645395E+01  0.25448896190E+02  0.51100000000E-03 0. -1.
        -12    1    3    3    0    0  0.92446882356E+01 -0.31589603788E+01  0.14125580428E+02  0.17174845376E+02  0.00000000000E+00 0.  1.
</event>
<event>
 7    1  0.2751796E-010  0.4778727E+02  0.7816164E-02  0.1312668E+00
        -11   -1    0    0    0    0  0.00000000000E+00  0.00000000000E+00  0.45593999997E+02  0.45594000000E+02  0.51100000000E-03 0.  1.
         11   -1    0    0    0    0 -0.00000000000E+00 -0.00000000000E+00 -0.45593999997E+02  0.45594000000E+02  0.51100000000E-03 0. -1.
    9900012    2    1    2    0    0  0.20787474600E+02  0.18720486779E+02  0.33182040338E+02  0.47787268134E+02  0.19999986728E+02 0.  0.
         12    1    1    2    0    0 -0.20787474600E+02 -0.18720486779E+02 -0.33182040338E+02  0.43400731866E+02  0.00000000000E+00 0. -1.
         11    1    3    3    0    0  0.84592004038E+01  0.12583978111E+02  0.55694450095E+01  0.16153429808E+02  0.51100000000E-03 0.  1.
        -11    1    3    3    0    0  0.93313585436E+01  0.40022416830E+01  0.25366775038E+02  0.27323350213E+02  0.51100000000E-03 0. -1.
        -12    1    3    3    0    0  0.29969156528E+01  0.21342669852E+01  0.22458202910E+01  0.43104881132E+01  0.00000000000E+00 0.  1.
</event>
<event>
 7    1  0.2751796E-010  0.4778727E+02  0.7816164E-02  0.1312668E+00
        -11   -1    0    0    0    0  0.00000000000E+00  0.00000000000E+00  0.45593999997E+02  0.45594000000E+02  0.51100000000E-03 0. -1.
         11   -1    0    0    0    0 -0.00000000000E+00 -0.00000000000E+00 -0.45593999997E+02  0.45594000000E+02  0.51100000000E-03 0.  1.
    9900012    2    1    2    0    0  0.25801749482E+02  0.28210725278E+02  0.20543803091E+02  0.47787272558E+02  0.20000006903E+02 0.  0.
         12    1    1    2    0    0 -0.25801749482E+02 -0.28210725278E+02 -0.20543803091E+02  0.43400727442E+02  0.00000000000E+00 0. -1.
         11    1    3    3    0    0  0.13971692467E+02  0.52860083010E+01  0.12876912074E+02  0.19722194071E+02  0.51100000000E-03 0. -1.
        -11    1    3    3    0    0  0.62677414080E+01  0.92108868586E+01 -0.51864097355E+00  0.11153206167E+02  0.51100000000E-03 0.  1.
         12    1    3    3    0    0  0.55623156068E+01  0.13713830118E+02  0.81855319902E+01  0.16911872320E+02  0.00000000000E+00 0. -1.
</event>
<event>
 7    1  0.2751796E-010  0.4778727E+02  0.7816164E-02  0.1312668E+00
        -11   -1    0    0    0    0  0.00000000000E+00  0.00000000000E+00  0.45593999997E+02  0.45594000000E+02  0.51100000000E-03 0.  1.
         11   -1    0    0    0    0 -0.00000000000E+00 -0.00000000000E+00 -0.45593999997E+02  0.45594000000E+02  0.51100000000E-03 0. -1.
    9900012    2    1    2    0    0  0.12954088177E+02  0.76458429436E+01  0.40710632848E+02  0.47787274871E+02  0.20000017449E+02 0.  0.
         12    1    1    2    0    0 -0.12954088177E+02 -0.76458429436E+01 -0.40710632848E+02  0.43400725129E+02  0.00000000000E+00 0. -1.
         11    1    3    3    0    0  0.56406075407E+00 -0.17868202686E+01  0.95387296668E+00  0.21025615578E+01  0.51100000000E-03 0. -1.
        -11    1    3    3    0    0 -0.32179046804E+01  0.29229164113E+01  0.15617120192E+02  0.16210885054E+02  0.51100000000E-03 0.  1.
        -12    1    3    3    0    0  0.15607932103E+02  0.65097468010E+01  0.24139639689E+02  0.29473828259E+02  0.00000000000E+00 0.  1.
</event>
<event>
 7    1  0.2751796E-010  0.4778727E+02  0.7816164E-02  0.1312668E+00
        -11   -1    0    0    0    0  0.00000000000E+00  0.00000000000E+00  0.45593999997E+02  0.45594000000E+02  0.51100000000E-03 0.  1.
         11   -1    0    0    0    0 -0.00000000000E+00 -0.00000000000E+00 -0.45593999997E+02  0.45594000000E+02  0.51100000000E-03 0. -1.
    9900012    2    1    2    0    0  0.11612848901E+02  0.31160901073E+01  0.41701977836E+02  0.47787271520E+02  0.20000002166E+02 0.  0.
         12    1    1    2    0    0 -0.11612848901E+02 -0.31160901073E+01 -0.41701977836E+02  0.43400728480E+02  0.00000000000E+00 0. -1.
         11    1    3    3    0    0  0.47525012354E+01  0.60175771805E+01  0.53314329836E+01  0.93392548437E+01  0.51100000000E-03 0. -1.
        -11    1    3    3    0    0  0.91462118731E+01 -0.12572010333E+01  0.22991205673E+02  0.24775578391E+02  0.51100000000E-03 0.  1.
         12    1    3    3    0    0 -0.22858642073E+01 -0.16442860398E+01  0.13379339180E+02  0.13672438285E+02  0.00000000000E+00 0. -1.
</event>
<event>
 7    1  0.2751796E-010  0.4778727E+02  0.7816164E-02  0.1312668E+00
        -11   -1    0    0    0    0  0.00000000000E+00  0.00000000000E+00  0.45593999997E+02  0.45594000000E+02  0.51100000000E-03 0. -1.
         11   -1    0    0    0    0 -0.00000000000E+00 -0.00000000000E+00 -0.45593999997E+02  0.45594000000E+02  0.51100000000E-03 0.  1.
    9900012    2    1    2    0    0 -0.43256685444E+02 -0.35201299732E+01 -0.30230238520E+00  0.47787268009E+02  0.19999986161E+02 0.  0.
         12    1    1    2    0    0  0.43256685444E+02  0.35201299732E+01  0.30230238520E+00  0.43400731991E+02  0.00000000000E+00 0. -1.
         11    1    3    3    0    0 -0.29060898060E+00  0.49981763776E+00 -0.33499716440E+01  0.33994972462E+01  0.51100000000E-03 0. -1.
        -11    1    3    3    0    0 -0.41106237937E+02 -0.26228896434E+01  0.48096158377E+01  0.41469684737E+02  0.51100000000E-03 0.  1.
        -12    1    3    3    0    0 -0.18598385260E+01 -0.13970579675E+01 -0.17619465789E+01  0.29180860259E+01  0.00000000000E+00 0.  1.
</event>
<event>
 7    1  0.2751796E-010  0.4778727E+02  0.7816164E-02  0.1312668E+00
        -11   -1    0    0    0    0  0.00000000000E+00  0.00000000000E+00  0.45593999997E+02  0.45594000000E+02  0.51100000000E-03 0.  1.
         11   -1    0    0    0    0 -0.00000000000E+00 -0.00000000000E+00 -0.45593999997E+02  0.45594000000E+02  0.51100000000E-03 0. -1.
    9900012    2    1    2    0    0 -0.11662134614E+01  0.24414558164E+02  0.35863527744E+02  0.47787270439E+02  0.19999997242E+02 0.  0.
         12    1    1    2    0    0  0.11662134614E+01 -0.24414558164E+02 -0.35863527744E+02  0.43400729561E+02  0.00000000000E+00 0. -1.
         11    1    3    3    0    0  0.24035380577E+01  0.16547019768E+01  0.46895755276E+01  0.55233280472E+01  0.51100000000E-03 0. -1.
        -11    1    3    3    0    0 -0.50211321157E+01  0.14750060918E+01  0.13771070804E+02  0.14731931375E+02  0.51100000000E-03 0.  1.
        -12    1    3    3    0    0  0.14513805965E+01  0.21284850095E+02  0.17402881412E+02  0.27532011017E+02  0.00000000000E+00 0.  1.
</event>
<event>
 7    1  0.2751796E-010  0.4778727E+02  0.7816164E-02  0.1312668E+00
        -11   -1    0    0    0    0  0.00000000000E+00  0.00000000000E+00  0.45593999997E+02  0.45594000000E+02  0.51100000000E-03 0.  1.
         11   -1    0    0    0    0 -0.00000000000E+00 -0.00000000000E+00 -0.45593999997E+02  0.45594000000E+02  0.51100000000E-03 0. -1.
    9900012    2    1    2    0    0  0.42122096031E+02  0.11436164605E+01 -0.10394431645E+02  0.47787273717E+02  0.20000012186E+02 0.  0.
         12    1    1    2    0    0 -0.42122096031E+02 -0.11436164605E+01  0.10394431645E+02  0.43400726283E+02  0.00000000000E+00 0. -1.
         11    1    3    3    0    0  0.20375493068E+02  0.24476727732E+01 -0.10693381693E+02  0.23140877945E+02  0.51100000000E-03 0. -1.
        -11    1    3    3    0    0  0.93790088123E-01  0.16734749854E+01  0.21332920714E+01  0.27129781478E+01  0.51100000000E-03 0.  1.
        -12    1    3    3    0    0  0.21652812875E+02 -0.29775312981E+01 -0.18343420233E+01  0.21933417625E+02  0.00000000000E+00 0.  1.
</event>
<event>
 7    1  0.2751796E-010  0.4778726E+02  0.7816164E-02  0.1312668E+00
        -11   -1    0    0    0    0  0.00000000000E+00  0.00000000000E+00  0.45593999997E+02  0.45594000000E+02  0.51100000000E-03 0.  1.
         11   -1    0    0    0    0 -0.00000000000E+00 -0.00000000000E+00 -0.45593999997E+02  0.45594000000E+02  0.51100000000E-03 0. -1.
    9900012    2    1    2    0    0 -0.30738085041E+02  0.15866240748E+02  0.26211764353E+02  0.47787262011E+02  0.19999958815E+02 0.  0.
         12    1    1    2    0    0  0.30738085041E+02 -0.15866240748E+02 -0.26211764353E+02  0.43400737989E+02  0.00000000000E+00 0. -1.
         11    1    3    3    0    0 -0.14569410112E+02  0.16992026639E+02  0.17192081983E+02  0.28223471854E+02  0.51100000000E-03 0. -1.
        -11    1    3    3    0    0 -0.12123728191E+02 -0.29497880490E+01  0.84971527912E+01  0.15095947820E+02  0.51100000000E-03 0.  1.
         12    1    3    3    0    0 -0.40449467385E+01  0.18240021585E+01  0.52252957819E+00  0.44678423373E+01  0.00000000000E+00 0. -1.
</event>
<event>
 7    1  0.2751796E-010  0.4778727E+02  0.7816164E-02  0.1312668E+00
        -11   -1    0    0    0    0  0.00000000000E+00  0.00000000000E+00  0.45593999997E+02  0.45594000000E+02  0.51100000000E-03 0. -1.
         11   -1    0    0    0    0 -0.00000000000E+00 -0.00000000000E+00 -0.45593999997E+02  0.45594000000E+02  0.51100000000E-03 0.  1.
    9900012    2    1    2    0    0  0.13318676645E+02  0.35174649058E+02 -0.21655958109E+02  0.47787267224E+02  0.19999982579E+02 0.  0.
         12    1    1    2    0    0 -0.13318676645E+02 -0.35174649058E+02  0.21655958109E+02  0.43400732776E+02  0.00000000000E+00 0. -1.
         11    1    3    3    0    0  0.68551357799E+01  0.92251263324E+01  0.48828243538E+00  0.11503663000E+02  0.51100000000E-03 0. -1.
        -11    1    3    3    0    0  0.42521277092E+01  0.26172977365E+02 -0.20273314987E+02  0.33378325828E+02  0.51100000000E-03 0.  1.
        -12    1    3    3    0    0  0.22114131557E+01 -0.22345463960E+00 -0.18709255569E+01  0.29052783964E+01  0.00000000000E+00 0.  1.
</event>
<event>
 7    1  0.2751796E-010  0.4778727E+02  0.7816164E-02  0.1312668E+00
        -11   -1    0    0    0    0  0.00000000000E+00  0.00000000000E+00  0.45593999997E+02  0.45594000000E+02  0.51100000000E-03 0.  1.
         11   -1    0    0    0    0 -0.00000000000E+00 -0.00000000000E+00 -0.45593999997E+02  0.45594000000E+02  0.51100000000E-03 0. -1.
    9900012    2    1    2    0    0  0.29362403655E+02  0.86214619179E+01  0.30775685685E+02  0.47787272087E+02  0.20000004754E+02 0.  0.
         12    1    1    2    0    0 -0.29362403655E+02 -0.86214619179E+01 -0.30775685685E+02  0.43400727913E+02  0.00000000000E+00 0. -1.
         11    1    3    3    0    0  0.12672593156E+02  0.11353544525E+02  0.88620585471E+01  0.19184203724E+02  0.51100000000E-03 0. -1.
        -11    1    3    3    0    0  0.49320867717E+01 -0.42716213672E+01  0.77859167943E+01  0.10158382234E+02  0.51100000000E-03 0.  1.
         12    1    3    3    0    0  0.11757723727E+02  0.15395387605E+01  0.14127710344E+02  0.18444686129E+02  0.00000000000E+00 0. -1.
</event>
<event>
 7    1  0.2751796E-010  0.4778727E+02  0.7816164E-02  0.1312668E+00
        -11   -1    0    0    0    0  0.00000000000E+00  0.00000000000E+00  0.45593999997E+02  0.45594000000E+02  0.51100000000E-03 0.  1.
         11   -1    0    0    0    0 -0.00000000000E+00 -0.00000000000E+00 -0.45593999997E+02  0.45594000000E+02  0.51100000000E-03 0. -1.
    9900012    2    1    2    0    0  0.19706794714E+02  0.37902605264E+02  0.76588422471E+01  0.47787272952E+02  0.20000008699E+02 0.  0.
         12    1    1    2    0    0 -0.19706794714E+02 -0.37902605264E+02 -0.76588422471E+01  0.43400727048E+02  0.00000000000E+00 0. -1.
         11    1    3    3    0    0  0.12424059776E+01  0.93766725880E+01 -0.47578018280E+01  0.10587834525E+02  0.51100000000E-03 0. -1.
        -11    1    3    3    0    0  0.13597225236E+02  0.26503298662E+02  0.10271777822E+02  0.31509027182E+02  0.51100000000E-03 0.  1.
        -12    1    3    3    0    0  0.48671634999E+01  0.20226340139E+01  0.21448662535E+01  0.56904112448E+01  0.00000000000E+00 0.  1.
</event>
<event>
 7    1  0.2792525E-010  0.4778727E+02  0.7816164E-02  0.1312668E+00
        -11   -1    0    0    0    0  0.00000000000E+00  0.00000000000E+00  0.45593999997E+02  0.45594000000E+02  0.51100000000E-03 0.  1.
         11   -1    0    0    0    0 -0.00000000000E+00 -0.00000000000E+00 -0.45593999997E+02  0.45594000000E+02  0.51100000000E-03 0. -1.
    9900012    2    1    2    0    0 -0.11589196606E+02  0.35728618614E+02  0.21743495498E+02  0.47787271175E+02  0.20000000596E+02 0.  0.
         12    1    1    2    0    0  0.11589196606E+02 -0.35728618614E+02 -0.21743495498E+02  0.43400728825E+02  0.00000000000E+00 0. -1.
         11    1    3    3    0    0 -0.38153486166E+01 -0.10241658021E+01  0.20104372750E+01  0.44325679864E+01  0.51100000000E-03 0. -1.
        -11    1    3    3    0    0 -0.60415617384E+01  0.12001940344E+02  0.97905777141E+01  0.16625355710E+02  0.51100000000E-03 0.  1.
         12    1    3    3    0    0 -0.17322862509E+01  0.24750844072E+02  0.99424805094E+01  0.26729347479E+02  0.00000000000E+00 0. -1.
</event>
<event>
 7    1  0.2751796E-010  0.4778726E+02  0.7816164E-02  0.1312668E+00
        -11   -1    0    0    0    0  0.00000000000E+00  0.00000000000E+00  0.45593999997E+02  0.45594000000E+02  0.51100000000E-03 0.  1.
         11   -1    0    0    0    0 -0.00000000000E+00 -0.00000000000E+00 -0.45593999997E+02  0.45594000000E+02  0.51100000000E-03 0. -1.
    9900012    2    1    2    0    0  0.21821188119E+02 -0.13090106634E+02  0.35158345178E+02  0.47787258321E+02  0.19999941988E+02 0.  0.
         12    1    1    2    0    0 -0.21821188119E+02  0.13090106634E+02 -0.35158345178E+02  0.43400741679E+02  0.00000000000E+00 0. -1.
         11    1    3    3    0    0  0.92371212838E+01  0.37189436300E+01  0.70976981030E+01  0.12228338806E+02  0.51100000000E-03 0. -1.
        -11    1    3    3    0    0  0.90933735893E+01 -0.10728605882E+02  0.13984276071E+02  0.19833113848E+02  0.51100000000E-03 0.  1.
        -12    1    3    3    0    0  0.34906932464E+01 -0.60804443816E+01  0.14076371005E+02  0.15725805667E+02  0.00000000000E+00 0.  1.
</event>
<event>
 7    1  0.2751796E-010  0.4778727E+02  0.7816164E-02  0.1312668E+00
        -11   -1    0    0    0    0  0.00000000000E+00  0.00000000000E+00  0.45593999997E+02  0.45594000000E+02  0.51100000000E-03 0. -1.
         11   -1    0    0    0    0 -0.00000000000E+00 -0.00000000000E+00 -0.45593999997E+02  0.45594000000E+02  0.51100000000E-03 0.  1.
    9900012    2    1    2    0    0 -0.37893562522E+02 -0.11247128002E+02 -0.17922141524E+02  0.47787272751E+02  0.20000007782E+02 0.  0.
         12    1    1    2    0    0  0.37893562522E+02  0.11247128002E+02  0.17922141524E+02  0.43400727249E+02  0.00000000000E+00 0. -1.
         11    1    3    3    0    0  0.61363521069E+00 -0.17952599179E+01  0.17955464306E+01  0.26121817682E+01  0.51100000000E-03 0. -1.
        -11    1    3    3    0    0 -0.37075502533E+02 -0.69539082187E+01 -0.17762364022E+02  0.41694739518E+02  0.51100000000E-03 0.  1.
         12    1    3    3    0    0 -0.14316951998E+01 -0.24979598658E+01 -0.19553239326E+01  0.34803514647E+01  0.00000000000E+00 0. -1.
</event>
<event>
 7    1  0.2751796E-010  0.4778726E+02  0.7816164E-02  0.1312668E+00
        -11   -1    0    0    0    0  0.00000000000E+00  0.00000000000E+00  0.45593999997E+02  0.45594000000E+02  0.51100000000E-03 0.  1.
         11   -1    0    0    0    0 -0.00000000000E+00 -0.00000000000E+00 -0.45593999997E+02  0.45594000000E+02  0.51100000000E-03 0. -1.
    9900012    2    1    2    0    0  0.28229464771E+02  0.25148150564E+02  0.21314124840E+02  0.47787261807E+02  0.19999957881E+02 0.  0.
         12    1    1    2    0    0 -0.28229464771E+02 -0.25148150564E+02 -0.21314124840E+02  0.43400738193E+02  0.00000000000E+00 0. -1.
         11    1    3    3    0    0 -0.14064398157E+01 -0.43489043251E+00 -0.15556031725E+01  0.21417525849E+01  0.51100000000E-03 0. -1.
        -11    1    3    3    0    0  0.26009739863E+02  0.19852191874E+02  0.18819074317E+02  0.37746173957E+02  0.51100000000E-03 0.  1.
         12    1    3    3    0    0  0.36261647231E+01  0.57308491227E+01  0.40506536954E+01  0.78993352649E+01  0.00000000000E+00 0. -1.
</event>
<event>
 7    1  0.2751796E-010  0.4778727E+02  0.7816164E-02  0.1312668E+00
        -11   -1    0    0    0    0  0.00000000000E+00  0.00000000000E+00  0.45593999997E+02  0.45594000000E+02  0.51100000000E-03 0. -1.
         11   -1    0    0    0    0 -0.00000000000E+00 -0.00000000000E+00 -0.45593999997E+02  0.45594000000E+02  0.51100000000E-03 0.  1.
    9900012    2    1    2    0    0 -0.35542302732E+02 -0.23099207015E+02 -0.93163678113E+01  0.47787270082E+02  0.19999995613E+02 0.  0.
         12    1    1    2    0    0  0.35542302732E+02  0.23099207015E+02  0.93163678113E+01  0.43400729918E+02  0.00000000000E+00 0. -1.
         11    1    3    3    0    0 -0.76712316299E+01  0.31208211119E+01 -0.67567434254E+00  0.83092632171E+01  0.51100000000E-03 0. -1.
        -11    1    3    3    0    0 -0.27105980672E+02 -0.24138016147E+02 -0.79668298118E+01  0.37159768423E+02  0.51100000000E-03 0.  1.
         12    1    3    3    0    0 -0.76509043025E+00 -0.20820119793E+01 -0.67386365699E+00  0.23182384426E+01  0.00000000000E+00 0. -1.
</event>
<event>
 7    1  0.2751796E-010  0.4778728E+02  0.7816164E-02  0.1312668E+00
        -11   -1    0    0    0    0  0.00000000000E+00  0.00000000000E+00  0.45593999997E+02  0.45594000000E+02  0.51100000000E-03 0.  1.
         11   -1    0    0    0    0 -0.00000000000E+00 -0.00000000000E+00 -0.45593999997E+02  0.45594000000E+02  0.51100000000E-03 0. -1.
    9900012    2    1    2    0    0  0.14046430620E+02 -0.80231805944E+00  0.41056996349E+02  0.47787275621E+02  0.20000020868E+02 0.  0.
         12    1    1    2    0    0 -0.14046430620E+02  0.80231805944E+00 -0.41056996349E+02  0.43400724379E+02  0.00000000000E+00 0. -1.
         11    1    3    3    0    0  0.14659327104E+02  0.34206847100E+01  0.17311955587E+02  0.22941245859E+02  0.51100000000E-03 0. -1.
        -11    1    3    3    0    0 -0.13502345111E+01 -0.15084166669E+01  0.17623300927E+01  0.26840755751E+01  0.51100000000E-03 0.  1.
         12    1    3    3    0    0  0.73733802698E+00 -0.27145861026E+01  0.21982710668E+02  0.22161954187E+02  0.00000000000E+00 0. -1.
</event>
<event>
 7    1  0.2751796E-010  0.4778727E+02  0.7816164E-02  0.1312668E+00
        -11   -1    0    0    0    0  0.00000000000E+00  0.00000000000E+00  0.45593999997E+02  0.45594000000E+02  0.51100000000E-03 0.  1.
         11   -1    0    0    0    0 -0.00000000000E+00 -0.00000000000E+00 -0.45593999997E+02  0.45594000000E+02  0.51100000000E-03 0. -1.
    9900012    2    1    2    0    0  0.36070359793E+02 -0.13634659118E+02  0.19916042349E+02  0.47787268121E+02  0.19999986670E+02 0.  0.
         12    1    1    2    0    0 -0.36070359793E+02  0.13634659118E+02 -0.19916042349E+02  0.43400731879E+02  0.00000000000E+00 0. -1.
         11    1    3    3    0    0  0.62558955373E+01 -0.67781787277E+01  0.21446028026E+01  0.94699132668E+01  0.51100000000E-03 0. -1.
        -11    1    3    3    0    0  0.24872965330E+02 -0.11267175890E+02  0.13810477121E+02  0.30599721166E+02  0.51100000000E-03 0.  1.
        -12    1    3    3    0    0  0.49414989249E+01  0.44106954995E+01  0.39609624250E+01  0.77176336883E+01  0.00000000000E+00 0.  1.
</event>
<event>
 7    1  0.2751796E-010  0.4778727E+02  0.7816164E-02  0.1312668E+00
        -11   -1    0    0    0    0  0.00000000000E+00  0.00000000000E+00  0.45593999997E+02  0.45594000000E+02  0.51100000000E-03 0. -1.
         11   -1    0    0    0    0 -0.00000000000E+00 -0.00000000000E+00 -0.45593999997E+02  0.45594000000E+02  0.51100000000E-03 0.  1.
    9900012    2    1    2    0    0 -0.39305960617E+02  0.14940963109E+01 -0.18342099209E+02  0.47787268817E+02  0.19999989844E+02 0.  0.
         12    1    1    2    0    0  0.39305960617E+02 -0.14940963109E+01  0.18342099209E+02  0.43400731183E+02  0.00000000000E+00 0. -1.
         11    1    3    3    0    0 -0.20196123868E+02  0.68795149962E+01 -0.15595071153E+02  0.26427587677E+02  0.51100000000E-03 0. -1.
        -11    1    3    3    0    0 -0.19772586517E+02 -0.49345360543E+01 -0.26943640212E+01  0.20556371795E+02  0.51100000000E-03 0.  1.
         12    1    3    3    0    0  0.66274976837E+00 -0.45088263103E+00 -0.52664034534E-01  0.80330934451E+00  0.00000000000E+00 0. -1.
</event>
<event>
 7    1  0.2751796E-010  0.4778727E+02  0.7816164E-02  0.1312668E+00
        -11   -1    0    0    0    0  0.00000000000E+00  0.00000000000E+00  0.45593999997E+02  0.45594000000E+02  0.51100000000E-03 0.  1.
         11   -1    0    0    0    0 -0.00000000000E+00 -0.00000000000E+00 -0.45593999997E+02  0.45594000000E+02  0.51100000000E-03 0. -1.
    9900012    2    1    2    0    0 -0.38159303588E+02  0.12440215894E+02  0.16514608402E+02  0.47787265991E+02  0.19999976960E+02 0.  0.
         12    1    1    2    0    0  0.38159303588E+02 -0.12440215894E+02 -0.16514608402E+02  0.43400734009E+02  0.00000000000E+00 0. -1.
         11    1    3    3    0    0 -0.45143970954E+00 -0.17544214508E+01 -0.11379474282E+01  0.21393263072E+01  0.51100000000E-03 0. -1.
        -11    1    3    3    0    0 -0.12930887410E+02  0.10973842582E+02  0.52511495443E+01  0.17754088037E+02  0.51100000000E-03 0.  1.
        -12    1    3    3    0    0 -0.24776976469E+02  0.32207947633E+01  0.12401406286E+02  0.27893851647E+02  0.00000000000E+00 0.  1.
</event>
<event>
 7    1  0.2751796E-010  0.4778730E+02  0.7816164E-02  0.1312668E+00
        -11   -1    0    0    0    0  0.00000000000E+00  0.00000000000E+00  0.45593999997E+02  0.45594000000E+02  0.51100000000E-03 0.  1.
         11   -1    0    0    0    0 -0.00000000000E+00 -0.00000000000E+00 -0.45593999997E+02  0.45594000000E+02  0.51100000000E-03 0. -1.
    9900012    2    1    2    0    0 -0.38784788154E+02 -0.47158099852E+01  0.18897680270E+02  0.47787297523E+02  0.20000120724E+02 0.  0.
         12    1    1    2    0    0  0.38784788154E+02  0.47158099852E+01 -0.18897680270E+02  0.43400702477E+02  0.00000000000E+00 0. -1.
         11    1    3    3    0    0 -0.75614538902E+01 -0.24982229427E+01  0.91273790280E+00  0.80155968927E+01  0.51100000000E-03 0. -1.
        -11    1    3    3    0    0 -0.33251964337E+02 -0.19007584368E+01  0.16137998172E+02  0.37010012161E+02  0.51100000000E-03 0.  1.
        -12    1    3    3    0    0  0.20286300733E+01 -0.31682860565E+00  0.18469441955E+01  0.27616884692E+01  0.00000000000E+00 0.  1.
</event>
<event>
 7    1  0.2751796E-010  0.4778727E+02  0.7816164E-02  0.1312668E+00
        -11   -1    0    0    0    0  0.00000000000E+00  0.00000000000E+00  0.45593999997E+02  0.45594000000E+02  0.51100000000E-03 0.  1.
         11   -1    0    0    0    0 -0.00000000000E+00 -0.00000000000E+00 -0.45593999997E+02  0.45594000000E+02  0.51100000000E-03 0. -1.
    9900012    2    1    2    0    0  0.21463934208E+02  0.19337819330E+02  0.32387835284E+02  0.47787267258E+02  0.19999982736E+02 0.  0.
         12    1    1    2    0    0 -0.21463934208E+02 -0.19337819330E+02 -0.32387835284E+02  0.43400732742E+02  0.00000000000E+00 0. -1.
         11    1    3    3    0    0 -0.10074564785E+01  0.49765578118E+00  0.87063200548E+01  0.87785328495E+01  0.51100000000E-03 0. -1.
        -11    1    3    3    0    0  0.19954576188E+02  0.18508865271E+02  0.24197663943E+02  0.36418266640E+02  0.51100000000E-03 0.  1.
         12    1    3    3    0    0  0.25168144980E+01  0.33129827764E+00 -0.51614871326E+00  0.25904677686E+01  0.00000000000E+00 0. -1.
</event>
<event>
 7    1  0.2751796E-010  0.4778727E+02  0.7816164E-02  0.1312668E+00
        -11   -1    0    0    0    0  0.00000000000E+00  0.00000000000E+00  0.45593999997E+02  0.45594000000E+02  0.51100000000E-03 0. -1.
         11   -1    0    0    0    0 -0.00000000000E+00 -0.00000000000E+00 -0.45593999997E+02  0.45594000000E+02  0.51100000000E-03 0.  1.
    9900012    2    1    2    0    0  0.23690845922E+01  0.29829873235E+02 -0.31435482782E+02  0.47787268707E+02  0.19999989344E+02 0.  0.
         12    1    1    2    0    0 -0.23690845922E+01 -0.29829873235E+02  0.31435482782E+02  0.43400731293E+02  0.00000000000E+00 0. -1.
         11    1    3    3    0    0  0.12450417930E+01 -0.12319055389E+01  0.12740448467E+01  0.21658510696E+01  0.51100000000E-03 0. -1.
        -11    1    3    3    0    0 -0.23296483111E+01  0.21185996095E+02 -0.22806658863E+02  0.31215659220E+02  0.51100000000E-03 0.  1.
         12    1    3    3    0    0  0.34536911102E+01  0.98757826785E+01 -0.99028687660E+01  0.14405758418E+02  0.00000000000E+00 0. -1.
</event>
<event>
 7    1  0.2751796E-010  0.4778727E+02  0.7816164E-02  0.1312668E+00
        -11   -1    0    0    0    0  0.00000000000E+00  0.00000000000E+00  0.45593999997E+02  0.45594000000E+02  0.51100000000E-03 0. -1.
         11   -1    0    0    0    0 -0.00000000000E+00 -0.00000000000E+00 -0.45593999997E+02  0.45594000000E+02  0.51100000000E-03 0.  1.
    9900012    2    1    2    0    0 -0.39028092272E+02 -0.17151654437E+02 -0.81395299834E+01  0.47787272072E+02  0.20000004686E+02 0.  0.
         12    1    1    2    0    0  0.39028092272E+02  0.17151654437E+02  0.81395299834E+01  0.43400727928E+02  0.00000000000E+00 0. -1.
         11    1    3    3    0    0 -0.51415417370E+01 -0.14910738951E+01  0.26960175315E+01  0.59939355673E+01  0.51100000000E-03 0. -1.
        -11    1    3    3    0    0 -0.62355976466E+00 -0.43295647706E+01 -0.41368074128E+01  0.60205592527E+01  0.51100000000E-03 0.  1.
        -12    1    3    3    0    0 -0.33262990770E+02 -0.11331015771E+02 -0.66987401022E+01  0.35772777252E+02  0.00000000000E+00 0.  1.
</event>
<event>
 7    1  0.2751796E-010  0.4778727E+02  0.7816164E-02  0.1312668E+00
        -11   -1    0    0    0    0  0.00000000000E+00  0.00000000000E+00  0.45593999997E+02  0.45594000000E+02  0.51100000000E-03 0.  1.
         11   -1    0    0    0    0 -0.00000000000E+00 -0.00000000000E+00 -0.45593999997E+02  0.45594000000E+02  0.51100000000E-03 0. -1.
    9900012    2    1    2    0    0 -0.11233959072E+02  0.11107056653E+01  0.41906893462E+02  0.47787271629E+02  0.20000002666E+02 0.  0.
         12    1    1    2    0    0  0.11233959072E+02 -0.11107056653E+01 -0.41906893462E+02  0.43400728371E+02  0.00000000000E+00 0. -1.
         11    1    3    3    0    0 -0.38999551191E+01 -0.34127783946E+01  0.54423882901E+01  0.75150713146E+01  0.51100000000E-03 0. -1.
        -11    1    3    3    0    0 -0.66673556607E+01  0.95138234572E+01  0.29267996361E+02  0.31489396303E+02  0.51100000000E-03 0.  1.
        -12    1    3    3    0    0 -0.66664829247E+00 -0.49903393973E+01  0.71965088106E+01  0.87828040117E+01  0.00000000000E+00 0.  1.
</event>
<event>
 7    1  0.2751796E-010  0.4778727E+02  0.7816164E-02  0.1312668E+00
        -11   -1    0    0    0    0  0.00000000000E+00  0.00000000000E+00  0.45593999997E+02  0.45594000000E+02  0.51100000000E-03 0.  1.
         11   -1    0    0    0    0 -0.00000000000E+00 -0.00000000000E+00 -0.45593999997E+02  0.45594000000E+02  0.51100000000E-03 0. -1.
    9900012    2    1    2    0    0  0.10131975658E+02  0.16137534968E+02  0.38994184581E+02  0.47787269629E+02  0.19999993547E+02 0.  0.
         12    1    1    2    0    0 -0.10131975658E+02 -0.16137534968E+02 -0.38994184581E+02  0.43400730371E+02  0.00000000000E+00 0. -1.
         11    1    3    3    0    0  0.38910926592E+01  0.12963520121E+02  0.15801671678E+02  0.20805919448E+02  0.51100000000E-03 0. -1.
        -11    1    3    3    0    0  0.36505580513E+01  0.67444945451E+01  0.76783797462E+01  0.10852294529E+02  0.51100000000E-03 0.  1.
         12    1    3    3    0    0  0.25903249471E+01 -0.35704796983E+01  0.15514133157E+02  0.16129055652E+02  0.00000000000E+00 0. -1.
</event>
<event>
 7    1  0.2751796E-010  0.4778727E+02  0.7816164E-02  0.1312668E+00
        -11   -1    0    0    0    0  0.00000000000E+00  0.00000000000E+00  0.45593999997E+02  0.45594000000E+02  0.51100000000E-03 0.  1.
         11   -1    0    0    0    0 -0.00000000000E+00 -0.00000000000E+00 -0.45593999997E+02  0.45594000000E+02  0.51100000000E-03 0. -1.
    9900012    2    1    2    0    0 -0.39191952338E+02 -0.18210170944E+02  0.40004837088E+01  0.47787270470E+02  0.19999997380E+02 0.  0.
         12    1    1    2    0    0  0.39191952338E+02  0.18210170944E+02 -0.40004837088E+01  0.43400729530E+02  0.00000000000E+00 0. -1.
         11    1    3    3    0    0 -0.51848284892E+00  0.26762216765E+01 -0.77137698470E+00  0.28330212918E+01  0.51100000000E-03 0. -1.
        -11    1    3    3    0    0 -0.27839508596E+02 -0.16731451573E+02  0.19554030446E+00  0.32481039806E+02  0.51100000000E-03 0.  1.
        -12    1    3    3    0    0 -0.10833960893E+02 -0.41549410477E+01  0.45763203890E+01  0.12473209372E+02  0.00000000000E+00 0.  1.
</event>
<event>
 7    1  0.2751796E-010  0.4778726E+02  0.7816164E-02  0.1312668E+00
        -11   -1    0    0    0    0  0.00000000000E+00  0.00000000000E+00  0.45593999997E+02  0.45594000000E+02  0.51100000000E-03 0.  1.
         11   -1    0    0    0    0 -0.00000000000E+00 -0.00000000000E+00 -0.45593999997E+02  0.45594000000E+02  0.51100000000E-03 0. -1.
    9900012    2    1    2    0    0 -0.36702071977E+02 -0.34899590429E+01 -0.22899829196E+02  0.47787261772E+02  0.19999957721E+02 0.  0.
         12    1    1    2    0    0  0.36702071977E+02  0.34899590429E+01  0.22899829196E+02  0.43400738228E+02  0.00000000000E+00 0. -1.
         11    1    3    3    0    0  0.11310337617E+01 -0.25530801835E+01 -0.78369491557E+00  0.29002816717E+01  0.51100000000E-03 0. -1.
        -11    1    3    3    0    0 -0.27507411080E+02  0.56470405069E+00 -0.10971499008E+02  0.29620100367E+02  0.51100000000E-03 0.  1.
         12    1    3    3    0    0 -0.10325694659E+02 -0.15015829100E+01 -0.11144635273E+02  0.15266879733E+02  0.00000000000E+00 0. -1.
</event>
<event>
 7    1 -0.2751796E-010  0.4778728E+02  0.7816164E-02  0.1312668E+00
        -11   -1    0    0    0    0  0.00000000000E+00  0.00000000000E+00  0.45593999997E+02  0.45594000000E+02  0.51100000000E-03 0.  1.
         11   -1    0    0    0    0 -0.00000000000E+00 -0.00000000000E+00 -0.45593999997E+02  0.45594000000E+02  0.51100000000E-03 0. -1.
    9900012    2    1    2    0    0 -0.37137164220E+02 -0.81649961913E+01  0.20923351452E+02  0.47787276906E+02  0.20000026725E+02 0.  0.
         12    1    1    2    0    0  0.37137164220E+02  0.81649961913E+01 -0.20923351452E+02  0.43400723094E+02  0.00000000000E+00 0. -1.
         11    1    3    3    0    0 -0.10459432407E+02 -0.63758466491E+01  0.50323958018E+01  0.13242966229E+02  0.51100000000E-03 0. -1.
        -11    1    3    3    0    0 -0.10467631084E+01  0.87862509667E+00 -0.25247851143E+01  0.28709293269E+01  0.51100000000E-03 0.  1.
        -12    1    3    3    0    0 -0.25630968704E+02 -0.26677746388E+01  0.18415740765E+02  0.31673381350E+02  0.00000000000E+00 0.  1.
</event>
<event>
 7    1  0.2751796E-010  0.4778726E+02  0.7816164E-02  0.1312668E+00
        -11   -1    0    0    0    0  0.00000000000E+00  0.00000000000E+00  0.45593999997E+02  0.45594000000E+02  0.51100000000E-03 0.  1.
         11   -1    0    0    0    0 -0.00000000000E+00 -0.00000000000E+00 -0.45593999997E+02  0.45594000000E+02  0.51100000000E-03 0. -1.
    9900012    2    1    2    0    0 -0.36655820060E+01  0.66689423303E+01  0.42728362758E+02  0.47787259601E+02  0.19999947824E+02 0.  0.
         12    1    1    2    0    0  0.36655820060E+01 -0.66689423303E+01 -0.42728362758E+02  0.43400740399E+02  0.00000000000E+00 0. -1.
         11    1    3    3    0    0 -0.12400642970E+01  0.54738753697E+00 -0.11449942203E+01  0.17743744255E+01  0.51100000000E-03 0. -1.
        -11    1    3    3    0    0 -0.52625330167E+01  0.24058959780E+01  0.38317161338E+02  0.38751612127E+02  0.51100000000E-03 0.  1.
         12    1    3    3    0    0  0.28370153077E+01  0.37156588154E+01  0.55561956404E+01  0.72612730484E+01  0.00000000000E+00 0. -1.
</event>
<event>
 7    1  0.2751796E-010  0.4778726E+02  0.7816164E-02  0.1312668E+00
        -11   -1    0    0    0    0  0.00000000000E+00  0.00000000000E+00  0.45593999997E+02  0.45594000000E+02  0.51100000000E-03 0. -1.
         11   -1    0    0    0    0 -0.00000000000E+00 -0.00000000000E+00 -0.45593999997E+02  0.45594000000E+02  0.51100000000E-03 0.  1.
    9900012    2    1    2    0    0 -0.31707758249E+02 -0.68982814111E+01 -0.28821096987E+02  0.47787264394E+02  0.19999969679E+02 0.  0.
         12    1    1    2    0    0  0.31707758249E+02  0.68982814111E+01  0.28821096987E+02  0.43400735606E+02  0.00000000000E+00 0. -1.
         11    1    3    3    0    0 -0.21000700710E+02 -0.16527953160E+01 -0.14688631545E+02  0.25681064222E+02  0.51100000000E-03 0. -1.
        -11    1    3    3    0    0 -0.85962805789E+01 -0.27856024829E+00 -0.20039513159E+01  0.88311639516E+01  0.51100000000E-03 0.  1.
         12    1    3    3    0    0 -0.21107769600E+01 -0.49669258468E+01 -0.12128514126E+02  0.13275036220E+02  0.00000000000E+00 0. -1.
</event>
<event>
 7    1  0.2751796E-010  0.4778727E+02  0.7816164E-02  0.1312668E+00
        -11   -1    0    0    0    0  0.00000000000E+00  0.00000000000E+00  0.45593999997E+02  0.45594000000E+02  0.51100000000E-03 0. -1.
         11   -1    0    0    0    0 -0.00000000000E+00 -0.00000000000E+00 -0.45593999997E+02  0.45594000000E+02  0.51100000000E-03 0.  1.
    9900012    2    1    2    0    0  0.66767532946E+01  0.42883907157E+02 -0.12166886655E+00  0.47787270387E+02  0.19999997001E+02 0.  0.
         12    1    1    2    0    0 -0.66767532946E+01 -0.42883907157E+02  0.12166886655E+00  0.43400729613E+02  0.00000000000E+00 0. -1.
         11    1    3    3    0    0 -0.17445849783E+01  0.89897689842E+01  0.37580658217E+01  0.98986151616E+01  0.51100000000E-03 0.  1.
        -11    1    3    3    0    0  0.65016036081E+01  0.38609428295E+01 -0.14203962437E+01  0.76938452519E+01  0.51100000000E-03 0. -1.
        -12    1    3    3    0    0  0.19197346648E+01  0.30033195344E+02 -0.24593384445E+01  0.30194809973E+02  0.00000000000E+00 0.  1.
</event>
<event>
 7    1  0.2751796E-010  0.4778728E+02  0.7816164E-02  0.1312668E+00
        -11   -1    0    0    0    0  0.00000000000E+00  0.00000000000E+00  0.45593999997E+02  0.45594000000E+02  0.51100000000E-03 0. -1.
         11   -1    0    0    0    0 -0.00000000000E+00 -0.00000000000E+00 -0.45593999997E+02  0.45594000000E+02  0.51100000000E-03 0.  1.
    9900012    2    1    2    0    0  0.36942577540E+02 -0.16159566215E+02 -0.16054190806E+02  0.47787278139E+02  0.20000032349E+02 0.  0.
         12    1    1    2    0    0 -0.36942577540E+02  0.16159566215E+02  0.16054190806E+02  0.43400721861E+02  0.00000000000E+00 0. -1.
         11    1    3    3    0    0  0.23102187626E+01 -0.78042320202E+01 -0.91007203531E+00  0.81897118098E+01  0.51100000000E-03 0. -1.
        -11    1    3    3    0    0  0.28625826311E+02 -0.10040008381E+02 -0.12153737101E+02  0.32679550579E+02  0.51100000000E-03 0.  1.
         12    1    3    3    0    0  0.60065324669E+01  0.16846741867E+01 -0.29903816692E+01  0.69180157501E+01  0.00000000000E+00 0. -1.
</event>
<event>
 7    1  0.2751796E-010  0.4778727E+02  0.7816164E-02  0.1312668E+00
        -11   -1    0    0    0    0  0.00000000000E+00  0.00000000000E+00  0.45593999997E+02  0.45594000000E+02  0.51100000000E-03 0.  1.
         11   -1    0    0    0    0 -0.00000000000E+00 -0.00000000000E+00 -0.45593999997E+02  0.45594000000E+02  0.51100000000E-03 0. -1.
    9900012    2    1    2    0    0  0.17905601997E+02 -0.22816085750E+02  0.32286822581E+02  0.47787271156E+02  0.20000000510E+02 0.  0.
         12    1    1    2    0    0 -0.17905601997E+02  0.22816085750E+02 -0.32286822581E+02  0.43400728844E+02  0.00000000000E+00 0. -1.
         11    1    3    3    0    0 -0.15429103591E+01  0.15445136138E+01  0.14977569275E+00  0.21882704812E+01  0.51100000000E-03 0. -1.
        -11    1    3    3    0    0  0.16043280700E+02 -0.16775898709E+02  0.18745152005E+02  0.29836192067E+02  0.51100000000E-03 0.  1.
        -12    1    3    3    0    0  0.34052316558E+01 -0.75847006548E+01  0.13391894883E+02  0.15762808608E+02  0.00000000000E+00 0.  1.
</event>
<event>
 7    1  0.2751796E-010  0.4778727E+02  0.7816164E-02  0.1312668E+00
        -11   -1    0    0    0    0  0.00000000000E+00  0.00000000000E+00  0.45593999997E+02  0.45594000000E+02  0.51100000000E-03 0.  1.
         11   -1    0    0    0    0 -0.00000000000E+00 -0.00000000000E+00 -0.45593999997E+02  0.45594000000E+02  0.51100000000E-03 0. -1.
    9900012    2    1    2    0    0  0.12990707831E+02 -0.25896723198E+02  0.32314468468E+02  0.47787266888E+02  0.19999981049E+02 0.  0.
         12    1    1    2    0    0 -0.12990707831E+02  0.25896723198E+02 -0.32314468468E+02  0.43400733112E+02  0.00000000000E+00 0. -1.
         11    1    3    3    0    0  0.26149313220E+01  0.12638256387E+01  0.13598037465E+01  0.32068968730E+01  0.51100000000E-03 0. -1.
        -11    1    3    3    0    0  0.13343174223E+02 -0.24531237300E+02  0.28584794089E+02  0.39961385801E+02  0.51100000000E-03 0.  1.
        -12    1    3    3    0    0 -0.29673977142E+01 -0.26293115366E+01  0.23698706323E+01  0.46189842135E+01  0.00000000000E+00 0.  1.
</event>
<event>
 7    1  0.2751796E-010  0.4778727E+02  0.7816164E-02  0.1312668E+00
        -11   -1    0    0    0    0  0.00000000000E+00  0.00000000000E+00  0.45593999997E+02  0.45594000000E+02  0.51100000000E-03 0. -1.
         11   -1    0    0    0    0 -0.00000000000E+00 -0.00000000000E+00 -0.45593999997E+02  0.45594000000E+02  0.51100000000E-03 0.  1.
    9900012    2    1    2    0    0  0.36137194084E+02  0.17370825376E+02 -0.16612673490E+02  0.47787270847E+02  0.19999999100E+02 0.  0.
         12    1    1    2    0    0 -0.36137194084E+02 -0.17370825376E+02  0.16612673490E+02  0.43400729153E+02  0.00000000000E+00 0. -1.
         11    1    3    3    0    0  0.40100913267E+01  0.20343733908E+01 -0.40794182891E+00  0.45150774455E+01  0.51100000000E-03 0. -1.
        -11    1    3    3    0    0  0.16038493803E+02  0.15259618792E+02 -0.27677930815E+01  0.22310309902E+02  0.51100000000E-03 0.  1.
        -12    1    3    3    0    0  0.16088608955E+02  0.76833193264E-01 -0.13436938580E+02  0.20961883499E+02  0.00000000000E+00 0.  1.
</event>
<event>
 7    1  0.2751796E-010  0.4778727E+02  0.7816164E-02  0.1312668E+00
        -11   -1    0    0    0    0  0.00000000000E+00  0.00000000000E+00  0.45593999997E+02  0.45594000000E+02  0.51100000000E-03 0. -1.
         11   -1    0    0    0    0 -0.00000000000E+00 -0.00000000000E+00 -0.45593999997E+02  0.45594000000E+02  0.51100000000E-03 0.  1.
    9900012    2    1    2    0    0  0.26358077220E+02 -0.30882848547E+02 -0.15333774594E+02  0.47787271752E+02  0.20000003228E+02 0.  0.
         12    1    1    2    0    0 -0.26358077220E+02  0.30882848547E+02  0.15333774594E+02  0.43400728248E+02  0.00000000000E+00 0. -1.
         11    1    3    3    0    0 -0.31558559698E+01 -0.29812823712E+01 -0.34879936174E+00  0.43553567862E+01  0.51100000000E-03 0. -1.
        -11    1    3    3    0    0  0.21355792872E+02 -0.22199080068E+02 -0.11685868229E+02  0.32945842857E+02  0.51100000000E-03 0.  1.
         12    1    3    3    0    0  0.81581403175E+01 -0.57024861081E+01 -0.32991070033E+01  0.10486072109E+02  0.00000000000E+00 0. -1.
</event>
<event>
 7    1  0.2751796E-010  0.4778727E+02  0.7816164E-02  0.1312668E+00
        -11   -1    0    0    0    0  0.00000000000E+00  0.00000000000E+00  0.45593999997E+02  0.45594000000E+02  0.51100000000E-03 0.  1.
         11   -1    0    0    0    0 -0.00000000000E+00 -0.00000000000E+00 -0.45593999997E+02  0.45594000000E+02  0.51100000000E-03 0. -1.
    9900012    2    1    2    0    0 -0.10879381151E+02  0.15428070514E+02  0.39079876463E+02  0.47787273757E+02  0.20000012368E+02 0.  0.
         12    1    1    2    0    0  0.10879381151E+02 -0.15428070514E+02 -0.39079876463E+02  0.43400726243E+02  0.00000000000E+00 0. -1.
         11    1    3    3    0    0 -0.85805915804E+01  0.44858688409E+01  0.71427264859E+01  0.12031962144E+02  0.51100000000E-03 0. -1.
        -11    1    3    3    0    0 -0.67283578388E+00  0.12843443085E+02  0.29830221985E+02  0.32484594537E+02  0.51100000000E-03 0.  1.
        -12    1    3    3    0    0 -0.16259537872E+01 -0.19012414124E+01  0.21069279921E+01  0.32707170758E+01  0.00000000000E+00 0.  1.
</event>
<event>
 7    1  0.2751796E-010  0.4778727E+02  0.7816164E-02  0.1312668E+00
        -11   -1    0    0    0    0  0.00000000000E+00  0.00000000000E+00  0.45593999997E+02  0.45594000000E+02  0.51100000000E-03 0. -1.
         11   -1    0    0    0    0 -0.00000000000E+00 -0.00000000000E+00 -0.45593999997E+02  0.45594000000E+02  0.51100000000E-03 0.  1.
    9900012    2    1    2    0    0  0.35589013828E+02 -0.82937661427E+01  0.23414925978E+02  0.47787271658E+02  0.20000002796E+02 0.  0.
         12    1    1    2    0    0 -0.35589013828E+02  0.82937661427E+01 -0.23414925978E+02  0.43400728342E+02  0.00000000000E+00 0. -1.
         11    1    3    3    0    0  0.74411823976E+01 -0.55391713844E+01  0.15622559973E+02  0.18169149553E+02  0.51100000000E-03 0. -1.
        -11    1    3    3    0    0  0.17118460056E+02 -0.36620265761E+01  0.49558038906E+01  0.18193738093E+02  0.51100000000E-03 0.  1.
         12    1    3    3    0    0  0.11029371375E+02  0.90743181777E+00  0.28365621142E+01  0.11424384012E+02  0.00000000000E+00 0. -1.
</event>
<event>
 7    1  0.2751796E-010  0.4778727E+02  0.7816164E-02  0.1312668E+00
        -11   -1    0    0    0    0  0.00000000000E+00  0.00000000000E+00  0.45593999997E+02  0.45594000000E+02  0.51100000000E-03 0.  1.
         11   -1    0    0    0    0 -0.00000000000E+00 -0.00000000000E+00 -0.45593999997E+02  0.45594000000E+02  0.51100000000E-03 0. -1.
    9900012    2    1    2    0    0  0.32263018105E+02  0.14543219401E+02  0.25124001989E+02  0.47787273695E+02  0.20000012087E+02 0.  0.
         12    1    1    2    0    0 -0.32263018105E+02 -0.14543219401E+02 -0.25124001989E+02  0.43400726305E+02  0.00000000000E+00 0. -1.
         11    1    3    3    0    0  0.21265170868E+01 -0.66859708044E+00  0.47648694105E+01  0.52605206716E+01  0.51100000000E-03 0. -1.
        -11    1    3    3    0    0  0.24898031510E+02  0.98367134317E+01  0.22223564926E+02  0.34793099064E+02  0.51100000000E-03 0.  1.
        -12    1    3    3    0    0  0.52384695091E+01  0.53751030499E+01 -0.18644323472E+01  0.77336539599E+01  0.00000000000E+00 0.  1.
</event>
<event>
 7    1  0.2751796E-010  0.4778727E+02  0.7816164E-02  0.1312668E+00
        -11   -1    0    0    0    0  0.00000000000E+00  0.00000000000E+00  0.45593999997E+02  0.45594000000E+02  0.51100000000E-03 0.  1.
         11   -1    0    0    0    0 -0.00000000000E+00 -0.00000000000E+00 -0.45593999997E+02  0.45594000000E+02  0.51100000000E-03 0. -1.
    9900012    2    1    2    0    0  0.10867228987E+02  0.11674346623E+01  0.42001947733E+02  0.47787272092E+02  0.20000004777E+02 0.  0.
         12    1    1    2    0    0 -0.10867228987E+02 -0.11674346623E+01 -0.42001947733E+02  0.43400727908E+02  0.00000000000E+00 0. -1.
         11    1    3    3    0    0  0.11261805714E+02  0.11607137168E+01  0.31458984886E+02  0.33434162986E+02  0.51100000000E-03 0. -1.
        -11    1    3    3    0    0  0.23035187258E+01  0.20144189573E+01 -0.22872410239E+00  0.30686148719E+01  0.51100000000E-03 0.  1.
        -12    1    3    3    0    0 -0.26980954529E+01 -0.20076980118E+01  0.10771686950E+02  0.11284494234E+02  0.00000000000E+00 0.  1.
</event>
<event>
 7    1  0.2751796E-010  0.4778727E+02  0.7816164E-02  0.1312668E+00
        -11   -1    0    0    0    0  0.00000000000E+00  0.00000000000E+00  0.45593999997E+02  0.45594000000E+02  0.51100000000E-03 0.  1.
         11   -1    0    0    0    0 -0.00000000000E+00 -0.00000000000E+00 -0.45593999997E+02  0.45594000000E+02  0.51100000000E-03 0. -1.
    9900012    2    1    2    0    0 -0.11589157237E+02 -0.88765958437E-01  0.41824715241E+02  0.47787271321E+02  0.20000001261E+02 0.  0.
         12    1    1    2    0    0  0.11589157237E+02  0.88765958437E-01 -0.41824715241E+02  0.43400728679E+02  0.00000000000E+00 0. -1.
         11    1    3    3    0    0  0.28533204131E+01 -0.50117960487E+01  0.57596443235E+01  0.81506466006E+01  0.51100000000E-03 0. -1.
        -11    1    3    3    0    0 -0.92312179027E+01  0.55267757776E+01  0.28196883051E+02  0.30179874893E+02  0.51100000000E-03 0.  1.
        -12    1    3    3    0    0 -0.52112597471E+01 -0.60374568727E+00  0.78681878663E+01  0.94567498278E+01  0.00000000000E+00 0.  1.
</event>
<event>
 7    1  0.2751796E-010  0.4778727E+02  0.7816164E-02  0.1312668E+00
        -11   -1    0    0    0    0  0.00000000000E+00  0.00000000000E+00  0.45593999997E+02  0.45594000000E+02  0.51100000000E-03 0. -1.
         11   -1    0    0    0    0 -0.00000000000E+00 -0.00000000000E+00 -0.45593999997E+02  0.45594000000E+02  0.51100000000E-03 0.  1.
    9900012    2    1    2    0    0  0.74258215626E+01 -0.12003156111E+02 -0.41041496412E+02  0.47787274081E+02  0.20000013846E+02 0.  0.
         12    1    1    2    0    0 -0.74258215626E+01  0.12003156111E+02  0.41041496412E+02  0.43400725919E+02  0.00000000000E+00 0. -1.
         11    1    3    3    0    0 -0.45588359638E+01 -0.30406723197E+01 -0.36665182199E+01  0.65933322090E+01  0.51100000000E-03 0. -1.
        -11    1    3    3    0    0  0.11464450322E+02 -0.87003548918E+01 -0.37816799620E+02  0.40462824051E+02  0.51100000000E-03 0.  1.
        -12    1    3    3    0    0  0.52020720483E+00 -0.26212889915E+00  0.44182142704E+00  0.73111782164E+00  0.00000000000E+00 0.  1.
</event>
<event>
 7    1  0.2751796E-010  0.4778727E+02  0.7816164E-02  0.1312668E+00
        -11   -1    0    0    0    0  0.00000000000E+00  0.00000000000E+00  0.45593999997E+02  0.45594000000E+02  0.51100000000E-03 0. -1.
         11   -1    0    0    0    0 -0.00000000000E+00 -0.00000000000E+00 -0.45593999997E+02  0.45594000000E+02  0.51100000000E-03 0.  1.
    9900012    2    1    2    0    0  0.83892237805E+01  0.35650271701E+02 -0.23287390388E+02  0.47787268450E+02  0.19999988171E+02 0.  0.
         12    1    1    2    0    0 -0.83892237805E+01 -0.35650271701E+02  0.23287390388E+02  0.43400731550E+02  0.00000000000E+00 0. -1.
         11    1    3    3    0    0  0.41386519916E+00  0.26628333625E+02 -0.21089029553E+02  0.33970378328E+02  0.51100000000E-03 0. -1.
        -11    1    3    3    0    0  0.34424906168E+01  0.81244487511E+01 -0.25440476848E+01  0.91831142887E+01  0.51100000000E-03 0.  1.
         12    1    3    3    0    0  0.45328679646E+01  0.89748932475E+00  0.34568684921E+00  0.46337758329E+01  0.00000000000E+00 0. -1.
</event>
<event>
 7    1  0.2751796E-010  0.4778728E+02  0.7816164E-02  0.1312668E+00
        -11   -1    0    0    0    0  0.00000000000E+00  0.00000000000E+00  0.45593999997E+02  0.45594000000E+02  0.51100000000E-03 0.  1.
         11   -1    0    0    0    0 -0.00000000000E+00 -0.00000000000E+00 -0.45593999997E+02  0.45594000000E+02  0.51100000000E-03 0. -1.
    9900012    2    1    2    0    0 -0.21773514239E+02 -0.34590736133E+02  0.14595117304E+02  0.47787281139E+02  0.20000046026E+02 0.  0.
         12    1    1    2    0    0  0.21773514239E+02  0.34590736133E+02 -0.14595117304E+02  0.43400718861E+02  0.00000000000E+00 0. -1.
         11    1    3    3    0    0  0.23096063281E+01  0.63072533680E+00  0.86258638837E+00  0.25448283596E+01  0.51100000000E-03 0. -1.
        -11    1    3    3    0    0 -0.16644425389E+02 -0.28794201313E+02  0.10040291714E+02  0.34741191456E+02  0.51100000000E-03 0.  1.
         12    1    3    3    0    0 -0.74386951782E+01 -0.64272601563E+01  0.36922392020E+01  0.10501261324E+02  0.00000000000E+00 0. -1.
</event>
<event>
 7    1  0.2751796E-010  0.4778727E+02  0.7816164E-02  0.1312668E+00
        -11   -1    0    0    0    0  0.00000000000E+00  0.00000000000E+00  0.45593999997E+02  0.45594000000E+02  0.51100000000E-03 0.  1.
         11   -1    0    0    0    0 -0.00000000000E+00 -0.00000000000E+00 -0.45593999997E+02  0.45594000000E+02  0.51100000000E-03 0. -1.
    9900012    2    1    2    0    0  0.38520953981E+02  0.19006850127E+02  0.62047544743E+01  0.47787271603E+02  0.20000002545E+02 0.  0.
         12    1    1    2    0    0 -0.38520953981E+02 -0.19006850127E+02 -0.62047544743E+01  0.43400728397E+02  0.00000000000E+00 0. -1.
         11    1    3    3    0    0  0.77491541043E+01  0.31971491768E+01 -0.51095132794E+01  0.98172439312E+01  0.51100000000E-03 0. -1.
        -11    1    3    3    0    0  0.22266960406E+02  0.56612642412E+01  0.64462033397E+01  0.23862543375E+02  0.51100000000E-03 0.  1.
         12    1    3    3    0    0  0.85048394704E+01  0.10148436709E+02  0.48680644140E+01  0.14107484297E+02  0.00000000000E+00 0. -1.
</event>
<event>
 7    1  0.2751796E-010  0.4778727E+02  0.7816164E-02  0.1312668E+00
        -11   -1    0    0    0    0  0.00000000000E+00  0.00000000000E+00  0.45593999997E+02  0.45594000000E+02  0.51100000000E-03 0.  1.
         11   -1    0    0    0    0 -0.00000000000E+00 -0.00000000000E+00 -0.45593999997E+02  0.45594000000E+02  0.51100000000E-03 0. -1.
    9900012    2    1    2    0    0  0.33882063079E+02 -0.25170819563E+02  0.10102434329E+02  0.47787268032E+02  0.19999986265E+02 0.  0.
         12    1    1    2    0    0 -0.33882063079E+02  0.25170819563E+02 -0.10102434329E+02  0.43400731968E+02  0.00000000000E+00 0. -1.
         11    1    3    3    0    0  0.16517101263E+00 -0.11112594038E+01 -0.15633075588E+01  0.19251258947E+01  0.51100000000E-03 0. -1.
        -11    1    3    3    0    0  0.33477905422E+01  0.10150266906E+01  0.47141566606E+01  0.58703708553E+01  0.51100000000E-03 0.  1.
        -12    1    3    3    0    0  0.30369101524E+02 -0.25074586850E+02  0.69515852274E+01  0.39991771282E+02  0.00000000000E+00 0.  1.
</event>
<event>
 7    1  0.2751796E-010  0.4778728E+02  0.7816164E-02  0.1312668E+00
        -11   -1    0    0    0    0  0.00000000000E+00  0.00000000000E+00  0.45593999997E+02  0.45594000000E+02  0.51100000000E-03 0. -1.
         11   -1    0    0    0    0 -0.00000000000E+00 -0.00000000000E+00 -0.45593999997E+02  0.45594000000E+02  0.51100000000E-03 0.  1.
    9900012    2    1    2    0    0 -0.42157023232E+02  0.15169183429E+01  0.10203279891E+02  0.47787279159E+02  0.20000036997E+02 0.  0.
         12    1    1    2    0    0  0.42157023232E+02 -0.15169183429E+01 -0.10203279891E+02  0.43400720841E+02  0.00000000000E+00 0. -1.
         11    1    3    3    0    0 -0.88274434801E+01 -0.62586382127E+01 -0.55501170440E+00  0.10835236450E+02  0.51100000000E-03 0. -1.
        -11    1    3    3    0    0 -0.98681954519E+01 -0.71479630148E+00  0.30049618480E+00  0.98986116929E+01  0.51100000000E-03 0.  1.
         12    1    3    3    0    0 -0.23461384300E+02  0.84903528571E+01  0.10457795411E+02  0.27053431016E+02  0.00000000000E+00 0. -1.
</event>
<event>
 7    1  0.2751796E-010  0.4778727E+02  0.7816164E-02  0.1312668E+00
        -11   -1    0    0    0    0  0.00000000000E+00  0.00000000000E+00  0.45593999997E+02  0.45594000000E+02  0.51100000000E-03 0.  1.
         11   -1    0    0    0    0 -0.00000000000E+00 -0.00000000000E+00 -0.45593999997E+02  0.45594000000E+02  0.51100000000E-03 0. -1.
    9900012    2    1    2    0    0 -0.19442650805E+01  0.38540690274E+02 -0.19860975662E+02  0.47787270424E+02  0.19999997170E+02 0.  0.
         12    1    1    2    0    0  0.19442650805E+01 -0.38540690274E+02  0.19860975662E+02  0.43400729576E+02  0.00000000000E+00 0. -1.
         11    1    3    3    0    0 -0.27857509946E+00  0.21626031940E+01  0.15287630313E+01  0.26630008126E+01  0.51100000000E-03 0. -1.
        -11    1    3    3    0    0 -0.11279688074E+01  0.26224565501E+02 -0.64107673488E+01  0.27020327304E+02  0.51100000000E-03 0.  1.
        -12    1    3    3    0    0 -0.53772117366E+00  0.10153521579E+02 -0.14978971345E+02  0.18103942307E+02  0.00000000000E+00 0.  1.
</event>
<event>
 7    1  0.2751796E-010  0.4778727E+02  0.7816164E-02  0.1312668E+00
        -11   -1    0    0    0    0  0.00000000000E+00  0.00000000000E+00  0.45593999997E+02  0.45594000000E+02  0.51100000000E-03 0. -1.
         11   -1    0    0    0    0 -0.00000000000E+00 -0.00000000000E+00 -0.45593999997E+02  0.45594000000E+02  0.51100000000E-03 0.  1.
    9900012    2    1    2    0    0  0.31875173697E+02 -0.16929925331E+02 -0.24103402977E+02  0.47787272990E+02  0.20000008870E+02 0.  0.
         12    1    1    2    0    0 -0.31875173697E+02  0.16929925331E+02  0.24103402977E+02  0.43400727010E+02  0.00000000000E+00 0. -1.
         11    1    3    3    0    0  0.11916427444E+01 -0.66425801888E+01 -0.87813878403E+01  0.11075046576E+02  0.51100000000E-03 0. -1.
        -11    1    3    3    0    0  0.28247107626E+02 -0.69774062706E+01 -0.12197184685E+02  0.31549240910E+02  0.51100000000E-03 0.  1.
        -12    1    3    3    0    0  0.24364233271E+01 -0.33099388718E+01 -0.31248304516E+01  0.51629855041E+01  0.00000000000E+00 0.  1.
</event>
<event>
 7    1  0.2751796E-010  0.4778728E+02  0.7816164E-02  0.1312668E+00
        -11   -1    0    0    0    0  0.00000000000E+00  0.00000000000E+00  0.45593999997E+02  0.45594000000E+02  0.51100000000E-03 0.  1.
         11   -1    0    0    0    0 -0.00000000000E+00 -0.00000000000E+00 -0.45593999997E+02  0.45594000000E+02  0.51100000000E-03 0. -1.
    9900012    2    1    2    0    0  0.28617269353E+02  0.57322298680E+01  0.32121898254E+02  0.47787275214E+02  0.20000019013E+02 0.  0.
         12    1    1    2    0    0 -0.28617269353E+02 -0.57322298680E+01 -0.32121898254E+02  0.43400724786E+02  0.00000000000E+00 0. -1.
         11    1    3    3    0    0  0.15251991243E+02  0.26481317469E+01  0.75814540747E+01  0.17237003358E+02  0.51100000000E-03 0. -1.
        -11    1    3    3    0    0  0.20972747667E+01  0.31563856088E+00  0.16007462089E+02  0.16147353713E+02  0.51100000000E-03 0.  1.
         12    1    3    3    0    0  0.11268003343E+02  0.27684595603E+01  0.85329820900E+01  0.14402918143E+02  0.00000000000E+00 0. -1.
</event>
<event>
 7    1  0.2751796E-010  0.4778726E+02  0.7816164E-02  0.1312668E+00
        -11   -1    0    0    0    0  0.00000000000E+00  0.00000000000E+00  0.45593999997E+02  0.45594000000E+02  0.51100000000E-03 0.  1.
         11   -1    0    0    0    0 -0.00000000000E+00 -0.00000000000E+00 -0.45593999997E+02  0.45594000000E+02  0.51100000000E-03 0. -1.
    9900012    2    1    2    0    0 -0.36760015595E+01  0.95365794791E+01  0.42180150671E+02  0.47787257538E+02  0.19999938420E+02 0.  0.
         12    1    1    2    0    0  0.36760015595E+01 -0.95365794791E+01 -0.42180150671E+02  0.43400742462E+02  0.00000000000E+00 0. -1.
         11    1    3    3    0    0 -0.47080245399E+01 -0.43717886418E+01  0.92156769695E+01  0.11234177018E+02  0.51100000000E-03 0. -1.
        -11    1    3    3    0    0 -0.31619607792E+01  0.74027849561E+01  0.17244589455E+02  0.19030898214E+02  0.51100000000E-03 0.  1.
         12    1    3    3    0    0  0.41939837596E+01  0.65055831648E+01  0.15719884246E+02  0.17522182307E+02  0.00000000000E+00 0. -1.
</event>
<event>
 7    1  0.2751796E-010  0.4778727E+02  0.7816164E-02  0.1312668E+00
        -11   -1    0    0    0    0  0.00000000000E+00  0.00000000000E+00  0.45593999997E+02  0.45594000000E+02  0.51100000000E-03 0. -1.
         11   -1    0    0    0    0 -0.00000000000E+00 -0.00000000000E+00 -0.45593999997E+02  0.45594000000E+02  0.51100000000E-03 0.  1.
    9900012    2    1    2    0    0 -0.88214394034E+01  0.25270239316E+02  0.34164606872E+02  0.47787272461E+02  0.20000006459E+02 0.  0.
         12    1    1    2    0    0  0.88214394034E+01 -0.25270239316E+02 -0.34164606872E+02  0.43400727539E+02  0.00000000000E+00 0. -1.
         11    1    3    3    0    0  0.14802372260E+01  0.11285742548E+01  0.16810631081E+00  0.18689681877E+01  0.51100000000E-03 0. -1.
        -11    1    3    3    0    0  0.37281364787E+01  0.32514348387E+01  0.99512160744E+01  0.11112944332E+02  0.51100000000E-03 0.  1.
        -12    1    3    3    0    0 -0.14029813108E+02  0.20890230222E+02  0.24045284486E+02  0.34805359941E+02  0.00000000000E+00 0.  1.
</event>
<event>
 7    1  0.2751796E-010  0.4778727E+02  0.7816164E-02  0.1312668E+00
        -11   -1    0    0    0    0  0.00000000000E+00  0.00000000000E+00  0.45593999997E+02  0.45594000000E+02  0.51100000000E-03 0. -1.
         11   -1    0    0    0    0 -0.00000000000E+00 -0.00000000000E+00 -0.45593999997E+02  0.45594000000E+02  0.51100000000E-03 0.  1.
    9900012    2    1    2    0    0 -0.22721733988E+02 -0.26394110871E+02 -0.25897827777E+02  0.47787265356E+02  0.19999974062E+02 0.  0.
         12    1    1    2    0    0  0.22721733988E+02  0.26394110871E+02  0.25897827777E+02  0.43400734644E+02  0.00000000000E+00 0. -1.
         11    1    3    3    0    0 -0.13480715016E+02 -0.20063973239E+02 -0.95826138563E+01  0.26002291977E+02  0.51100000000E-03 0. -1.
        -11    1    3    3    0    0 -0.58096043151E+01 -0.84293186444E+01 -0.10096131627E+02  0.14378344453E+02  0.51100000000E-03 0.  1.
         12    1    3    3    0    0 -0.34314146576E+01  0.20991810122E+01 -0.62190822938E+01  0.74066289262E+01  0.00000000000E+00 0. -1.
</event>
<event>
 7    1  0.2751796E-010  0.4778727E+02  0.7816164E-02  0.1312668E+00
        -11   -1    0    0    0    0  0.00000000000E+00  0.00000000000E+00  0.45593999997E+02  0.45594000000E+02  0.51100000000E-03 0.  1.
         11   -1    0    0    0    0 -0.00000000000E+00 -0.00000000000E+00 -0.45593999997E+02  0.45594000000E+02  0.51100000000E-03 0. -1.
    9900012    2    1    2    0    0  0.14123254935E+02  0.32494734876E+02  0.25064902924E+02  0.47787268632E+02  0.19999989003E+02 0.  0.
         12    1    1    2    0    0 -0.14123254935E+02 -0.32494734876E+02 -0.25064902924E+02  0.43400731368E+02  0.00000000000E+00 0. -1.
         11    1    3    3    0    0  0.24734199709E+01  0.22673102560E+02  0.11035114422E+02  0.25336952000E+02  0.51100000000E-03 0. -1.
        -11    1    3    3    0    0  0.11831725045E+02  0.63780315768E+01  0.84057578663E+01  0.15853257391E+02  0.51100000000E-03 0.  1.
         12    1    3    3    0    0 -0.18189008043E+00  0.34436007392E+01  0.56240306356E+01  0.65970592420E+01  0.00000000000E+00 0. -1.
</event>
<event>
 7    1  0.2751796E-010  0.4778727E+02  0.7816164E-02  0.1312668E+00
        -11   -1    0    0    0    0  0.00000000000E+00  0.00000000000E+00  0.45593999997E+02  0.45594000000E+02  0.51100000000E-03 0.  1.
         11   -1    0    0    0    0 -0.00000000000E+00 -0.00000000000E+00 -0.45593999997E+02  0.45594000000E+02  0.51100000000E-03 0. -1.
    9900012    2    1    2    0    0  0.43037443004E+02 -0.29350616243E+01  0.47735912558E+01  0.47787271198E+02  0.20000000701E+02 0.  0.
         12    1    1    2    0    0 -0.43037443004E+02  0.29350616243E+01 -0.47735912558E+01  0.43400728802E+02  0.00000000000E+00 0. -1.
         11    1    3    3    0    0  0.75182621639E+01  0.48546256587E+00  0.64529231419E+01  0.99196853379E+01  0.51100000000E-03 0.  1.
        -11    1    3    3    0    0  0.23924467066E+02  0.32082317614E+01 -0.34899433997E+01  0.24389599845E+02  0.51100000000E-03 0. -1.
        -12    1    3    3    0    0  0.11594713774E+02 -0.66287559516E+01  0.18106115135E+01  0.13477986015E+02  0.00000000000E+00 0.  1.
</event>
<event>
 7    1  0.2751796E-010  0.4778728E+02  0.7816164E-02  0.1312668E+00
        -11   -1    0    0    0    0  0.00000000000E+00  0.00000000000E+00  0.45593999997E+02  0.45594000000E+02  0.51100000000E-03 0. -1.
         11   -1    0    0    0    0 -0.00000000000E+00 -0.00000000000E+00 -0.45593999997E+02  0.45594000000E+02  0.51100000000E-03 0.  1.
    9900012    2    1    2    0    0 -0.21143614285E+02  0.31453378516E+02 -0.21148413063E+02  0.47787276271E+02  0.20000023832E+02 0.  0.
         12    1    1    2    0    0  0.21143614285E+02 -0.31453378516E+02  0.21148413063E+02  0.43400723729E+02  0.00000000000E+00 0. -1.
         11    1    3    3    0    0 -0.10686037884E+02  0.13293696541E+02 -0.75193041128E+01  0.18640110192E+02  0.51100000000E-03 0. -1.
        -11    1    3    3    0    0 -0.24566540550E+01 -0.24361634870E+01 -0.32057209380E+01  0.47166395533E+01  0.51100000000E-03 0.  1.
        -12    1    3    3    0    0 -0.80009223460E+01  0.20595845462E+02 -0.10423388012E+02  0.24430526526E+02  0.00000000000E+00 0.  1.
</event>
<event>
 7    1  0.2751796E-010  0.4778727E+02  0.7816164E-02  0.1312668E+00
        -11   -1    0    0    0    0  0.00000000000E+00  0.00000000000E+00  0.45593999997E+02  0.45594000000E+02  0.51100000000E-03 0.  1.
         11   -1    0    0    0    0 -0.00000000000E+00 -0.00000000000E+00 -0.45593999997E+02  0.45594000000E+02  0.51100000000E-03 0. -1.
    9900012    2    1    2    0    0  0.38130139832E+02 -0.55019647919E+01  0.19986094676E+02  0.47787272350E+02  0.20000005951E+02 0.  0.
         12    1    1    2    0    0 -0.38130139832E+02  0.55019647919E+01 -0.19986094676E+02  0.43400727650E+02  0.00000000000E+00 0. -1.
         11    1    3    3    0    0  0.24788351523E+02 -0.68738277261E+01  0.22132008289E+02  0.33934314049E+02  0.51100000000E-03 0.  1.
        -11    1    3    3    0    0  0.12300417607E+02  0.13806062990E+01 -0.27067225836E+01  0.12670149741E+02  0.51100000000E-03 0. -1.
         12    1    3    3    0    0  0.10413707021E+01 -0.87433648495E-02  0.56080897128E+00  0.11828085592E+01  0.00000000000E+00 0. -1.
</event>
<event>
 7    1  0.2751796E-010  0.4778726E+02  0.7816164E-02  0.1312668E+00
        -11   -1    0    0    0    0  0.00000000000E+00  0.00000000000E+00  0.45593999997E+02  0.45594000000E+02  0.51100000000E-03 0.  1.
         11   -1    0    0    0    0 -0.00000000000E+00 -0.00000000000E+00 -0.45593999997E+02  0.45594000000E+02  0.51100000000E-03 0. -1.
    9900012    2    1    2    0    0  0.92367084570E+01  0.40966271970E+02  0.10957731853E+02  0.47787261417E+02  0.19999956104E+02 0.  0.
         12    1    1    2    0    0 -0.92367084570E+01 -0.40966271970E+02 -0.10957731853E+02  0.43400738583E+02  0.00000000000E+00 0. -1.
         11    1    3    3    0    0 -0.12241750433E+01  0.41166339342E+01 -0.63878232461E+00  0.43420412947E+01  0.51100000000E-03 0. -1.
        -11    1    3    3    0    0  0.57516138592E+00 -0.17723827534E+01 -0.18802448201E+00  0.18728333379E+01  0.51100000000E-03 0.  1.
        -12    1    3    3    0    0  0.98857221144E+01  0.38622020789E+02  0.11784538659E+02  0.41572386784E+02  0.00000000000E+00 0.  1.
</event>
<event>
 7    1  0.2751796E-010  0.4778727E+02  0.7816164E-02  0.1312668E+00
        -11   -1    0    0    0    0  0.00000000000E+00  0.00000000000E+00  0.45593999997E+02  0.45594000000E+02  0.51100000000E-03 0.  1.
         11   -1    0    0    0    0 -0.00000000000E+00 -0.00000000000E+00 -0.45593999997E+02  0.45594000000E+02  0.51100000000E-03 0. -1.
    9900012    2    1    2    0    0  0.26786274621E+02 -0.25959915196E+02  0.22185611419E+02  0.47787273519E+02  0.20000011280E+02 0.  0.
         12    1    1    2    0    0 -0.26786274621E+02  0.25959915196E+02 -0.22185611419E+02  0.43400726481E+02  0.00000000000E+00 0. -1.
         11    1    3    3    0    0  0.73455710276E+01  0.10656237579E+01  0.96653656087E+01  0.12186560644E+02  0.51100000000E-03 0. -1.
        -11    1    3    3    0    0  0.84021966039E+01 -0.12312152668E+02  0.63147489867E+01  0.16188331171E+02  0.51100000000E-03 0.  1.
         12    1    3    3    0    0  0.11038506990E+02 -0.14713386286E+02  0.62054968239E+01  0.19412381703E+02  0.00000000000E+00 0. -1.
</event>
<event>
 7    1  0.2751796E-010  0.4778727E+02  0.7816164E-02  0.1312668E+00
        -11   -1    0    0    0    0  0.00000000000E+00  0.00000000000E+00  0.45593999997E+02  0.45594000000E+02  0.51100000000E-03 0.  1.
         11   -1    0    0    0    0 -0.00000000000E+00 -0.00000000000E+00 -0.45593999997E+02  0.45594000000E+02  0.51100000000E-03 0. -1.
    9900012    2    1    2    0    0 -0.33946076207E+02  0.25736039983E+02  0.83032151177E+01  0.47787271606E+02  0.20000002562E+02 0.  0.
         12    1    1    2    0    0  0.33946076207E+02 -0.25736039983E+02 -0.83032151177E+01  0.43400728394E+02  0.00000000000E+00 0. -1.
         11    1    3    3    0    0 -0.51294452005E+01  0.86131823558E+01  0.24324437106E-01  0.10024904503E+02  0.51100000000E-03 0. -1.
        -11    1    3    3    0    0 -0.16007727209E+02  0.10562077142E+02  0.12344534206E+02  0.22807725204E+02  0.51100000000E-03 0.  1.
        -12    1    3    3    0    0 -0.12808903797E+02  0.65607804848E+01 -0.40656435255E+01  0.14954641899E+02  0.00000000000E+00 0.  1.
</event>
<event>
 7    1  0.2751796E-010  0.4778727E+02  0.7816164E-02  0.1312668E+00
        -11   -1    0    0    0    0  0.00000000000E+00  0.00000000000E+00  0.45593999997E+02  0.45594000000E+02  0.51100000000E-03 0.  1.
         11   -1    0    0    0    0 -0.00000000000E+00 -0.00000000000E+00 -0.45593999997E+02  0.45594000000E+02  0.51100000000E-03 0. -1.
    9900012    2    1    2    0    0 -0.12502305146E+02  0.25269917354E+02  0.32996162468E+02  0.47787273109E+02  0.20000009415E+02 0.  0.
         12    1    1    2    0    0  0.12502305146E+02 -0.25269917354E+02 -0.32996162468E+02  0.43400726891E+02  0.00000000000E+00 0. -1.
         11    1    3    3    0    0 -0.70808974940E+01  0.18364997934E+02  0.10769237889E+02  0.22436326424E+02  0.51100000000E-03 0. -1.
        -11    1    3    3    0    0 -0.23073811846E+01  0.78134107748E+01  0.11152971114E+02  0.13811667561E+02  0.51100000000E-03 0.  1.
         12    1    3    3    0    0 -0.31140264677E+01 -0.90849135522E+00  0.11073953465E+02  0.11539279125E+02  0.00000000000E+00 0. -1.
</event>
<event>
 7    1  0.2751796E-010  0.4778727E+02  0.7816164E-02  0.1312668E+00
        -11   -1    0    0    0    0  0.00000000000E+00  0.00000000000E+00  0.45593999997E+02  0.45594000000E+02  0.51100000000E-03 0.  1.
         11   -1    0    0    0    0 -0.00000000000E+00 -0.00000000000E+00 -0.45593999997E+02  0.45594000000E+02  0.51100000000E-03 0. -1.
    9900012    2    1    2    0    0  0.98136715982E+01  0.70915088393E+01  0.41677641684E+02  0.47787268852E+02  0.19999990004E+02 0.  0.
         12    1    1    2    0    0 -0.98136715982E+01 -0.70915088393E+01 -0.41677641684E+02  0.43400731148E+02  0.00000000000E+00 0. -1.
         11    1    3    3    0    0  0.16185987759E+01  0.83424069325E+01  0.12313980380E+02  0.14961608486E+02  0.51100000000E-03 0. -1.
        -11    1    3    3    0    0  0.27268989983E+01  0.45377597494E+01  0.19186131222E+02  0.19903137271E+02  0.51100000000E-03 0.  1.
         12    1    3    3    0    0  0.54681738240E+01 -0.57886578427E+01  0.10177530082E+02  0.12922523096E+02  0.00000000000E+00 0. -1.
</event>
<event>
 7    1  0.2751796E-010  0.4778727E+02  0.7816164E-02  0.1312668E+00
        -11   -1    0    0    0    0  0.00000000000E+00  0.00000000000E+00  0.45593999997E+02  0.45594000000E+02  0.51100000000E-03 0. -1.
         11   -1    0    0    0    0 -0.00000000000E+00 -0.00000000000E+00 -0.45593999997E+02  0.45594000000E+02  0.51100000000E-03 0.  1.
    9900012    2    1    2    0    0 -0.16765215408E+02  0.37336497536E+02 -0.14440795232E+02  0.47787273475E+02  0.20000011084E+02 0.  0.
         12    1    1    2    0    0  0.16765215408E+02 -0.37336497536E+02  0.14440795232E+02  0.43400726525E+02  0.00000000000E+00 0. -1.
         11    1    3    3    0    0 -0.12725554463E+02  0.15869521670E+02  0.46121409273E+00  0.20346846762E+02  0.51100000000E-03 0. -1.
        -11    1    3    3    0    0 -0.46655021442E+01  0.82110228973E+01 -0.85015925586E+01  0.12706883315E+02  0.51100000000E-03 0.  1.
         12    1    3    3    0    0  0.62584120005E+00  0.13255952969E+02 -0.64004167661E+01  0.14733543399E+02  0.00000000000E+00 0. -1.
</event>
<event>
 7    1  0.2751796E-010  0.4778727E+02  0.7816164E-02  0.1312668E+00
        -11   -1    0    0    0    0  0.00000000000E+00  0.00000000000E+00  0.45593999997E+02  0.45594000000E+02  0.51100000000E-03 0.  1.
         11   -1    0    0    0    0 -0.00000000000E+00 -0.00000000000E+00 -0.45593999997E+02  0.45594000000E+02  0.51100000000E-03 0. -1.
    9900012    2    1    2    0    0 -0.30837616156E+02  0.15629291762E+02  0.26237186268E+02  0.47787271038E+02  0.19999999970E+02 0.  0.
         12    1    1    2    0    0  0.30837616156E+02 -0.15629291762E+02 -0.26237186268E+02  0.43400728962E+02  0.00000000000E+00 0. -1.
         11    1    3    3    0    0 -0.28560365087E+01 -0.27467251663E+01  0.44129015590E+00  0.39870014975E+01  0.51100000000E-03 0. -1.
        -11    1    3    3    0    0 -0.20152618356E+02  0.14075582668E+02  0.11972615829E+02  0.27342157635E+02  0.51100000000E-03 0.  1.
        -12    1    3    3    0    0 -0.78289612914E+01  0.43004342597E+01  0.13823280283E+02  0.16458111906E+02  0.00000000000E+00 0.  1.
</event>
<event>
 7    1  0.2751796E-010  0.4778728E+02  0.7816164E-02  0.1312668E+00
        -11   -1    0    0    0    0  0.00000000000E+00  0.00000000000E+00  0.45593999997E+02  0.45594000000E+02  0.51100000000E-03 0.  1.
         11   -1    0    0    0    0 -0.00000000000E+00 -0.00000000000E+00 -0.45593999997E+02  0.45594000000E+02  0.51100000000E-03 0. -1.
    9900012    2    1    2    0    0 -0.40854867223E+02  0.30512501243E+01  0.14324540441E+02  0.47787276941E+02  0.20000026886E+02 0.  0.
         12    1    1    2    0    0  0.40854867223E+02 -0.30512501243E+01 -0.14324540441E+02  0.43400723059E+02  0.00000000000E+00 0. -1.
         11    1    3    3    0    0 -0.17184192116E+02  0.10307975456E+02  0.32975669861E+01  0.20308243769E+02  0.51100000000E-03 0. -1.
        -11    1    3    3    0    0 -0.15255711547E+02 -0.33047919422E+01  0.88002553149E+01  0.17919343695E+02  0.51100000000E-03 0.  1.
         12    1    3    3    0    0 -0.84149635599E+01 -0.39519333892E+01  0.22267181404E+01  0.95596894774E+01  0.00000000000E+00 0. -1.
</event>
<event>
 7    1  0.2751796E-010  0.4778727E+02  0.7816164E-02  0.1312668E+00
        -11   -1    0    0    0    0  0.00000000000E+00  0.00000000000E+00  0.45593999997E+02  0.45594000000E+02  0.51100000000E-03 0. -1.
         11   -1    0    0    0    0 -0.00000000000E+00 -0.00000000000E+00 -0.45593999997E+02  0.45594000000E+02  0.51100000000E-03 0.  1.
    9900012    2    1    2    0    0 -0.25953074291E+02 -0.21799961637E+02 -0.27107622125E+02  0.47787267635E+02  0.19999984456E+02 0.  0.
         12    1    1    2    0    0  0.25953074291E+02  0.21799961637E+02  0.27107622125E+02  0.43400732365E+02  0.00000000000E+00 0. -1.
         11    1    3    3    0    0 -0.26715940129E+01 -0.68267231328E+01 -0.23060212675E+00  0.73344898189E+01  0.51100000000E-03 0. -1.
        -11    1    3    3    0    0 -0.23469187563E+02 -0.14258814579E+02 -0.27928470953E+02  0.39167793506E+02  0.51100000000E-03 0.  1.
        -12    1    3    3    0    0  0.18770728509E+00 -0.71442392489E+00  0.10514509545E+01  0.12849843108E+01  0.00000000000E+00 0.  1.
</event>
<event>
 7    1  0.2751796E-010  0.4778727E+02  0.7816164E-02  0.1312668E+00
        -11   -1    0    0    0    0  0.00000000000E+00  0.00000000000E+00  0.45593999997E+02  0.45594000000E+02  0.51100000000E-03 0. -1.
         11   -1    0    0    0    0 -0.00000000000E+00 -0.00000000000E+00 -0.45593999997E+02  0.45594000000E+02  0.51100000000E-03 0.  1.
    9900012    2    1    2    0    0 -0.13645921427E+02 -0.82720668239E+01 -0.40360682758E+02  0.47787274501E+02  0.20000015761E+02 0.  0.
         12    1    1    2    0    0  0.13645921427E+02  0.82720668239E+01  0.40360682758E+02  0.43400725499E+02  0.00000000000E+00 0. -1.
         11    1    3    3    0    0 -0.10609545282E+02 -0.63638428644E+01 -0.31749030181E+02  0.34074357878E+02  0.51100000000E-03 0. -1.
        -11    1    3    3    0    0 -0.39647628642E+01 -0.36169079982E+01 -0.52108163806E+00  0.53919286319E+01  0.51100000000E-03 0.  1.
         12    1    3    3    0    0  0.92838671849E+00  0.17086840387E+01 -0.80905709385E+01  0.83209879914E+01  0.00000000000E+00 0. -1.
</event>
<event>
 7    1  0.2751796E-010  0.4778726E+02  0.7816164E-02  0.1312668E+00
        -11   -1    0    0    0    0  0.00000000000E+00  0.00000000000E+00  0.45593999997E+02  0.45594000000E+02  0.51100000000E-03 0. -1.
         11   -1    0    0    0    0 -0.00000000000E+00 -0.00000000000E+00 -0.45593999997E+02  0.45594000000E+02  0.51100000000E-03 0.  1.
    9900012    2    1    2    0    0 -0.33239611765E+02 -0.18660732534E+02 -0.20749211671E+02  0.47787256758E+02  0.19999934860E+02 0.  0.
         12    1    1    2    0    0  0.33239611765E+02  0.18660732534E+02  0.20749211671E+02  0.43400743242E+02  0.00000000000E+00 0. -1.
         11    1    3    3    0    0 -0.12478014733E+02 -0.32507714495E+01 -0.56995611691E+01  0.14097991505E+02  0.51100000000E-03 0. -1.
        -11    1    3    3    0    0 -0.17714467807E+01  0.13872968303E+01  0.21023652519E+01  0.30793759280E+01  0.51100000000E-03 0.  1.
        -12    1    3    3    0    0 -0.18990150252E+02 -0.16797257915E+02 -0.17152015753E+02  0.30609889324E+02  0.00000000000E+00 0.  1.
</event>
<event>
 7    1  0.2751796E-010  0.4778727E+02  0.7816164E-02  0.1312668E+00
        -11   -1    0    0    0    0  0.00000000000E+00  0.00000000000E+00  0.45593999997E+02  0.45594000000E+02  0.51100000000E-03 0.  1.
         11   -1    0    0    0    0 -0.00000000000E+00 -0.00000000000E+00 -0.45593999997E+02  0.45594000000E+02  0.51100000000E-03 0. -1.
    9900012    2    1    2    0    0 -0.74061798455E+01 -0.39710973075E+02  0.15868536035E+02  0.47787270532E+02  0.19999997662E+02 0.  0.
         12    1    1    2    0    0  0.74061798455E+01  0.39710973075E+02 -0.15868536035E+02  0.43400729468E+02  0.00000000000E+00 0. -1.
         11    1    3    3    0    0 -0.64276737007E+01 -0.97478135047E+01 -0.98865068964E+00  0.11718032590E+02  0.51100000000E-03 0. -1.
        -11    1    3    3    0    0  0.29373847719E+01 -0.25962653834E+02  0.15214143234E+02  0.30235042219E+02  0.51100000000E-03 0.  1.
        -12    1    3    3    0    0 -0.39158909167E+01 -0.40005057363E+01  0.16430434910E+01  0.58341957227E+01  0.00000000000E+00 0.  1.
</event>
<event>
 7    1  0.2751796E-010  0.4778727E+02  0.7816164E-02  0.1312668E+00
        -11   -1    0    0    0    0  0.00000000000E+00  0.00000000000E+00  0.45593999997E+02  0.45594000000E+02  0.51100000000E-03 0.  1.
         11   -1    0    0    0    0 -0.00000000000E+00 -0.00000000000E+00 -0.45593999997E+02  0.45594000000E+02  0.51100000000E-03 0. -1.
    9900012    2    1    2    0    0 -0.30713513304E+02  0.21091638403E+02  0.22258625300E+02  0.47787268321E+02  0.19999987585E+02 0.  0.
         12    1    1    2    0    0  0.30713513304E+02 -0.21091638403E+02 -0.22258625300E+02  0.43400731679E+02  0.00000000000E+00 0. -1.
         11    1    3    3    0    0 -0.12636876795E+02  0.67296993800E+00  0.13574302176E+02  0.18558157869E+02  0.51100000000E-03 0. -1.
        -11    1    3    3    0    0 -0.15120659781E+02  0.13105472941E+02  0.58493903926E+01  0.20847137488E+02  0.51100000000E-03 0.  1.
         12    1    3    3    0    0 -0.29559767284E+01  0.73131955233E+01  0.28349327309E+01  0.83819729641E+01  0.00000000000E+00 0. -1.
</event>
<event>
 7    1  0.2751796E-010  0.4778727E+02  0.7816164E-02  0.1312668E+00
        -11   -1    0    0    0    0  0.00000000000E+00  0.00000000000E+00  0.45593999997E+02  0.45594000000E+02  0.51100000000E-03 0. -1.
         11   -1    0    0    0    0 -0.00000000000E+00 -0.00000000000E+00 -0.45593999997E+02  0.45594000000E+02  0.51100000000E-03 0.  1.
    9900012    2    1    2    0    0  0.16263386133E+02 -0.21958930776E+02 -0.33718409343E+02  0.47787268463E+02  0.19999988230E+02 0.  0.
         12    1    1    2    0    0 -0.16263386133E+02  0.21958930776E+02  0.33718409343E+02  0.43400731537E+02  0.00000000000E+00 0. -1.
         11    1    3    3    0    0  0.10237517964E+02 -0.23449614234E+01 -0.18771847729E+02  0.21510180975E+02  0.51100000000E-03 0. -1.
        -11    1    3    3    0    0  0.52113046186E+01 -0.15577330632E+02 -0.14872266396E+02  0.22158412251E+02  0.51100000000E-03 0.  1.
         12    1    3    3    0    0  0.81456355003E+00 -0.40366387200E+01 -0.74295218077E-01  0.41186752376E+01  0.00000000000E+00 0. -1.
</event>
<event>
 7    1  0.2751796E-010  0.4778727E+02  0.7816164E-02  0.1312668E+00
        -11   -1    0    0    0    0  0.00000000000E+00  0.00000000000E+00  0.45593999997E+02  0.45594000000E+02  0.51100000000E-03 0.  1.
         11   -1    0    0    0    0 -0.00000000000E+00 -0.00000000000E+00 -0.45593999997E+02  0.45594000000E+02  0.51100000000E-03 0. -1.
    9900012    2    1    2    0    0 -0.12516147635E+02  0.37459156166E+02 -0.17993908058E+02  0.47787273514E+02  0.20000011259E+02 0.  0.
         12    1    1    2    0    0  0.12516147635E+02 -0.37459156166E+02  0.17993908058E+02  0.43400726486E+02  0.00000000000E+00 0. -1.
         11    1    3    3    0    0  0.34199377073E+01  0.40483575569E+01 -0.25870982219E+01  0.58973087338E+01  0.51100000000E-03 0. -1.
        -11    1    3    3    0    0 -0.13045810236E+02  0.24403330784E+02 -0.55395140190E+01  0.28220594145E+02  0.51100000000E-03 0.  1.
        -12    1    3    3    0    0 -0.28902751065E+01  0.90074678255E+01 -0.98672958174E+01  0.13669370635E+02  0.00000000000E+00 0.  1.
</event>
<event>
 7    1  0.2751796E-010  0.4778727E+02  0.7816164E-02  0.1312668E+00
        -11   -1    0    0    0    0  0.00000000000E+00  0.00000000000E+00  0.45593999997E+02  0.45594000000E+02  0.51100000000E-03 0.  1.
         11   -1    0    0    0    0 -0.00000000000E+00 -0.00000000000E+00 -0.45593999997E+02  0.45594000000E+02  0.51100000000E-03 0. -1.
    9900012    2    1    2    0    0  0.37955657531E+02  0.16529211949E+02  0.13029833295E+02  0.47787270260E+02  0.19999996422E+02 0.  0.
         12    1    1    2    0    0 -0.37955657531E+02 -0.16529211949E+02 -0.13029833295E+02  0.43400729740E+02  0.00000000000E+00 0. -1.
         11    1    3    3    0    0  0.26172804200E+02  0.12069074576E+02  0.13712094305E+02  0.31917076484E+02  0.51100000000E-03 0. -1.
        -11    1    3    3    0    0  0.11951157793E+02  0.54384211586E+01  0.17468746434E+01  0.13246062380E+02  0.51100000000E-03 0.  1.
         12    1    3    3    0    0 -0.16830446212E+00 -0.97828378594E+00 -0.24291356530E+01  0.26241313950E+01  0.00000000000E+00 0. -1.
</event>
<event>
 7    1  0.2751796E-010  0.4778727E+02  0.7816164E-02  0.1312668E+00
        -11   -1    0    0    0    0  0.00000000000E+00  0.00000000000E+00  0.45593999997E+02  0.45594000000E+02  0.51100000000E-03 0. -1.
         11   -1    0    0    0    0 -0.00000000000E+00 -0.00000000000E+00 -0.45593999997E+02  0.45594000000E+02  0.51100000000E-03 0.  1.
    9900012    2    1    2    0    0 -0.22616253001E+02 -0.36522860960E+02  0.61813306234E+01  0.47787272808E+02  0.20000008041E+02 0.  0.
         12    1    1    2    0    0  0.22616253001E+02  0.36522860960E+02 -0.61813306234E+01  0.43400727192E+02  0.00000000000E+00 0. -1.
         11    1    3    3    0    0 -0.84717397180E+01 -0.48757682076E+01 -0.23951681117E+01  0.10063812399E+02  0.51100000000E-03 0.  1.
        -11    1    3    3    0    0 -0.16290752516E+01 -0.16170071481E+02  0.71892220176E+01  0.17771044183E+02  0.51100000000E-03 0. -1.
        -12    1    3    3    0    0 -0.12515438031E+02 -0.15477021272E+02  0.13872767174E+01  0.19952416226E+02  0.00000000000E+00 0.  1.
</event>
<event>
 7    1  0.2751796E-010  0.4778728E+02  0.7816164E-02  0.1312668E+00
        -11   -1    0    0    0    0  0.00000000000E+00  0.00000000000E+00  0.45593999997E+02  0.45594000000E+02  0.51100000000E-03 0. -1.
         11   -1    0    0    0    0 -0.00000000000E+00 -0.00000000000E+00 -0.45593999997E+02  0.45594000000E+02  0.51100000000E-03 0.  1.
    9900012    2    1    2    0    0 -0.15556748302E+02  0.39024137637E+02 -0.10896200489E+02  0.47787275108E+02  0.20000018528E+02 0.  0.
         12    1    1    2    0    0  0.15556748302E+02 -0.39024137637E+02  0.10896200489E+02  0.43400724892E+02  0.00000000000E+00 0. -1.
         11    1    3    3    0    0 -0.77192011841E+01  0.27178469232E+02 -0.14286859437E+02  0.31660221249E+02  0.51100000000E-03 0. -1.
        -11    1    3    3    0    0 -0.69065668743E+01  0.10591633230E+02  0.52566964675E+01  0.13693656140E+02  0.51100000000E-03 0.  1.
        -12    1    3    3    0    0 -0.93098024371E+00  0.12540351754E+01 -0.18660375195E+01  0.24333977191E+01  0.00000000000E+00 0.  1.
</event>
<event>
 7    1  0.2751796E-010  0.4778727E+02  0.7816164E-02  0.1312668E+00
        -11   -1    0    0    0    0  0.00000000000E+00  0.00000000000E+00  0.45593999997E+02  0.45594000000E+02  0.51100000000E-03 0.  1.
         11   -1    0    0    0    0 -0.00000000000E+00 -0.00000000000E+00 -0.45593999997E+02  0.45594000000E+02  0.51100000000E-03 0. -1.
    9900012    2    1    2    0    0  0.22565643547E+02  0.30357218186E+02  0.21280373785E+02  0.47787271053E+02  0.20000000041E+02 0.  0.
         12    1    1    2    0    0 -0.22565643547E+02 -0.30357218186E+02 -0.21280373785E+02  0.43400728947E+02  0.00000000000E+00 0. -1.
         11    1    3    3    0    0  0.91877134378E+01  0.13668882999E+02  0.17905606511E+00  0.16470716499E+02  0.51100000000E-03 0. -1.
        -11    1    3    3    0    0  0.58462853230E+01  0.13942036866E+02  0.13474194276E+02  0.20251255657E+02  0.51100000000E-03 0.  1.
         12    1    3    3    0    0  0.75316447859E+01  0.27462983208E+01  0.76271234439E+01  0.11065298897E+02  0.00000000000E+00 0. -1.
</event>
<event>
 7    1  0.2751796E-010  0.4778727E+02  0.7816164E-02  0.1312668E+00
        -11   -1    0    0    0    0  0.00000000000E+00  0.00000000000E+00  0.45593999997E+02  0.45594000000E+02  0.51100000000E-03 0. -1.
         11   -1    0    0    0    0 -0.00000000000E+00 -0.00000000000E+00 -0.45593999997E+02  0.45594000000E+02  0.51100000000E-03 0.  1.
    9900012    2    1    2    0    0  0.81257201346E+00 -0.41950034751E+02 -0.11097635048E+02  0.47787271981E+02  0.20000004271E+02 0.  0.
         12    1    1    2    0    0 -0.81257201346E+00  0.41950034751E+02  0.11097635048E+02  0.43400728019E+02  0.00000000000E+00 0. -1.
         11    1    3    3    0    0  0.15111762317E+01 -0.10196650595E+01 -0.30424714534E+01  0.35468300273E+01  0.51100000000E-03 0. -1.
        -11    1    3    3    0    0 -0.58736580744E+01 -0.35547146213E+02 -0.64316659423E+01  0.36598712957E+02  0.51100000000E-03 0.  1.
        -12    1    3    3    0    0  0.51750538562E+01 -0.53832234788E+01 -0.16234976519E+01  0.76417289969E+01  0.00000000000E+00 0.  1.
</event>
<event>
 7    1  0.2751796E-010  0.4778727E+02  0.7816164E-02  0.1312668E+00
        -11   -1    0    0    0    0  0.00000000000E+00  0.00000000000E+00  0.45593999997E+02  0.45594000000E+02  0.51100000000E-03 0.  1.
         11   -1    0    0    0    0 -0.00000000000E+00 -0.00000000000E+00 -0.45593999997E+02  0.45594000000E+02  0.51100000000E-03 0. -1.
    9900012    2    1    2    0    0 -0.16096457103E+01 -0.10305750588E+02  0.42128658165E+02  0.47787270821E+02  0.19999998981E+02 0.  0.
         12    1    1    2    0    0  0.16096457103E+01  0.10305750588E+02 -0.42128658165E+02  0.43400729179E+02  0.00000000000E+00 0. -1.
         11    1    3    3    0    0 -0.62841564043E+01 -0.37699607405E+00  0.10100885848E+02  0.11902127664E+02  0.51100000000E-03 0. -1.
        -11    1    3    3    0    0  0.49985527311E+01 -0.11088010221E+02  0.32414197618E+02  0.34620943192E+02  0.51100000000E-03 0.  1.
        -12    1    3    3    0    0 -0.32404203708E+00  0.11592557072E+01 -0.38642530117E+00  0.12641999644E+01  0.00000000000E+00 0.  1.
</event>
<event>
 7    1  0.2751796E-010  0.4778728E+02  0.7816164E-02  0.1312668E+00
        -11   -1    0    0    0    0  0.00000000000E+00  0.00000000000E+00  0.45593999997E+02  0.45594000000E+02  0.51100000000E-03 0.  1.
         11   -1    0    0    0    0 -0.00000000000E+00 -0.00000000000E+00 -0.45593999997E+02  0.45594000000E+02  0.51100000000E-03 0. -1.
    9900012    2    1    2    0    0  0.19560609450E+02 -0.25889673416E+02  0.28822387852E+02  0.47787277965E+02  0.20000031554E+02 0.  0.
         12    1    1    2    0    0 -0.19560609450E+02  0.25889673416E+02 -0.28822387852E+02  0.43400722035E+02  0.00000000000E+00 0. -1.
         11    1    3    3    0    0  0.64661481815E+01 -0.49211976246E+01 -0.83433954435E+00  0.81685605281E+01  0.51100000000E-03 0. -1.
        -11    1    3    3    0    0  0.41502640401E+01 -0.14616452578E+02  0.15451453964E+02  0.21670551618E+02  0.51100000000E-03 0.  1.
        -12    1    3    3    0    0  0.89441972287E+01 -0.63520232138E+01  0.14205273433E+02  0.17948165819E+02  0.00000000000E+00 0.  1.
</event>
<event>
 7    1  0.2751796E-010  0.4778727E+02  0.7816164E-02  0.1312668E+00
        -11   -1    0    0    0    0  0.00000000000E+00  0.00000000000E+00  0.45593999997E+02  0.45594000000E+02  0.51100000000E-03 0.  1.
         11   -1    0    0    0    0 -0.00000000000E+00 -0.00000000000E+00 -0.45593999997E+02  0.45594000000E+02  0.51100000000E-03 0. -1.
    9900012    2    1    2    0    0 -0.11141254753E+02 -0.13855728776E+02  0.39591846419E+02  0.47787273275E+02  0.20000010171E+02 0.  0.
         12    1    1    2    0    0  0.11141254753E+02  0.13855728776E+02 -0.39591846419E+02  0.43400726725E+02  0.00000000000E+00 0. -1.
         11    1    3    3    0    0 -0.32477990443E+01 -0.11045580047E+02  0.11113673578E+02  0.16002086673E+02  0.51100000000E-03 0. -1.
        -11    1    3    3    0    0 -0.37284504874E+01  0.43630966518E+01  0.13370759056E+02  0.14550434819E+02  0.51100000000E-03 0.  1.
        -12    1    3    3    0    0 -0.41650052211E+01 -0.71732453804E+01  0.15107413784E+02  0.17234751783E+02  0.00000000000E+00 0.  1.
</event>
<event>
 7    1  0.2751796E-010  0.4778727E+02  0.7816164E-02  0.1312668E+00
        -11   -1    0    0    0    0  0.00000000000E+00  0.00000000000E+00  0.45593999997E+02  0.45594000000E+02  0.51100000000E-03 0. -1.
         11   -1    0    0    0    0 -0.00000000000E+00 -0.00000000000E+00 -0.45593999997E+02  0.45594000000E+02  0.51100000000E-03 0.  1.
    9900012    2    1    2    0    0  0.17593245906E+02  0.35246242323E+02 -0.18215468669E+02  0.47787271915E+02  0.20000003971E+02 0.  0.
         12    1    1    2    0    0 -0.17593245906E+02 -0.35246242323E+02  0.18215468669E+02  0.43400728085E+02  0.00000000000E+00 0. -1.
         11    1    3    3    0    0  0.16863742828E+01  0.14488529883E+02 -0.96416348860E+01  0.17484921502E+02  0.51100000000E-03 0. -1.
        -11    1    3    3    0    0  0.17857836974E+02  0.18747842888E+02 -0.61832303633E+01  0.26619847715E+02  0.51100000000E-03 0.  1.
        -12    1    3    3    0    0 -0.19509653506E+01  0.20098695524E+01 -0.23906034201E+01  0.36825026992E+01  0.00000000000E+00 0.  1.
</event>
<event>
 7    1  0.2751796E-010  0.4778727E+02  0.7816164E-02  0.1312668E+00
        -11   -1    0    0    0    0  0.00000000000E+00  0.00000000000E+00  0.45593999997E+02  0.45594000000E+02  0.51100000000E-03 0.  1.
         11   -1    0    0    0    0 -0.00000000000E+00 -0.00000000000E+00 -0.45593999997E+02  0.45594000000E+02  0.51100000000E-03 0. -1.
    9900012    2    1    2    0    0 -0.23526489086E+02  0.26012628227E+02  0.25563075186E+02  0.47787270410E+02  0.19999997106E+02 0.  0.
         12    1    1    2    0    0  0.23526489086E+02 -0.26012628227E+02 -0.25563075186E+02  0.43400729590E+02  0.00000000000E+00 0. -1.
         11    1    3    3    0    0  0.51598725361E-01 -0.74094391174E+00 -0.12865890988E+01  0.14855881257E+01  0.51100000000E-03 0. -1.
        -11    1    3    3    0    0 -0.12502988109E+02  0.22568456169E+02  0.19800227999E+02  0.32522437710E+02  0.51100000000E-03 0.  1.
        -12    1    3    3    0    0 -0.11075099702E+02  0.41851159703E+01  0.70494362857E+01  0.13779244574E+02  0.00000000000E+00 0.  1.
</event>
<event>
 7    1  0.2751796E-010  0.4778727E+02  0.7816164E-02  0.1312668E+00
        -11   -1    0    0    0    0  0.00000000000E+00  0.00000000000E+00  0.45593999997E+02  0.45594000000E+02  0.51100000000E-03 0. -1.
         11   -1    0    0    0    0 -0.00000000000E+00 -0.00000000000E+00 -0.45593999997E+02  0.45594000000E+02  0.51100000000E-03 0.  1.
    9900012    2    1    2    0    0  0.27965862733E+02 -0.25222127050E+02 -0.21572627728E+02  0.47787269149E+02  0.19999991356E+02 0.  0.
         12    1    1    2    0    0 -0.27965862733E+02  0.25222127050E+02  0.21572627728E+02  0.43400730851E+02  0.00000000000E+00 0. -1.
         11    1    3    3    0    0  0.81004873344E+01 -0.27292188142E+01  0.17936220267E+01  0.87340489251E+01  0.51100000000E-03 0. -1.
        -11    1    3    3    0    0  0.15324065416E+01 -0.54288131609E+00 -0.45185935896E+01  0.48021534983E+01  0.51100000000E-03 0.  1.
         12    1    3    3    0    0  0.18332968857E+02 -0.21950026919E+02 -0.18847656166E+02  0.34251066725E+02  0.00000000000E+00 0. -1.
</event>
<event>
 7    1  0.2751796E-010  0.4778727E+02  0.7816164E-02  0.1312668E+00
        -11   -1    0    0    0    0  0.00000000000E+00  0.00000000000E+00  0.45593999997E+02  0.45594000000E+02  0.51100000000E-03 0.  1.
         11   -1    0    0    0    0 -0.00000000000E+00 -0.00000000000E+00 -0.45593999997E+02  0.45594000000E+02  0.51100000000E-03 0. -1.
    9900012    2    1    2    0    0  0.41133168564E+02  0.13833173709E+02 -0.57356148703E+00  0.47787271622E+02  0.20000002631E+02 0.  0.
         12    1    1    2    0    0 -0.41133168564E+02 -0.13833173709E+02  0.57356148703E+00  0.43400728378E+02  0.00000000000E+00 0. -1.
         11    1    3    3    0    0 -0.15233356064E+01 -0.21144309156E+00  0.46598306902E+00  0.16069847642E+01  0.51100000000E-03 0. -1.
        -11    1    3    3    0    0  0.25082832598E+02  0.98632916910E+01  0.44124519462E+01  0.27311220159E+02  0.51100000000E-03 0.  1.
        -12    1    3    3    0    0  0.17573671572E+02  0.41813251100E+01 -0.54519965023E+01  0.18869066698E+02  0.00000000000E+00 0.  1.
</event>
<event>
 7    1  0.2751796E-010  0.4778727E+02  0.7816164E-02  0.1312668E+00
        -11   -1    0    0    0    0  0.00000000000E+00  0.00000000000E+00  0.45593999997E+02  0.45594000000E+02  0.51100000000E-03 0. -1.
         11   -1    0    0    0    0 -0.00000000000E+00 -0.00000000000E+00 -0.45593999997E+02  0.45594000000E+02  0.51100000000E-03 0.  1.
    9900012    2    1    2    0    0 -0.36968181054E+02 -0.22235485731E+02 -0.47497408584E+01  0.47787271039E+02  0.19999999974E+02 0.  0.
         12    1    1    2    0    0  0.36968181054E+02  0.22235485731E+02  0.47497408584E+01  0.43400728961E+02  0.00000000000E+00 0. -1.
         11    1    3    3    0    0 -0.28802681828E+02 -0.21688606212E+02 -0.31730606587E+01  0.36194729369E+02  0.51100000000E-03 0.  1.
        -11    1    3    3    0    0 -0.83032051721E+01  0.22490467590E+01 -0.17844056089E+01  0.87855296421E+01  0.51100000000E-03 0. -1.
        -12    1    3    3    0    0  0.13770594523E+00 -0.27959262780E+01  0.20772540921E+00  0.28070120279E+01  0.00000000000E+00 0.  1.
</event>
<event>
 7    1  0.2751796E-010  0.4778727E+02  0.7816164E-02  0.1312668E+00
        -11   -1    0    0    0    0  0.00000000000E+00  0.00000000000E+00  0.45593999997E+02  0.45594000000E+02  0.51100000000E-03 0. -1.
         11   -1    0    0    0    0 -0.00000000000E+00 -0.00000000000E+00 -0.45593999997E+02  0.45594000000E+02  0.51100000000E-03 0.  1.
    9900012    2    1    2    0    0 -0.39726559621E+01 -0.25590788721E+02 -0.34827472519E+02  0.47787270688E+02  0.19999998376E+02 0.  0.
         12    1    1    2    0    0  0.39726559621E+01  0.25590788721E+02  0.34827472519E+02  0.43400729312E+02  0.00000000000E+00 0. -1.
         11    1    3    3    0    0  0.54631000994E+01 -0.69279601735E+01 -0.16892652414E+02  0.19057906514E+02  0.51100000000E-03 0. -1.
        -11    1    3    3    0    0 -0.13871616936E+01 -0.63682011872E+01 -0.10249426557E+02  0.12146149551E+02  0.51100000000E-03 0.  1.
         12    1    3    3    0    0 -0.80485943679E+01 -0.12294627360E+02 -0.76853935481E+01  0.16583214623E+02  0.00000000000E+00 0. -1.
</event>
<event>
 7    1  0.2751796E-010  0.4778727E+02  0.7816164E-02  0.1312668E+00
        -11   -1    0    0    0    0  0.00000000000E+00  0.00000000000E+00  0.45593999997E+02  0.45594000000E+02  0.51100000000E-03 0.  1.
         11   -1    0    0    0    0 -0.00000000000E+00 -0.00000000000E+00 -0.45593999997E+02  0.45594000000E+02  0.51100000000E-03 0. -1.
    9900012    2    1    2    0    0  0.40453114412E+01  0.18415394282E+02  0.39091325869E+02  0.47787273631E+02  0.20000011792E+02 0.  0.
         12    1    1    2    0    0 -0.40453114412E+01 -0.18415394282E+02 -0.39091325869E+02  0.43400726369E+02  0.00000000000E+00 0. -1.
         11    1    3    3    0    0  0.96530210049E+01  0.51841381608E+01  0.17046222505E+02  0.20264002688E+02  0.51100000000E-03 0.  1.
        -11    1    3    3    0    0 -0.55299531549E+01  0.58523741456E+01  0.16268081701E+02  0.18151615563E+02  0.51100000000E-03 0. -1.
         12    1    3    3    0    0 -0.77756408826E-01  0.73788819759E+01  0.57770216623E+01  0.93716553799E+01  0.00000000000E+00 0. -1.
</event>
<event>
 7    1  0.2751796E-010  0.4778727E+02  0.7816164E-02  0.1312668E+00
        -11   -1    0    0    0    0  0.00000000000E+00  0.00000000000E+00  0.45593999997E+02  0.45594000000E+02  0.51100000000E-03 0. -1.
         11   -1    0    0    0    0 -0.00000000000E+00 -0.00000000000E+00 -0.45593999997E+02  0.45594000000E+02  0.51100000000E-03 0.  1.
    9900012    2    1    2    0    0 -0.16215740465E+02  0.37798991688E+02 -0.13853125428E+02  0.47787273098E+02  0.20000009365E+02 0.  0.
         12    1    1    2    0    0  0.16215740465E+02 -0.37798991688E+02  0.13853125428E+02  0.43400726902E+02  0.00000000000E+00 0. -1.
         11    1    3    3    0    0 -0.13998955585E+02  0.19011609218E+02 -0.27458305750E+01  0.23768711121E+02  0.51100000000E-03 0. -1.
        -11    1    3    3    0    0 -0.57876232020E+01  0.97084297327E+01 -0.41690800410E+01  0.12047050214E+02  0.51100000000E-03 0.  1.
         12    1    3    3    0    0  0.35708383224E+01  0.90789527374E+01 -0.69382148123E+01  0.11971511764E+02  0.00000000000E+00 0. -1.
</event>
<event>
 7    1  0.2751796E-010  0.4778727E+02  0.7816164E-02  0.1312668E+00
        -11   -1    0    0    0    0  0.00000000000E+00  0.00000000000E+00  0.45593999997E+02  0.45594000000E+02  0.51100000000E-03 0. -1.
         11   -1    0    0    0    0 -0.00000000000E+00 -0.00000000000E+00 -0.45593999997E+02  0.45594000000E+02  0.51100000000E-03 0.  1.
    9900012    2    1    2    0    0 -0.10379910307E+02 -0.31661275990E+02 -0.27810865296E+02  0.47787272312E+02  0.20000005781E+02 0.  0.
         12    1    1    2    0    0  0.10379910307E+02  0.31661275990E+02  0.27810865296E+02  0.43400727688E+02  0.00000000000E+00 0. -1.
         11    1    3    3    0    0  0.15820001638E+01 -0.39562882576E+01  0.28430485756E+00  0.42703361470E+01  0.51100000000E-03 0. -1.
        -11    1    3    3    0    0 -0.12961709412E+02 -0.26397920218E+02 -0.20755615051E+02  0.35995161607E+02  0.51100000000E-03 0.  1.
        -12    1    3    3    0    0  0.99979894106E+00 -0.13070675148E+01 -0.73395551020E+01  0.75217745583E+01  0.00000000000E+00 0.  1.
</event>
<event>
 7    1  0.2751796E-010  0.4778727E+02  0.7816164E-02  0.1312668E+00
        -11   -1    0    0    0    0  0.00000000000E+00  0.00000000000E+00  0.45593999997E+02  0.45594000000E+02  0.51100000000E-03 0. -1.
         11   -1    0    0    0    0 -0.00000000000E+00 -0.00000000000E+00 -0.45593999997E+02  0.45594000000E+02  0.51100000000E-03 0.  1.
    9900012    2    1    2    0    0  0.16148082950E+02 -0.38874690243E+02 -0.10565089932E+02  0.47787271323E+02  0.20000001268E+02 0.  0.
         12    1    1    2    0    0 -0.16148082950E+02  0.38874690243E+02  0.10565089932E+02  0.43400728677E+02  0.00000000000E+00 0. -1.
         11    1    3    3    0    0 -0.92826850230E+00 -0.19823922068E+02 -0.77814145869E+01  0.21316659724E+02  0.51100000000E-03 0. -1.
        -11    1    3    3    0    0  0.98912640806E+01 -0.11640197428E+02 -0.46798035084E+01  0.15975977667E+02  0.51100000000E-03 0.  1.
         12    1    3    3    0    0  0.71850873716E+01 -0.74105707468E+01  0.18961281636E+01  0.10494633931E+02  0.00000000000E+00 0. -1.
</event>
<event>
 7    1  0.2751796E-010  0.4778727E+02  0.7816164E-02  0.1312668E+00
        -11   -1    0    0    0    0  0.00000000000E+00  0.00000000000E+00  0.45593999997E+02  0.45594000000E+02  0.51100000000E-03 0.  1.
         11   -1    0    0    0    0 -0.00000000000E+00 -0.00000000000E+00 -0.45593999997E+02  0.45594000000E+02  0.51100000000E-03 0. -1.
    9900012    2    1    2    0    0 -0.26908811685E+02 -0.30094840924E+02  0.15932345743E+02  0.47787271464E+02  0.20000001914E+02 0.  0.
         12    1    1    2    0    0  0.26908811685E+02  0.30094840924E+02 -0.15932345743E+02  0.43400728536E+02  0.00000000000E+00 0. -1.
         11    1    3    3    0    0 -0.88282353817E+01 -0.44700703892E+01  0.12444610317E+01  0.99733621593E+01  0.51100000000E-03 0. -1.
        -11    1    3    3    0    0 -0.10371366147E+02 -0.11006722251E+02 -0.82728406987E+00  0.15145876326E+02  0.51100000000E-03 0.  1.
        -12    1    3    3    0    0 -0.77092101563E+01 -0.14618048284E+02  0.15515168781E+02  0.22668032979E+02  0.00000000000E+00 0.  1.
</event>
<event>
 7    1  0.2751796E-010  0.4778727E+02  0.7816164E-02  0.1312668E+00
        -11   -1    0    0    0    0  0.00000000000E+00  0.00000000000E+00  0.45593999997E+02  0.45594000000E+02  0.51100000000E-03 0. -1.
         11   -1    0    0    0    0 -0.00000000000E+00 -0.00000000000E+00 -0.45593999997E+02  0.45594000000E+02  0.51100000000E-03 0.  1.
    9900012    2    1    2    0    0  0.27107679637E+02  0.16129490024E+02  0.29810007766E+02  0.47787270666E+02  0.19999998273E+02 0.  0.
         12    1    1    2    0    0 -0.27107679637E+02 -0.16129490024E+02 -0.29810007766E+02  0.43400729334E+02  0.00000000000E+00 0. -1.
         11    1    3    3    0    0  0.36578719457E+01  0.71076059949E+01  0.97022420144E+01  0.12571061630E+02  0.51100000000E-03 0.  1.
        -11    1    3    3    0    0  0.42316913500E+01  0.36717624705E+01  0.12797306345E+02  0.13969971412E+02  0.51100000000E-03 0. -1.
        -12    1    3    3    0    0  0.19218116341E+02  0.53501215588E+01  0.73104594073E+01  0.21246237623E+02  0.00000000000E+00 0.  1.
</event>
<event>
 7    1  0.2751796E-010  0.4778727E+02  0.7816164E-02  0.1312668E+00
        -11   -1    0    0    0    0  0.00000000000E+00  0.00000000000E+00  0.45593999997E+02  0.45594000000E+02  0.51100000000E-03 0.  1.
         11   -1    0    0    0    0 -0.00000000000E+00 -0.00000000000E+00 -0.45593999997E+02  0.45594000000E+02  0.51100000000E-03 0. -1.
    9900012    2    1    2    0    0  0.31705563753E+02  0.17705595629E+02  0.23767461505E+02  0.47787272865E+02  0.20000008298E+02 0.  0.
         12    1    1    2    0    0 -0.31705563753E+02 -0.17705595629E+02 -0.23767461505E+02  0.43400727135E+02  0.00000000000E+00 0. -1.
         11    1    3    3    0    0  0.19472208299E+02  0.15986624193E+02  0.19945138289E+02  0.32133278555E+02  0.51100000000E-03 0. -1.
        -11    1    3    3    0    0  0.29132447735E+01  0.40846094776E+01  0.33382107224E+01  0.60261663422E+01  0.51100000000E-03 0.  1.
         12    1    3    3    0    0  0.93201106811E+01 -0.23656380416E+01  0.48411249414E+00  0.96278279668E+01  0.00000000000E+00 0. -1.
</event>
<event>
 7    1  0.2751796E-010  0.4778727E+02  0.7816164E-02  0.1312668E+00
        -11   -1    0    0    0    0  0.00000000000E+00  0.00000000000E+00  0.45593999997E+02  0.45594000000E+02  0.51100000000E-03 0.  1.
         11   -1    0    0    0    0 -0.00000000000E+00 -0.00000000000E+00 -0.45593999997E+02  0.45594000000E+02  0.51100000000E-03 0. -1.
    9900012    2    1    2    0    0  0.27268226764E+02 -0.32406860222E+02  0.94795838223E+01  0.47787270861E+02  0.19999999166E+02 0.  0.
         12    1    1    2    0    0 -0.27268226764E+02  0.32406860222E+02 -0.94795838223E+01  0.43400729139E+02  0.00000000000E+00 0. -1.
         11    1    3    3    0    0  0.88633040103E+01 -0.15760286243E+02 -0.49907123918E+01  0.18757718168E+02  0.51100000000E-03 0. -1.
        -11    1    3    3    0    0  0.11820313182E+02 -0.11961064350E+02  0.77376948814E+01  0.18511044986E+02  0.51100000000E-03 0.  1.
         12    1    3    3    0    0  0.65846095718E+01 -0.46855096288E+01  0.67326013327E+01  0.10518507708E+02  0.00000000000E+00 0. -1.
</event>
<event>
 7    1  0.2751796E-010  0.4778727E+02  0.7816164E-02  0.1312668E+00
        -11   -1    0    0    0    0  0.00000000000E+00  0.00000000000E+00  0.45593999997E+02  0.45594000000E+02  0.51100000000E-03 0.  1.
         11   -1    0    0    0    0 -0.00000000000E+00 -0.00000000000E+00 -0.45593999997E+02  0.45594000000E+02  0.51100000000E-03 0. -1.
    9900012    2    1    2    0    0 -0.11792180880E+02 -0.11260899430E+01  0.41752836376E+02  0.47787274730E+02  0.20000016805E+02 0.  0.
         12    1    1    2    0    0  0.11792180880E+02  0.11260899430E+01 -0.41752836376E+02  0.43400725270E+02  0.00000000000E+00 0. -1.
         11    1    3    3    0    0 -0.10611996305E+02  0.32184090058E+01  0.10210787614E+02  0.15074243134E+02  0.51100000000E-03 0. -1.
        -11    1    3    3    0    0 -0.63364996167E+00 -0.39832117867E+01  0.31765717772E+02  0.32020748184E+02  0.51100000000E-03 0.  1.
        -12    1    3    3    0    0 -0.54653461335E+00 -0.36128716212E+00 -0.22366900957E+00  0.69228341230E+00  0.00000000000E+00 0.  1.
</event>
<event>
 7    1  0.2751796E-010  0.4778727E+02  0.7816164E-02  0.1312668E+00
        -11   -1    0    0    0    0  0.00000000000E+00  0.00000000000E+00  0.45593999997E+02  0.45594000000E+02  0.51100000000E-03 0. -1.
         11   -1    0    0    0    0 -0.00000000000E+00 -0.00000000000E+00 -0.45593999997E+02  0.45594000000E+02  0.51100000000E-03 0.  1.
    9900012    2    1    2    0    0  0.30748534590E+02 -0.24432437008E+02 -0.18471788603E+02  0.47787270378E+02  0.19999996959E+02 0.  0.
         12    1    1    2    0    0 -0.30748534590E+02  0.24432437008E+02  0.18471788603E+02  0.43400729622E+02  0.00000000000E+00 0. -1.
         11    1    3    3    0    0  0.44510022652E+01 -0.14417322180E+02 -0.53363244107E+01  0.16004591794E+02  0.51100000000E-03 0. -1.
        -11    1    3    3    0    0  0.17376665219E+02 -0.33182604379E+01 -0.67872999454E+01  0.18948002198E+02  0.51100000000E-03 0.  1.
         12    1    3    3    0    0  0.89208671055E+01 -0.66968543900E+01 -0.63481642471E+01  0.12834676386E+02  0.00000000000E+00 0. -1.
</event>
<event>
 7    1  0.2751796E-010  0.4778727E+02  0.7816164E-02  0.1312668E+00
        -11   -1    0    0    0    0  0.00000000000E+00  0.00000000000E+00  0.45593999997E+02  0.45594000000E+02  0.51100000000E-03 0.  1.
         11   -1    0    0    0    0 -0.00000000000E+00 -0.00000000000E+00 -0.45593999997E+02  0.45594000000E+02  0.51100000000E-03 0. -1.
    9900012    2    1    2    0    0  0.17378904274E+02 -0.39757898360E+02 -0.95228101126E+00  0.47787266886E+02  0.19999981038E+02 0.  0.
         12    1    1    2    0    0 -0.17378904274E+02  0.39757898360E+02  0.95228101126E+00  0.43400733114E+02  0.00000000000E+00 0. -1.
         11    1    3    3    0    0  0.52649559881E+01 -0.18364288617E+02  0.59556772536E+01  0.20010920763E+02  0.51100000000E-03 0.  1.
        -11    1    3    3    0    0  0.35057841018E+01 -0.14996887279E+02 -0.73017834457E+01  0.17044447541E+02  0.51100000000E-03 0. -1.
        -12    1    3    3    0    0  0.86081641837E+01 -0.63967224632E+01  0.39382518087E+00  0.10731898581E+02  0.00000000000E+00 0.  1.
</event>
<event>
 7    1  0.2751796E-010  0.4778727E+02  0.7816164E-02  0.1312668E+00
        -11   -1    0    0    0    0  0.00000000000E+00  0.00000000000E+00  0.45593999997E+02  0.45594000000E+02  0.51100000000E-03 0. -1.
         11   -1    0    0    0    0 -0.00000000000E+00 -0.00000000000E+00 -0.45593999997E+02  0.45594000000E+02  0.51100000000E-03 0.  1.
    9900012    2    1    2    0    0  0.56483115789E+01  0.28778647469E+02  0.31992338939E+02  0.47787265852E+02  0.19999976324E+02 0.  0.
         12    1    1    2    0    0 -0.56483115789E+01 -0.28778647469E+02 -0.31992338939E+02  0.43400734148E+02  0.00000000000E+00 0. -1.
         11    1    3    3    0    0 -0.62296700945E+01  0.12371770618E+02  0.15452931534E+02  0.20752411690E+02  0.51100000000E-03 0. -1.
        -11    1    3    3    0    0  0.59287705155E+01  0.10704201413E+02  0.59209352010E+01  0.13593664761E+02  0.51100000000E-03 0.  1.
         12    1    3    3    0    0  0.59492111579E+01  0.57026754375E+01  0.10618472205E+02  0.13441189401E+02  0.00000000000E+00 0. -1.
</event>
<event>
 7    1  0.2751796E-010  0.4778727E+02  0.7816164E-02  0.1312668E+00
        -11   -1    0    0    0    0  0.00000000000E+00  0.00000000000E+00  0.45593999997E+02  0.45594000000E+02  0.51100000000E-03 0.  1.
         11   -1    0    0    0    0 -0.00000000000E+00 -0.00000000000E+00 -0.45593999997E+02  0.45594000000E+02  0.51100000000E-03 0. -1.
    9900012    2    1    2    0    0  0.26462152639E+02  0.31379039038E+02 -0.14097291880E+02  0.47787271301E+02  0.20000001170E+02 0.  0.
         12    1    1    2    0    0 -0.26462152639E+02 -0.31379039038E+02  0.14097291880E+02  0.43400728699E+02  0.00000000000E+00 0. -1.
         11    1    3    3    0    0  0.35655328127E+01  0.95672154867E+00 -0.16725124193E+01  0.40528555876E+01  0.51100000000E-03 0. -1.
        -11    1    3    3    0    0  0.25801275152E+02  0.28301792492E+02 -0.10822441005E+02  0.39797267335E+02  0.51100000000E-03 0.  1.
        -12    1    3    3    0    0 -0.29046553261E+01  0.21205249977E+01 -0.16023384562E+01  0.39371483789E+01  0.00000000000E+00 0.  1.
</event>
<event>
 7    1  0.2751796E-010  0.4778727E+02  0.7816164E-02  0.1312668E+00
        -11   -1    0    0    0    0  0.00000000000E+00  0.00000000000E+00  0.45593999997E+02  0.45594000000E+02  0.51100000000E-03 0. -1.
         11   -1    0    0    0    0 -0.00000000000E+00 -0.00000000000E+00 -0.45593999997E+02  0.45594000000E+02  0.51100000000E-03 0.  1.
    9900012    2    1    2    0    0 -0.39911893764E+02  0.10512519903E+02 -0.13422035273E+02  0.47787269944E+02  0.19999994983E+02 0.  0.
         12    1    1    2    0    0  0.39911893764E+02 -0.10512519903E+02  0.13422035273E+02  0.43400730056E+02  0.00000000000E+00 0. -1.
         11    1    3    3    0    0 -0.19805474927E+01  0.29132536581E+01 -0.19191376527E+01  0.40115713677E+01  0.51100000000E-03 0. -1.
        -11    1    3    3    0    0 -0.33072338135E+02  0.85547582891E+01 -0.15402379677E+02  0.37472613188E+02  0.51100000000E-03 0.  1.
        -12    1    3    3    0    0 -0.48590081355E+01 -0.95549204393E+00  0.38994820567E+01  0.63030853887E+01  0.00000000000E+00 0.  1.
</event>
<event>
 7    1  0.2751796E-010  0.4778726E+02  0.7816164E-02  0.1312668E+00
        -11   -1    0    0    0    0  0.00000000000E+00  0.00000000000E+00  0.45593999997E+02  0.45594000000E+02  0.51100000000E-03 0.  1.
         11   -1    0    0    0    0 -0.00000000000E+00 -0.00000000000E+00 -0.45593999997E+02  0.45594000000E+02  0.51100000000E-03 0. -1.
    9900012    2    1    2    0    0 -0.20769598224E+02  0.18720503410E+02  0.33193228772E+02  0.47787263893E+02  0.19999967395E+02 0.  0.
         12    1    1    2    0    0  0.20769598224E+02 -0.18720503410E+02 -0.33193228772E+02  0.43400736107E+02  0.00000000000E+00 0. -1.
         11    1    3    3    0    0  0.10992210809E+01 -0.28462227212E+01  0.33076239240E+01  0.44999607828E+01  0.51100000000E-03 0. -1.
        -11    1    3    3    0    0 -0.67615680955E+01  0.10169188942E+02  0.14014364774E+02  0.18588534830E+02  0.51100000000E-03 0.  1.
         12    1    3    3    0    0 -0.15107251210E+02  0.11397537189E+02  0.15871240074E+02  0.24698768280E+02  0.00000000000E+00 0. -1.
</event>
<event>
 7    1  0.2751796E-010  0.4778727E+02  0.7816164E-02  0.1312668E+00
        -11   -1    0    0    0    0  0.00000000000E+00  0.00000000000E+00  0.45593999997E+02  0.45594000000E+02  0.51100000000E-03 0. -1.
         11   -1    0    0    0    0 -0.00000000000E+00 -0.00000000000E+00 -0.45593999997E+02  0.45594000000E+02  0.51100000000E-03 0.  1.
    9900012    2    1    2    0    0  0.25441259577E+02  0.16580894667E+02 -0.31007083239E+02  0.47787274571E+02  0.20000016077E+02 0.  0.
         12    1    1    2    0    0 -0.25441259577E+02 -0.16580894667E+02  0.31007083239E+02  0.43400725429E+02  0.00000000000E+00 0. -1.
         11    1    3    3    0    0  0.13702775364E+02  0.41382116192E+00 -0.81800757286E+01  0.15964051485E+02  0.51100000000E-03 0.  1.
        -11    1    3    3    0    0  0.70944275732E+00 -0.53939592720E+00 -0.48064277894E+01  0.48883540530E+01  0.51100000000E-03 0. -1.
         12    1    3    3    0    0  0.11029041455E+02  0.16706469432E+02 -0.18020579721E+02  0.26934869032E+02  0.00000000000E+00 0. -1.
</event>
<event>
 7    1  0.2751796E-010  0.4778727E+02  0.7816164E-02  0.1312668E+00
        -11   -1    0    0    0    0  0.00000000000E+00  0.00000000000E+00  0.45593999997E+02  0.45594000000E+02  0.51100000000E-03 0.  1.
         11   -1    0    0    0    0 -0.00000000000E+00 -0.00000000000E+00 -0.45593999997E+02  0.45594000000E+02  0.51100000000E-03 0. -1.
    9900012    2    1    2    0    0 -0.93030460062E+01  0.28435228016E+01  0.42296465380E+02  0.47787271083E+02  0.20000000175E+02 0.  0.
         12    1    1    2    0    0  0.93030460062E+01 -0.28435228016E+01 -0.42296465380E+02  0.43400728917E+02  0.00000000000E+00 0. -1.
         11    1    3    3    0    0 -0.11452395208E+02 -0.36392176603E+00  0.18108846430E+02  0.21429421698E+02  0.51100000000E-03 0.  1.
        -11    1    3    3    0    0  0.56966056135E+01  0.56431864412E-01  0.12164878111E+02  0.13432749524E+02  0.51100000000E-03 0. -1.
         12    1    3    3    0    0 -0.35472564118E+01  0.31510127032E+01  0.12022740839E+02  0.12925099860E+02  0.00000000000E+00 0. -1.
</event>
<event>
 7    1  0.2751796E-010  0.4778727E+02  0.7816164E-02  0.1312668E+00
        -11   -1    0    0    0    0  0.00000000000E+00  0.00000000000E+00  0.45593999997E+02  0.45594000000E+02  0.51100000000E-03 0.  1.
         11   -1    0    0    0    0 -0.00000000000E+00 -0.00000000000E+00 -0.45593999997E+02  0.45594000000E+02  0.51100000000E-03 0. -1.
    9900012    2    1    2    0    0  0.94026341619E+01  0.13337747438E+02  0.40215891284E+02  0.47787274803E+02  0.20000017136E+02 0.  0.
         12    1    1    2    0    0 -0.94026341619E+01 -0.13337747438E+02 -0.40215891284E+02  0.43400725197E+02  0.00000000000E+00 0. -1.
         11    1    3    3    0    0  0.45333723227E+01  0.15902733522E+02  0.29610910667E+02  0.33915401058E+02  0.51100000000E-03 0. -1.
        -11    1    3    3    0    0  0.58781101330E+01  0.81963913235E-01  0.55898785680E+01  0.81120675222E+01  0.51100000000E-03 0.  1.
         12    1    3    3    0    0 -0.10088482938E+01 -0.26469499977E+01  0.50151020486E+01  0.57598062231E+01  0.00000000000E+00 0. -1.
</event>
<event>
 7    1  0.2751796E-010  0.4778727E+02  0.7816164E-02  0.1312668E+00
        -11   -1    0    0    0    0  0.00000000000E+00  0.00000000000E+00  0.45593999997E+02  0.45594000000E+02  0.51100000000E-03 0. -1.
         11   -1    0    0    0    0 -0.00000000000E+00 -0.00000000000E+00 -0.45593999997E+02  0.45594000000E+02  0.51100000000E-03 0.  1.
    9900012    2    1    2    0    0  0.40020047634E+02  0.58163417580E+01  0.15754025441E+02  0.47787270033E+02  0.19999995389E+02 0.  0.
         12    1    1    2    0    0 -0.40020047634E+02 -0.58163417580E+01 -0.15754025441E+02  0.43400729967E+02  0.00000000000E+00 0. -1.
         11    1    3    3    0    0  0.10583890155E+02  0.60980091338E+01  0.98454570701E+01  0.15688768957E+02  0.51100000000E-03 0. -1.
        -11    1    3    3    0    0  0.19296379610E+02  0.27752406840E+01 -0.88717210732E+00  0.19515104445E+02  0.51100000000E-03 0.  1.
         12    1    3    3    0    0  0.10139777869E+02 -0.30569080598E+01  0.67957404782E+01  0.12583396631E+02  0.00000000000E+00 0. -1.
</event>
<event>
 7    1  0.2751796E-010  0.4778727E+02  0.7816164E-02  0.1312668E+00
        -11   -1    0    0    0    0  0.00000000000E+00  0.00000000000E+00  0.45593999997E+02  0.45594000000E+02  0.51100000000E-03 0.  1.
         11   -1    0    0    0    0 -0.00000000000E+00 -0.00000000000E+00 -0.45593999997E+02  0.45594000000E+02  0.51100000000E-03 0. -1.
    9900012    2    1    2    0    0  0.40244112080E+01 -0.19456628606E+02  0.38585838392E+02  0.47787271819E+02  0.20000003530E+02 0.  0.
         12    1    1    2    0    0 -0.40244112080E+01  0.19456628606E+02 -0.38585838392E+02  0.43400728181E+02  0.00000000000E+00 0. -1.
         11    1    3    3    0    0  0.30205187053E+01 -0.72533913420E+01  0.14741204993E+01  0.79942636132E+01  0.51100000000E-03 0. -1.
        -11    1    3    3    0    0 -0.17406099581E+01 -0.76452488513E+01  0.29374746075E+02  0.30403211348E+02  0.51100000000E-03 0.  1.
         12    1    3    3    0    0  0.27445024608E+01 -0.45579884129E+01  0.77369718169E+01  0.93897968575E+01  0.00000000000E+00 0. -1.
</event>
<event>
 7    1  0.2751796E-010  0.4778727E+02  0.7816164E-02  0.1312668E+00
        -11   -1    0    0    0    0  0.00000000000E+00  0.00000000000E+00  0.45593999997E+02  0.45594000000E+02  0.51100000000E-03 0. -1.
         11   -1    0    0    0    0 -0.00000000000E+00 -0.00000000000E+00 -0.45593999997E+02  0.45594000000E+02  0.51100000000E-03 0.  1.
    9900012    2    1    2    0    0  0.38892089081E+02 -0.18790526548E+02  0.42361201172E+01  0.47787271957E+02  0.20000004159E+02 0.  0.
         12    1    1    2    0    0 -0.38892089081E+02  0.18790526548E+02 -0.42361201172E+01  0.43400728043E+02  0.00000000000E+00 0. -1.
         11    1    3    3    0    0  0.33677983425E+00 -0.62018478137E+01  0.20652441413E+01  0.65453472472E+01  0.51100000000E-03 0. -1.
        -11    1    3    3    0    0  0.30132455003E+02 -0.12644279908E+02  0.27862963347E+01  0.32796434355E+02  0.51100000000E-03 0.  1.
         12    1    3    3    0    0  0.84228542437E+01  0.55601173650E-01 -0.61542035878E+00  0.84454903540E+01  0.00000000000E+00 0. -1.
</event>
<event>
 7    1  0.2751796E-010  0.4778728E+02  0.7816164E-02  0.1312668E+00
        -11   -1    0    0    0    0  0.00000000000E+00  0.00000000000E+00  0.45593999997E+02  0.45594000000E+02  0.51100000000E-03 0.  1.
         11   -1    0    0    0    0 -0.00000000000E+00 -0.00000000000E+00 -0.45593999997E+02  0.45594000000E+02  0.51100000000E-03 0. -1.
    9900012    2    1    2    0    0 -0.19887188002E+02 -0.36009248515E+02  0.13836787434E+02  0.47787275216E+02  0.20000019021E+02 0.  0.
         12    1    1    2    0    0  0.19887188002E+02  0.36009248515E+02 -0.13836787434E+02  0.43400724784E+02  0.00000000000E+00 0. -1.
         11    1    3    3    0    0  0.19985481761E+01 -0.12358380607E+01  0.39312192290E+01  0.45799536474E+01  0.51100000000E-03 0. -1.
        -11    1    3    3    0    0 -0.14678973264E+02 -0.17731523722E+02  0.20647952298E+01  0.23111524597E+02  0.51100000000E-03 0.  1.
         12    1    3    3    0    0 -0.72067629146E+01 -0.17041886732E+02  0.78407729755E+01  0.20095796972E+02  0.00000000000E+00 0. -1.
</event>
<event>
 7    1  0.2751796E-010  0.4778727E+02  0.7816164E-02  0.1312668E+00
        -11   -1    0    0    0    0  0.00000000000E+00  0.00000000000E+00  0.45593999997E+02  0.45594000000E+02  0.51100000000E-03 0. -1.
         11   -1    0    0    0    0 -0.00000000000E+00 -0.00000000000E+00 -0.45593999997E+02  0.45594000000E+02  0.51100000000E-03 0.  1.
    9900012    2    1    2    0    0 -0.40116795368E+02  0.10796644774E+02 -0.12557794040E+02  0.47787274198E+02  0.20000014379E+02 0.  0.
         12    1    1    2    0    0  0.40116795368E+02 -0.10796644774E+02  0.12557794040E+02  0.43400725802E+02  0.00000000000E+00 0. -1.
         11    1    3    3    0    0 -0.11371699393E+02  0.11347803889E+02 -0.58198083072E+01  0.17086789318E+02  0.51100000000E-03 0. -1.
        -11    1    3    3    0    0 -0.12489053474E+02 -0.38085908217E+01 -0.51850335141E+01  0.14048715014E+02  0.51100000000E-03 0.  1.
         12    1    3    3    0    0 -0.16256042501E+02  0.32574317061E+01 -0.15529522189E+01  0.16651769867E+02  0.00000000000E+00 0. -1.
</event>
<event>
 7    1  0.2751796E-010  0.4778727E+02  0.7816164E-02  0.1312668E+00
        -11   -1    0    0    0    0  0.00000000000E+00  0.00000000000E+00  0.45593999997E+02  0.45594000000E+02  0.51100000000E-03 0. -1.
         11   -1    0    0    0    0 -0.00000000000E+00 -0.00000000000E+00 -0.45593999997E+02  0.45594000000E+02  0.51100000000E-03 0.  1.
    9900012    2    1    2    0    0  0.23757886586E+02 -0.27645090794E+02 -0.23557056289E+02  0.47787272806E+02  0.20000008030E+02 0.  0.
         12    1    1    2    0    0 -0.23757886586E+02  0.27645090794E+02  0.23557056289E+02  0.43400727194E+02  0.00000000000E+00 0. -1.
         11    1    3    3    0    0 -0.17418288742E+01 -0.92265263947E+01 -0.25675789655E+01  0.97342292527E+01  0.51100000000E-03 0. -1.
        -11    1    3    3    0    0  0.19787102829E+02 -0.15090578479E+02 -0.14562420037E+02  0.28832604371E+02  0.51100000000E-03 0.  1.
         12    1    3    3    0    0  0.57126126305E+01 -0.33279859198E+01 -0.64270572860E+01  0.92204391819E+01  0.00000000000E+00 0. -1.
</event>
<event>
 7    1  0.2751796E-010  0.4778727E+02  0.7816164E-02  0.1312668E+00
        -11   -1    0    0    0    0  0.00000000000E+00  0.00000000000E+00  0.45593999997E+02  0.45594000000E+02  0.51100000000E-03 0. -1.
         11   -1    0    0    0    0 -0.00000000000E+00 -0.00000000000E+00 -0.45593999997E+02  0.45594000000E+02  0.51100000000E-03 0.  1.
    9900012    2    1    2    0    0 -0.14636136274E+02  0.40604592541E+02  0.45468325349E+01  0.47787272972E+02  0.20000008790E+02 0.  0.
         12    1    1    2    0    0  0.14636136274E+02 -0.40604592541E+02 -0.45468325349E+01  0.43400727028E+02  0.00000000000E+00 0. -1.
         11    1    3    3    0    0 -0.13679406156E+02  0.14176850378E+02  0.48071933340E+01  0.20278519359E+02  0.51100000000E-03 0. -1.
        -11    1    3    3    0    0 -0.81194966013E+00  0.16096166934E+02 -0.38505001780E+01  0.16570220400E+02  0.51100000000E-03 0.  1.
         12    1    3    3    0    0 -0.14478045844E+00  0.10331575229E+02  0.35901393788E+01  0.10938533213E+02  0.00000000000E+00 0. -1.
</event>
<event>
 7    1  0.2751796E-010  0.4778727E+02  0.7816164E-02  0.1312668E+00
        -11   -1    0    0    0    0  0.00000000000E+00  0.00000000000E+00  0.45593999997E+02  0.45594000000E+02  0.51100000000E-03 0.  1.
         11   -1    0    0    0    0 -0.00000000000E+00 -0.00000000000E+00 -0.45593999997E+02  0.45594000000E+02  0.51100000000E-03 0. -1.
    9900012    2    1    2    0    0  0.24284724073E+02  0.16862685187E+02  0.31773027520E+02  0.47787271287E+02  0.20000001104E+02 0.  0.
         12    1    1    2    0    0 -0.24284724073E+02 -0.16862685187E+02 -0.31773027520E+02  0.43400728713E+02  0.00000000000E+00 0. -1.
         11    1    3    3    0    0  0.48070029755E+01  0.35290721296E+01 -0.14680753021E+01  0.61414064396E+01  0.51100000000E-03 0. -1.
        -11    1    3    3    0    0  0.12231109051E+02  0.35062137849E+01  0.14655759493E+02  0.19408370625E+02  0.51100000000E-03 0.  1.
        -12    1    3    3    0    0  0.72466120466E+01  0.98273992729E+01  0.18585343329E+02  0.22237494222E+02  0.00000000000E+00 0.  1.
</event>
<event>
 7    1  0.2751796E-010  0.4778727E+02  0.7816164E-02  0.1312668E+00
        -11   -1    0    0    0    0  0.00000000000E+00  0.00000000000E+00  0.45593999997E+02  0.45594000000E+02  0.51100000000E-03 0.  1.
         11   -1    0    0    0    0 -0.00000000000E+00 -0.00000000000E+00 -0.45593999997E+02  0.45594000000E+02  0.51100000000E-03 0. -1.
    9900012    2    1    2    0    0 -0.18319452459E+02 -0.18818729770E+02  0.34552520996E+02  0.47787266875E+02  0.19999980991E+02 0.  0.
         12    1    1    2    0    0  0.18319452459E+02  0.18818729770E+02 -0.34552520996E+02  0.43400733125E+02  0.00000000000E+00 0. -1.
         11    1    3    3    0    0 -0.93637807235E+00 -0.34431067872E+01  0.97461401912E+01  0.10378778210E+02  0.51100000000E-03 0. -1.
        -11    1    3    3    0    0 -0.87530919344E+01 -0.13276714206E+02  0.67297351508E+01  0.17267805130E+02  0.51100000000E-03 0.  1.
        -12    1    3    3    0    0 -0.86299824523E+01 -0.20989087763E+01  0.18076645654E+02  0.20140683536E+02  0.00000000000E+00 0.  1.
</event>
<event>
 7    1  0.2751796E-010  0.4778727E+02  0.7816164E-02  0.1312668E+00
        -11   -1    0    0    0    0  0.00000000000E+00  0.00000000000E+00  0.45593999997E+02  0.45594000000E+02  0.51100000000E-03 0. -1.
         11   -1    0    0    0    0 -0.00000000000E+00 -0.00000000000E+00 -0.45593999997E+02  0.45594000000E+02  0.51100000000E-03 0.  1.
    9900012    2    1    2    0    0 -0.32657696476E+02 -0.23883856620E+02 -0.15705412292E+02  0.47787265888E+02  0.19999976491E+02 0.  0.
         12    1    1    2    0    0  0.32657696476E+02  0.23883856620E+02  0.15705412292E+02  0.43400734112E+02  0.00000000000E+00 0. -1.
         11    1    3    3    0    0 -0.42725714606E+01  0.19777294870E+00 -0.80815208725E+01  0.91435748424E+01  0.51100000000E-03 0. -1.
        -11    1    3    3    0    0 -0.23353249479E+02 -0.22765924182E+02 -0.73715682681E+01  0.33436530683E+02  0.51100000000E-03 0.  1.
         12    1    3    3    0    0 -0.50318755358E+01 -0.13157053871E+01 -0.25232315144E+00  0.52071603630E+01  0.00000000000E+00 0. -1.
</event>
<event>
 7    1  0.2751796E-010  0.4778727E+02  0.7816164E-02  0.1312668E+00
        -11   -1    0    0    0    0  0.00000000000E+00  0.00000000000E+00  0.45593999997E+02  0.45594000000E+02  0.51100000000E-03 0.  1.
         11   -1    0    0    0    0 -0.00000000000E+00 -0.00000000000E+00 -0.45593999997E+02  0.45594000000E+02  0.51100000000E-03 0. -1.
    9900012    2    1    2    0    0 -0.22888645539E+02  0.33051169667E+02  0.16350949240E+02  0.47787268992E+02  0.19999990642E+02 0.  0.
         12    1    1    2    0    0  0.22888645539E+02 -0.33051169667E+02 -0.16350949240E+02  0.43400731008E+02  0.00000000000E+00 0. -1.
         11    1    3    3    0    0 -0.33085253658E+01  0.10498953480E+01 -0.44953363524E+00  0.35001001540E+01  0.51100000000E-03 0. -1.
        -11    1    3    3    0    0 -0.12354337672E+02  0.21420117819E+02  0.21450307377E+01  0.24820400154E+02  0.51100000000E-03 0.  1.
        -12    1    3    3    0    0 -0.72257825017E+01  0.10581156501E+02  0.14655452137E+02  0.19466768684E+02  0.00000000000E+00 0.  1.
</event>
<event>
 7    1  0.2751796E-010  0.4778725E+02  0.7816164E-02  0.1312668E+00
        -11   -1    0    0    0    0  0.00000000000E+00  0.00000000000E+00  0.45593999997E+02  0.45594000000E+02  0.51100000000E-03 0.  1.
         11   -1    0    0    0    0 -0.00000000000E+00 -0.00000000000E+00 -0.45593999997E+02  0.45594000000E+02  0.51100000000E-03 0. -1.
    9900012    2    1    2    0    0  0.17517750309E+02 -0.32465210089E+02  0.22864022242E+02  0.47787251676E+02  0.19999911691E+02 0.  0.
         12    1    1    2    0    0 -0.17517750309E+02  0.32465210089E+02 -0.22864022242E+02  0.43400748324E+02  0.00000000000E+00 0. -1.
         11    1    3    3    0    0  0.65379879365E+01 -0.19720298699E+01  0.37314686152E+01  0.77819050594E+01  0.51100000000E-03 0. -1.
        -11    1    3    3    0    0  0.19603157140E+01 -0.16723179419E+02  0.16043019391E+02  0.23256956788E+02  0.51100000000E-03 0.  1.
        -12    1    3    3    0    0  0.90194466582E+01 -0.13770000800E+02  0.30895342356E+01  0.16748389829E+02  0.00000000000E+00 0.  1.
</event>
<event>
 7    1  0.2751796E-010  0.4778727E+02  0.7816164E-02  0.1312668E+00
        -11   -1    0    0    0    0  0.00000000000E+00  0.00000000000E+00  0.45593999997E+02  0.45594000000E+02  0.51100000000E-03 0.  1.
         11   -1    0    0    0    0 -0.00000000000E+00 -0.00000000000E+00 -0.45593999997E+02  0.45594000000E+02  0.51100000000E-03 0. -1.
    9900012    2    1    2    0    0  0.11165686799E+02 -0.32993717409E+02  0.25891420132E+02  0.47787267441E+02  0.19999983572E+02 0.  0.
         12    1    1    2    0    0 -0.11165686799E+02  0.32993717409E+02 -0.25891420132E+02  0.43400732559E+02  0.00000000000E+00 0. -1.
         11    1    3    3    0    0 -0.22799064642E+01 -0.11237025141E+02  0.13274495607E+02  0.17540836394E+02  0.51100000000E-03 0. -1.
        -11    1    3    3    0    0  0.11641387223E+02 -0.13926373886E+02  0.12797279790E+02  0.22208920648E+02  0.51100000000E-03 0.  1.
         12    1    3    3    0    0  0.18042060409E+01 -0.78303183821E+01 -0.18035526432E+00  0.80375103997E+01  0.00000000000E+00 0. -1.
</event>
<event>
 7    1  0.2751796E-010  0.4778727E+02  0.7816164E-02  0.1312668E+00
        -11   -1    0    0    0    0  0.00000000000E+00  0.00000000000E+00  0.45593999997E+02  0.45594000000E+02  0.51100000000E-03 0.  1.
         11   -1    0    0    0    0 -0.00000000000E+00 -0.00000000000E+00 -0.45593999997E+02  0.45594000000E+02  0.51100000000E-03 0. -1.
    9900012    2    1    2    0    0 -0.24384590416E+02 -0.22132070991E+02 -0.28269890137E+02  0.47787268388E+02  0.19999987888E+02 0.  0.
         12    1    1    2    0    0  0.24384590416E+02  0.22132070991E+02  0.28269890137E+02  0.43400731612E+02  0.00000000000E+00 0. -1.
         11    1    3    3    0    0 -0.10532877593E+02 -0.13618902010E+01 -0.15000077235E+02  0.18379297392E+02  0.51100000000E-03 0. -1.
        -11    1    3    3    0    0 -0.70482824686E+01 -0.39322360783E+01 -0.36679446126E+01  0.88653586659E+01  0.51100000000E-03 0.  1.
         12    1    3    3    0    0 -0.68034303542E+01 -0.16837944711E+02 -0.96018682896E+01  0.20542612330E+02  0.00000000000E+00 0. -1.
</event>
<event>
 7    1  0.2751796E-010  0.4778727E+02  0.7816164E-02  0.1312668E+00
        -11   -1    0    0    0    0  0.00000000000E+00  0.00000000000E+00  0.45593999997E+02  0.45594000000E+02  0.51100000000E-03 0.  1.
         11   -1    0    0    0    0 -0.00000000000E+00 -0.00000000000E+00 -0.45593999997E+02  0.45594000000E+02  0.51100000000E-03 0. -1.
    9900012    2    1    2    0    0 -0.24321553875E+02  0.17738924138E+02  0.31263652204E+02  0.47787270034E+02  0.19999995393E+02 0.  0.
         12    1    1    2    0    0  0.24321553875E+02 -0.17738924138E+02 -0.31263652204E+02  0.43400729966E+02  0.00000000000E+00 0. -1.
         11    1    3    3    0    0 -0.37600736529E+00 -0.59874492514E+00  0.20161968518E+00  0.73520594578E+00  0.51100000000E-03 0. -1.
        -11    1    3    3    0    0  0.53254312249E+00  0.20833163872E+01  0.11623821866E+02  0.11821042441E+02  0.51100000000E-03 0.  1.
        -12    1    3    3    0    0 -0.24478089632E+02  0.16254352676E+02  0.19438210652E+02  0.35231021648E+02  0.00000000000E+00 0.  1.
</event>
<event>
 7    1  0.2751796E-010  0.4778727E+02  0.7816164E-02  0.1312668E+00
        -11   -1    0    0    0    0  0.00000000000E+00  0.00000000000E+00  0.45593999997E+02  0.45594000000E+02  0.51100000000E-03 0.  1.
         11   -1    0    0    0    0 -0.00000000000E+00 -0.00000000000E+00 -0.45593999997E+02  0.45594000000E+02  0.51100000000E-03 0. -1.
    9900012    2    1    2    0    0  0.89133015197E+01 -0.42081061906E+01  0.42266629220E+02  0.47787273655E+02  0.20000011902E+02 0.  0.
         12    1    1    2    0    0 -0.89133015197E+01  0.42081061906E+01 -0.42266629220E+02  0.43400726345E+02  0.00000000000E+00 0. -1.
         11    1    3    3    0    0  0.98332255651E+00 -0.53792656994E+01  0.18631085135E+02  0.19417022333E+02  0.51100000000E-03 0. -1.
        -11    1    3    3    0    0  0.11757812759E+02  0.10982947972E+01  0.18822078419E+02  0.22219879581E+02  0.51100000000E-03 0.  1.
        -12    1    3    3    0    0 -0.38278337954E+01  0.72864711593E-01  0.48134656654E+01  0.61503717403E+01  0.00000000000E+00 0.  1.
</event>
<event>
 7    1  0.2751796E-010  0.4778727E+02  0.7816164E-02  0.1312668E+00
        -11   -1    0    0    0    0  0.00000000000E+00  0.00000000000E+00  0.45593999997E+02  0.45594000000E+02  0.51100000000E-03 0.  1.
         11   -1    0    0    0    0 -0.00000000000E+00 -0.00000000000E+00 -0.45593999997E+02  0.45594000000E+02  0.51100000000E-03 0. -1.
    9900012    2    1    2    0    0  0.14170320497E+02 -0.28756264918E+02  0.29255809631E+02  0.47787272447E+02  0.20000006393E+02 0.  0.
         12    1    1    2    0    0 -0.14170320497E+02  0.28756264918E+02 -0.29255809631E+02  0.43400727553E+02  0.00000000000E+00 0. -1.
         11    1    3    3    0    0 -0.12860679248E+01 -0.12364966218E+02  0.10215871498E+02  0.16090692683E+02  0.51100000000E-03 0. -1.
        -11    1    3    3    0    0  0.10661129393E+02 -0.29954809732E+01  0.74695157510E+01  0.13357628981E+02  0.51100000000E-03 0.  1.
         12    1    3    3    0    0  0.47952590291E+01 -0.13395817727E+02  0.11570422382E+02  0.18338950783E+02  0.00000000000E+00 0. -1.
</event>
<event>
 7    1  0.2751796E-010  0.4778728E+02  0.7816164E-02  0.1312668E+00
        -11   -1    0    0    0    0  0.00000000000E+00  0.00000000000E+00  0.45593999997E+02  0.45594000000E+02  0.51100000000E-03 0. -1.
         11   -1    0    0    0    0 -0.00000000000E+00 -0.00000000000E+00 -0.45593999997E+02  0.45594000000E+02  0.51100000000E-03 0.  1.
    9900012    2    1    2    0    0 -0.33298445833E+02 -0.23885078976E+02 -0.14294728035E+02  0.47787277170E+02  0.20000027929E+02 0.  0.
         12    1    1    2    0    0  0.33298445833E+02  0.23885078976E+02  0.14294728035E+02  0.43400722830E+02  0.00000000000E+00 0. -1.
         11    1    3    3    0    0 -0.93299780500E+01 -0.46761788479E+01 -0.83602101488E+01  0.13371920319E+02  0.51100000000E-03 0. -1.
        -11    1    3    3    0    0 -0.64064900208E+00 -0.60740706346E+01  0.21090541209E+01  0.64616464438E+01  0.51100000000E-03 0.  1.
        -12    1    3    3    0    0 -0.23327818781E+02 -0.13134829493E+02 -0.80435720068E+01  0.27953710407E+02  0.00000000000E+00 0.  1.
</event>
<event>
 7    1  0.2751796E-010  0.4778727E+02  0.7816164E-02  0.1312668E+00
        -11   -1    0    0    0    0  0.00000000000E+00  0.00000000000E+00  0.45593999997E+02  0.45594000000E+02  0.51100000000E-03 0. -1.
         11   -1    0    0    0    0 -0.00000000000E+00 -0.00000000000E+00 -0.45593999997E+02  0.45594000000E+02  0.51100000000E-03 0.  1.
    9900012    2    1    2    0    0 -0.30316077891E+02 -0.16792052816E+02 -0.26126340363E+02  0.47787271005E+02  0.19999999822E+02 0.  0.
         12    1    1    2    0    0  0.30316077891E+02  0.16792052816E+02  0.26126340363E+02  0.43400728995E+02  0.00000000000E+00 0. -1.
         11    1    3    3    0    0 -0.39275905721E+01 -0.75572858435E+01 -0.30364107420E+01  0.90420311588E+01  0.51100000000E-03 0. -1.
        -11    1    3    3    0    0 -0.23282550741E+02 -0.33210290471E+01 -0.21531894872E+02  0.31886186664E+02  0.51100000000E-03 0.  1.
        -12    1    3    3    0    0 -0.31059365783E+01 -0.59137379257E+01 -0.15580347492E+01  0.68590531826E+01  0.00000000000E+00 0.  1.
</event>
<event>
 7    1  0.2751796E-010  0.4778727E+02  0.7816164E-02  0.1312668E+00
        -11   -1    0    0    0    0  0.00000000000E+00  0.00000000000E+00  0.45593999997E+02  0.45594000000E+02  0.51100000000E-03 0.  1.
         11   -1    0    0    0    0 -0.00000000000E+00 -0.00000000000E+00 -0.45593999997E+02  0.45594000000E+02  0.51100000000E-03 0. -1.
    9900012    2    1    2    0    0  0.12452286995E+02 -0.36690799646E+02  0.19553749031E+02  0.47787270383E+02  0.19999996986E+02 0.  0.
         12    1    1    2    0    0 -0.12452286995E+02  0.36690799646E+02 -0.19553749031E+02  0.43400729617E+02  0.00000000000E+00 0. -1.
         11    1    3    3    0    0 -0.19845328049E+01 -0.13418135134E+02  0.10779170233E+02  0.17325565852E+02  0.51100000000E-03 0. -1.
        -11    1    3    3    0    0  0.15733830602E+02 -0.22849888525E+02  0.87746980924E+01  0.29097528381E+02  0.51100000000E-03 0.  1.
        -12    1    3    3    0    0 -0.12970108013E+01 -0.42277598785E+00 -0.11929525309E-03  0.13641761502E+01  0.00000000000E+00 0.  1.
</event>
<event>
 7    1  0.2751796E-010  0.4778727E+02  0.7816164E-02  0.1312668E+00
        -11   -1    0    0    0    0  0.00000000000E+00  0.00000000000E+00  0.45593999997E+02  0.45594000000E+02  0.51100000000E-03 0. -1.
         11   -1    0    0    0    0 -0.00000000000E+00 -0.00000000000E+00 -0.45593999997E+02  0.45594000000E+02  0.51100000000E-03 0.  1.
    9900012    2    1    2    0    0  0.50026435138E+01 -0.29826198299E+02 -0.31128686380E+02  0.47787266563E+02  0.19999979568E+02 0.  0.
         12    1    1    2    0    0 -0.50026435138E+01  0.29826198299E+02  0.31128686380E+02  0.43400733437E+02  0.00000000000E+00 0. -1.
         11    1    3    3    0    0 -0.14959228161E+01 -0.34705979125E+01  0.73135757675E+00  0.38493790549E+01  0.51100000000E-03 0. -1.
        -11    1    3    3    0    0  0.58783074213E+01 -0.26535466402E+02 -0.24628701799E+02  0.36677764761E+02  0.51100000000E-03 0.  1.
        -12    1    3    3    0    0  0.62025890860E+00  0.17986601534E+00 -0.72313421584E+01  0.72601227475E+01  0.00000000000E+00 0.  1.
</event>
<event>
 7    1  0.2751796E-010  0.4778727E+02  0.7816164E-02  0.1312668E+00
        -11   -1    0    0    0    0  0.00000000000E+00  0.00000000000E+00  0.45593999997E+02  0.45594000000E+02  0.51100000000E-03 0.  1.
         11   -1    0    0    0    0 -0.00000000000E+00 -0.00000000000E+00 -0.45593999997E+02  0.45594000000E+02  0.51100000000E-03 0. -1.
    9900012    2    1    2    0    0 -0.19327752939E+02 -0.29102775021E+02  0.25750530375E+02  0.47787270028E+02  0.19999995363E+02 0.  0.
         12    1    1    2    0    0  0.19327752939E+02  0.29102775021E+02 -0.25750530375E+02  0.43400729972E+02  0.00000000000E+00 0. -1.
         11    1    3    3    0    0  0.30227271250E+01 -0.59252007464E+01  0.76998123135E+01  0.10175067227E+02  0.51100000000E-03 0. -1.
        -11    1    3    3    0    0 -0.11371626975E+02 -0.12715746978E+02  0.13572783825E+02  0.21799646380E+02  0.51100000000E-03 0.  1.
         12    1    3    3    0    0 -0.10978853089E+02 -0.10461827296E+02  0.44779342364E+01  0.15812556420E+02  0.00000000000E+00 0. -1.
</event>
<event>
 7    1  0.2751796E-010  0.4778727E+02  0.7816164E-02  0.1312668E+00
        -11   -1    0    0    0    0  0.00000000000E+00  0.00000000000E+00  0.45593999997E+02  0.45594000000E+02  0.51100000000E-03 0.  1.
         11   -1    0    0    0    0 -0.00000000000E+00 -0.00000000000E+00 -0.45593999997E+02  0.45594000000E+02  0.51100000000E-03 0. -1.
    9900012    2    1    2    0    0 -0.11147693576E+02 -0.32528778335E+02  0.26480768767E+02  0.47787267212E+02  0.19999982525E+02 0.  0.
         12    1    1    2    0    0  0.11147693576E+02  0.32528778335E+02 -0.26480768767E+02  0.43400732788E+02  0.00000000000E+00 0. -1.
         11    1    3    3    0    0 -0.81255387348E+01 -0.12601441792E+02  0.19462008704E+02  0.24568078843E+02  0.51100000000E-03 0. -1.
        -11    1    3    3    0    0  0.33035664111E+01 -0.66101659026E+01  0.23204095960E+01  0.77454596537E+01  0.51100000000E-03 0.  1.
         12    1    3    3    0    0 -0.63257212528E+01 -0.13317170640E+02  0.46983504666E+01  0.15473728715E+02  0.00000000000E+00 0. -1.
</event>
<event>
 7    1  0.2751796E-010  0.4778728E+02  0.7816164E-02  0.1312668E+00
        -11   -1    0    0    0    0  0.00000000000E+00  0.00000000000E+00  0.45593999997E+02  0.45594000000E+02  0.51100000000E-03 0. -1.
         11   -1    0    0    0    0 -0.00000000000E+00 -0.00000000000E+00 -0.45593999997E+02  0.45594000000E+02  0.51100000000E-03 0.  1.
    9900012    2    1    2    0    0 -0.15920457771E+02  0.39969123672E+02  0.57123235654E+01  0.47787280383E+02  0.20000042579E+02 0.  0.
         12    1    1    2    0    0  0.15920457771E+02 -0.39969123672E+02 -0.57123235654E+01  0.43400719617E+02  0.00000000000E+00 0. -1.
         11    1    3    3    0    0  0.19112095135E+01  0.21227658599E+01  0.25362107205E+00  0.28676088662E+01  0.51100000000E-03 0. -1.
        -11    1    3    3    0    0 -0.18190215167E+02  0.34314017764E+02  0.90412441582E+01  0.39875805185E+02  0.51100000000E-03 0.  1.
        -12    1    3    3    0    0  0.35854788280E+00  0.35323400480E+01 -0.35825416648E+01  0.50438663324E+01  0.00000000000E+00 0.  1.
</event>
<event>
 7    1  0.2751796E-010  0.4778727E+02  0.7816164E-02  0.1312668E+00
        -11   -1    0    0    0    0  0.00000000000E+00  0.00000000000E+00  0.45593999997E+02  0.45594000000E+02  0.51100000000E-03 0.  1.
         11   -1    0    0    0    0 -0.00000000000E+00 -0.00000000000E+00 -0.45593999997E+02  0.45594000000E+02  0.51100000000E-03 0. -1.
    9900012    2    1    2    0    0 -0.95686162139E+01  0.76479157634E+01  0.41636211412E+02  0.47787272673E+02  0.20000007425E+02 0.  0.
         12    1    1    2    0    0  0.95686162139E+01 -0.76479157634E+01 -0.41636211412E+02  0.43400727327E+02  0.00000000000E+00 0. -1.
         11    1    3    3    0    0  0.19837821071E+01  0.27769285349E+01  0.21916456697E+00  0.34197597730E+01  0.51100000000E-03 0. -1.
        -11    1    3    3    0    0  0.26869147375E+00  0.15475602316E+01  0.50113178574E+00  0.16487180191E+01  0.51100000000E-03 0.  1.
        -12    1    3    3    0    0 -0.11821089795E+02  0.33234269968E+01  0.40915915059E+02  0.42718794881E+02  0.00000000000E+00 0.  1.
</event>
<event>
 7    1  0.2751796E-010  0.4778727E+02  0.7816164E-02  0.1312668E+00
        -11   -1    0    0    0    0  0.00000000000E+00  0.00000000000E+00  0.45593999997E+02  0.45594000000E+02  0.51100000000E-03 0.  1.
         11   -1    0    0    0    0 -0.00000000000E+00 -0.00000000000E+00 -0.45593999997E+02  0.45594000000E+02  0.51100000000E-03 0. -1.
    9900012    2    1    2    0    0 -0.25411936604E+02  0.20427792818E+02  0.28645452988E+02  0.47787271685E+02  0.20000002919E+02 0.  0.
         12    1    1    2    0    0  0.25411936604E+02 -0.20427792818E+02 -0.28645452988E+02  0.43400728315E+02  0.00000000000E+00 0. -1.
         11    1    3    3    0    0 -0.74442263296E+00  0.54093066885E+01  0.48791606907E+00  0.54820458096E+01  0.51100000000E-03 0. -1.
        -11    1    3    3    0    0 -0.15196160845E+02  0.18579656417E+01  0.12488792983E+02  0.19757157974E+02  0.51100000000E-03 0.  1.
        -12    1    3    3    0    0 -0.94713531254E+01  0.13160520488E+02  0.15668743936E+02  0.22548067901E+02  0.00000000000E+00 0.  1.
</event>
<event>
 7    1  0.2751796E-010  0.4778726E+02  0.7816164E-02  0.1312668E+00
        -11   -1    0    0    0    0  0.00000000000E+00  0.00000000000E+00  0.45593999997E+02  0.45594000000E+02  0.51100000000E-03 0.  1.
         11   -1    0    0    0    0 -0.00000000000E+00 -0.00000000000E+00 -0.45593999997E+02  0.45594000000E+02  0.51100000000E-03 0. -1.
    9900012    2    1    2    0    0 -0.31710003321E+01 -0.30144694392E+02  0.31062299669E+02  0.47787259179E+02  0.19999945900E+02 0.  0.
         12    1    1    2    0    0  0.31710003321E+01  0.30144694392E+02 -0.31062299669E+02  0.43400740821E+02  0.00000000000E+00 0. -1.
         11    1    3    3    0    0 -0.94287474958E+01 -0.97117151113E+01  0.16214314493E+02  0.21121616521E+02  0.51100000000E-03 0. -1.
        -11    1    3    3    0    0  0.52400674626E+01 -0.94833148075E+01  0.96206827056E+01  0.14489620517E+02  0.51100000000E-03 0.  1.
         12    1    3    3    0    0  0.10176797011E+01 -0.10949664473E+02  0.52273024710E+01  0.12176022140E+02  0.00000000000E+00 0. -1.
</event>
<event>
 7    1  0.2751796E-010  0.4778727E+02  0.7816164E-02  0.1312668E+00
        -11   -1    0    0    0    0  0.00000000000E+00  0.00000000000E+00  0.45593999997E+02  0.45594000000E+02  0.51100000000E-03 0. -1.
         11   -1    0    0    0    0 -0.00000000000E+00 -0.00000000000E+00 -0.45593999997E+02  0.45594000000E+02  0.51100000000E-03 0.  1.
    9900012    2    1    2    0    0 -0.21716135793E+02 -0.36708781339E+02 -0.80310514167E+01  0.47787274568E+02  0.20000016065E+02 0.  0.
         12    1    1    2    0    0  0.21716135793E+02  0.36708781339E+02  0.80310514167E+01  0.43400725432E+02  0.00000000000E+00 0. -1.
         11    1    3    3    0    0  0.91822977942E+00  0.70244340902E+00  0.25733059096E+00  0.11843951895E+01  0.51100000000E-03 0. -1.
        -11    1    3    3    0    0 -0.15681749738E+02 -0.26141413845E+02 -0.12139318424E+02  0.32812403824E+02  0.51100000000E-03 0.  1.
        -12    1    3    3    0    0 -0.69526158342E+01 -0.11269810903E+02  0.38509364166E+01  0.13790475554E+02  0.00000000000E+00 0.  1.
</event>
<event>
 7    1  0.2751796E-010  0.4778727E+02  0.7816164E-02  0.1312668E+00
        -11   -1    0    0    0    0  0.00000000000E+00  0.00000000000E+00  0.45593999997E+02  0.45594000000E+02  0.51100000000E-03 0.  1.
         11   -1    0    0    0    0 -0.00000000000E+00 -0.00000000000E+00 -0.45593999997E+02  0.45594000000E+02  0.51100000000E-03 0. -1.
    9900012    2    1    2    0    0 -0.32913936501E+02 -0.19376215821E+01  0.28223067348E+02  0.47787272772E+02  0.20000007876E+02 0.  0.
         12    1    1    2    0    0  0.32913936501E+02  0.19376215821E+01 -0.28223067348E+02  0.43400727228E+02  0.00000000000E+00 0. -1.
         11    1    3    3    0    0 -0.25360610662E+02 -0.74309806819E+01  0.14517600786E+02  0.30151961460E+02  0.51100000000E-03 0. -1.
        -11    1    3    3    0    0 -0.76583647123E+01  0.43213584963E+01  0.13894734108E+02  0.16443488849E+02  0.51100000000E-03 0.  1.
         12    1    3    3    0    0  0.10503887292E+00  0.11720006035E+01 -0.18926754651E+00  0.11918224631E+01  0.00000000000E+00 0. -1.
</event>
<event>
 7    1  0.2751796E-010  0.4778727E+02  0.7816164E-02  0.1312668E+00
        -11   -1    0    0    0    0  0.00000000000E+00  0.00000000000E+00  0.45593999997E+02  0.45594000000E+02  0.51100000000E-03 0.  1.
         11   -1    0    0    0    0 -0.00000000000E+00 -0.00000000000E+00 -0.45593999997E+02  0.45594000000E+02  0.51100000000E-03 0. -1.
    9900012    2    1    2    0    0  0.36103705031E+02 -0.11492054898E+02  0.21167860843E+02  0.47787272179E+02  0.20000005172E+02 0.  0.
         12    1    1    2    0    0 -0.36103705031E+02  0.11492054898E+02 -0.21167860843E+02  0.43400727821E+02  0.00000000000E+00 0. -1.
         11    1    3    3    0    0  0.18638173639E+02 -0.18289925560E+01  0.34549002594E+01  0.19043714618E+02  0.51100000000E-03 0. -1.
        -11    1    3    3    0    0  0.80583479854E+01 -0.10440933127E+02  0.10720430376E+02  0.16996402106E+02  0.51100000000E-03 0.  1.
        -12    1    3    3    0    0  0.94071834061E+01  0.77787078533E+00  0.69925302075E+01  0.11747155456E+02  0.00000000000E+00 0.  1.
</event>
<event>
 7    1  0.2751796E-010  0.4778727E+02  0.7816164E-02  0.1312668E+00
        -11   -1    0    0    0    0  0.00000000000E+00  0.00000000000E+00  0.45593999997E+02  0.45594000000E+02  0.51100000000E-03 0. -1.
         11   -1    0    0    0    0 -0.00000000000E+00 -0.00000000000E+00 -0.45593999997E+02  0.45594000000E+02  0.51100000000E-03 0.  1.
    9900012    2    1    2    0    0 -0.23779684034E+02 -0.24553702744E+02 -0.26744450604E+02  0.47787270406E+02  0.19999997088E+02 0.  0.
         12    1    1    2    0    0  0.23779684034E+02  0.24553702744E+02  0.26744450604E+02  0.43400729594E+02  0.00000000000E+00 0. -1.
         11    1    3    3    0    0 -0.17707207284E+02 -0.20065107141E+02 -0.22086493634E+02  0.34698226405E+02  0.51100000000E-03 0. -1.
        -11    1    3    3    0    0 -0.85905914767E+01 -0.44347189834E+01 -0.32260764575E+01  0.10191789046E+02  0.51100000000E-03 0.  1.
         12    1    3    3    0    0  0.25181147273E+01 -0.53876620440E-01 -0.14318805124E+01  0.28972549546E+01  0.00000000000E+00 0. -1.
</event>
<event>
 7    1  0.2751796E-010  0.4778727E+02  0.7816164E-02  0.1312668E+00
        -11   -1    0    0    0    0  0.00000000000E+00  0.00000000000E+00  0.45593999997E+02  0.45594000000E+02  0.51100000000E-03 0.  1.
         11   -1    0    0    0    0 -0.00000000000E+00 -0.00000000000E+00 -0.45593999997E+02  0.45594000000E+02  0.51100000000E-03 0. -1.
    9900012    2    1    2    0    0 -0.23916355698E+02  0.22766628796E+02  0.28165791947E+02  0.47787270829E+02  0.19999999016E+02 0.  0.
         12    1    1    2    0    0  0.23916355698E+02 -0.22766628796E+02 -0.28165791947E+02  0.43400729171E+02  0.00000000000E+00 0. -1.
         11    1    3    3    0    0 -0.10950224532E+02  0.14039596315E+02  0.19900183501E+02  0.26702714949E+02  0.51100000000E-03 0. -1.
        -11    1    3    3    0    0 -0.53006413095E+01 -0.18860220802E+01  0.51494029903E+01  0.76269409986E+01  0.51100000000E-03 0.  1.
         12    1    3    3    0    0 -0.76654898566E+01  0.10613054561E+02  0.31162054558E+01  0.13457614881E+02  0.00000000000E+00 0. -1.
</event>
<event>
 7    1  0.2751796E-010  0.4778727E+02  0.7816164E-02  0.1312668E+00
        -11   -1    0    0    0    0  0.00000000000E+00  0.00000000000E+00  0.45593999997E+02  0.45594000000E+02  0.51100000000E-03 0.  1.
         11   -1    0    0    0    0 -0.00000000000E+00 -0.00000000000E+00 -0.45593999997E+02  0.45594000000E+02  0.51100000000E-03 0. -1.
    9900012    2    1    2    0    0 -0.73082906093E+01  0.42656490266E+02  0.32613223952E+01  0.47787268472E+02  0.19999988271E+02 0.  0.
         12    1    1    2    0    0  0.73082906093E+01 -0.42656490266E+02 -0.32613223952E+01  0.43400731528E+02  0.00000000000E+00 0. -1.
         11    1    3    3    0    0  0.37858206631E+01  0.24232109161E+01  0.19940343655E+01  0.49173735417E+01  0.51100000000E-03 0. -1.
        -11    1    3    3    0    0 -0.45089248161E+01  0.21202448248E+02 -0.40273666340E+01  0.22047537209E+02  0.51100000000E-03 0.  1.
         12    1    3    3    0    0 -0.65851864562E+01  0.19030831102E+02  0.52946546637E+01  0.20822357722E+02  0.00000000000E+00 0. -1.
</event>
<event>
 7    1  0.2751796E-010  0.4778730E+02  0.7816164E-02  0.1312668E+00
        -11   -1    0    0    0    0  0.00000000000E+00  0.00000000000E+00  0.45593999997E+02  0.45594000000E+02  0.51100000000E-03 0.  1.
         11   -1    0    0    0    0 -0.00000000000E+00 -0.00000000000E+00 -0.45593999997E+02  0.45594000000E+02  0.51100000000E-03 0. -1.
    9900012    2    1    2    0    0 -0.10583905031E+02 -0.77682844571E+01  0.41367327631E+02  0.47787296268E+02  0.20000115004E+02 0.  0.
         12    1    1    2    0    0  0.10583905031E+02  0.77682844571E+01 -0.41367327631E+02  0.43400703732E+02  0.00000000000E+00 0. -1.
         11    1    3    3    0    0 -0.12893935067E+02 -0.17987809927E+01  0.16924113572E+02  0.21352161367E+02  0.51100000000E-03 0. -1.
        -11    1    3    3    0    0  0.24034159254E+01 -0.44664795893E+01  0.24407345255E+02  0.24928785584E+02  0.51100000000E-03 0.  1.
         12    1    3    3    0    0 -0.93385889212E-01 -0.15030238751E+01  0.35868803477E-01  0.15063493169E+01  0.00000000000E+00 0. -1.
</event>
<event>
 7    1  0.2751796E-010  0.4778727E+02  0.7816164E-02  0.1312668E+00
        -11   -1    0    0    0    0  0.00000000000E+00  0.00000000000E+00  0.45593999997E+02  0.45594000000E+02  0.51100000000E-03 0.  1.
         11   -1    0    0    0    0 -0.00000000000E+00 -0.00000000000E+00 -0.45593999997E+02  0.45594000000E+02  0.51100000000E-03 0. -1.
    9900012    2    1    2    0    0  0.51789173484E+00  0.41891290135E+02  0.11334683847E+02  0.47787268913E+02  0.19999990280E+02 0.  0.
         12    1    1    2    0    0 -0.51789173484E+00 -0.41891290135E+02 -0.11334683847E+02  0.43400731087E+02  0.00000000000E+00 0. -1.
         11    1    3    3    0    0 -0.49758238966E+01  0.59608082816E+01 -0.13429678466E+00  0.77658286556E+01  0.51100000000E-03 0. -1.
        -11    1    3    3    0    0  0.30184200694E+01  0.29831739000E+02  0.43026772113E+01  0.30291195799E+02  0.51100000000E-03 0.  1.
        -12    1    3    3    0    0  0.24752955620E+01  0.60987428534E+01  0.71663034200E+01  0.97302444583E+01  0.00000000000E+00 0.  1.
</event>
<event>
 7    1  0.2751796E-010  0.4778728E+02  0.7816164E-02  0.1312668E+00
        -11   -1    0    0    0    0  0.00000000000E+00  0.00000000000E+00  0.45593999997E+02  0.45594000000E+02  0.51100000000E-03 0.  1.
         11   -1    0    0    0    0 -0.00000000000E+00 -0.00000000000E+00 -0.45593999997E+02  0.45594000000E+02  0.51100000000E-03 0. -1.
    9900012    2    1    2    0    0  0.34475904981E+02 -0.31485698498E+01  0.26174815871E+02  0.47787279934E+02  0.20000040533E+02 0.  0.
         12    1    1    2    0    0 -0.34475904981E+02  0.31485698498E+01 -0.26174815871E+02  0.43400720066E+02  0.00000000000E+00 0. -1.
         11    1    3    3    0    0  0.19153457064E+02 -0.82912474815E+01  0.20850873975E+02  0.29501841436E+02  0.51100000000E-03 0. -1.
        -11    1    3    3    0    0  0.41307726910E+01  0.23982049411E+01 -0.13570117631E+01  0.49654960629E+01  0.51100000000E-03 0.  1.
         12    1    3    3    0    0  0.11191675225E+02  0.27444726905E+01  0.66809536589E+01  0.13319942436E+02  0.00000000000E+00 0. -1.
</event>
<event>
 7    1  0.2751796E-010  0.4778727E+02  0.7816164E-02  0.1312668E+00
        -11   -1    0    0    0    0  0.00000000000E+00  0.00000000000E+00  0.45593999997E+02  0.45594000000E+02  0.51100000000E-03 0. -1.
         11   -1    0    0    0    0 -0.00000000000E+00 -0.00000000000E+00 -0.45593999997E+02  0.45594000000E+02  0.51100000000E-03 0.  1.
    9900012    2    1    2    0    0  0.22863421967E+02  0.36025589783E+02  0.79400412151E+01  0.47787269156E+02  0.19999991390E+02 0.  0.
         12    1    1    2    0    0 -0.22863421967E+02 -0.36025589783E+02 -0.79400412151E+01  0.43400730844E+02  0.00000000000E+00 0. -1.
         11    1    3    3    0    0  0.12305760196E+02  0.30299249600E+02  0.25538224456E+01  0.32802412558E+02  0.51100000000E-03 0. -1.
        -11    1    3    3    0    0  0.10807360679E+02  0.42136641756E+01  0.27280144124E+01  0.11916210536E+02  0.51100000000E-03 0.  1.
        -12    1    3    3    0    0 -0.24969890780E+00  0.15126760077E+01  0.26582043572E+01  0.30686460619E+01  0.00000000000E+00 0.  1.
</event>
<event>
 7    1  0.2751796E-010  0.4778727E+02  0.7816164E-02  0.1312668E+00
        -11   -1    0    0    0    0  0.00000000000E+00  0.00000000000E+00  0.45593999997E+02  0.45594000000E+02  0.51100000000E-03 0.  1.
         11   -1    0    0    0    0 -0.00000000000E+00 -0.00000000000E+00 -0.45593999997E+02  0.45594000000E+02  0.51100000000E-03 0. -1.
    9900012    2    1    2    0    0  0.30997921243E+02  0.15605000479E+02  0.26062159018E+02  0.47787270812E+02  0.19999998942E+02 0.  0.
         12    1    1    2    0    0 -0.30997921243E+02 -0.15605000479E+02 -0.26062159018E+02  0.43400729188E+02  0.00000000000E+00 0. -1.
         11    1    3    3    0    0  0.43551377384E+01  0.66842767186E+01 -0.14910794915E+01  0.81160395688E+01  0.51100000000E-03 0. -1.
        -11    1    3    3    0    0  0.16641694177E+02  0.30290801916E+01  0.17049000061E+02  0.24016446765E+02  0.51100000000E-03 0.  1.
        -12    1    3    3    0    0  0.10001089328E+02  0.58916435687E+01  0.10504238449E+02  0.15654784479E+02  0.00000000000E+00 0.  1.
</event>
<event>
 7    1  0.2751796E-010  0.4778727E+02  0.7816164E-02  0.1312668E+00
        -11   -1    0    0    0    0  0.00000000000E+00  0.00000000000E+00  0.45593999997E+02  0.45594000000E+02  0.51100000000E-03 0. -1.
         11   -1    0    0    0    0 -0.00000000000E+00 -0.00000000000E+00 -0.45593999997E+02  0.45594000000E+02  0.51100000000E-03 0.  1.
    9900012    2    1    2    0    0 -0.24440772708E+02  0.30538226070E+02  0.18806613631E+02  0.47787270302E+02  0.19999996615E+02 0.  0.
         12    1    1    2    0    0  0.24440772708E+02 -0.30538226070E+02 -0.18806613631E+02  0.43400729698E+02  0.00000000000E+00 0. -1.
         11    1    3    3    0    0 -0.12544490909E+02  0.15676935109E+02  0.33707000872E+01  0.20359080675E+02  0.51100000000E-03 0.  1.
        -11    1    3    3    0    0 -0.60823316553E+01  0.11142596043E+02  0.16090998591E+02  0.20495668831E+02  0.51100000000E-03 0. -1.
        -12    1    3    3    0    0 -0.58139501435E+01  0.37186949184E+01 -0.65508504713E+00  0.69325207959E+01  0.00000000000E+00 0.  1.
</event>
<event>
 7    1  0.2751796E-010  0.4778727E+02  0.7816164E-02  0.1312668E+00
        -11   -1    0    0    0    0  0.00000000000E+00  0.00000000000E+00  0.45593999997E+02  0.45594000000E+02  0.51100000000E-03 0. -1.
         11   -1    0    0    0    0 -0.00000000000E+00 -0.00000000000E+00 -0.45593999997E+02  0.45594000000E+02  0.51100000000E-03 0.  1.
    9900012    2    1    2    0    0  0.16569882989E+02 -0.44897591609E+00 -0.40110608985E+02  0.47787267808E+02  0.19999985244E+02 0.  0.
         12    1    1    2    0    0 -0.16569882989E+02  0.44897591609E+00  0.40110608985E+02  0.43400732192E+02  0.00000000000E+00 0. -1.
         11    1    3    3    0    0 -0.15872275332E+01  0.36188561435E+01 -0.60552573262E+01  0.72305983554E+01  0.51100000000E-03 0. -1.
        -11    1    3    3    0    0  0.66645275741E+01 -0.74760958356E+01 -0.16402022270E+02  0.19218071483E+02  0.51100000000E-03 0.  1.
        -12    1    3    3    0    0  0.11492582948E+02  0.34082637761E+01 -0.17653329389E+02  0.21338597969E+02  0.00000000000E+00 0.  1.
</event>
<event>
 7    1  0.2751796E-010  0.4778727E+02  0.7816164E-02  0.1312668E+00
        -11   -1    0    0    0    0  0.00000000000E+00  0.00000000000E+00  0.45593999997E+02  0.45594000000E+02  0.51100000000E-03 0.  1.
         11   -1    0    0    0    0 -0.00000000000E+00 -0.00000000000E+00 -0.45593999997E+02  0.45594000000E+02  0.51100000000E-03 0. -1.
    9900012    2    1    2    0    0 -0.24007254829E+02  0.15325352203E+02  0.32747650814E+02  0.47787270301E+02  0.19999996610E+02 0.  0.
         12    1    1    2    0    0  0.24007254829E+02 -0.15325352203E+02 -0.32747650814E+02  0.43400729699E+02  0.00000000000E+00 0. -1.
         11    1    3    3    0    0 -0.90521575250E+01  0.12143926992E+02  0.22277181230E+02  0.26938621391E+02  0.51100000000E-03 0. -1.
        -11    1    3    3    0    0 -0.37362051820E+01  0.11102475325E+01  0.83911884637E+01  0.92522388015E+01  0.51100000000E-03 0.  1.
         12    1    3    3    0    0 -0.11218892122E+02  0.20711776790E+01  0.20792811206E+01  0.11596410109E+02  0.00000000000E+00 0. -1.
</event>
<event>
 7    1  0.2751796E-010  0.4778727E+02  0.7816164E-02  0.1312668E+00
        -11   -1    0    0    0    0  0.00000000000E+00  0.00000000000E+00  0.45593999997E+02  0.45594000000E+02  0.51100000000E-03 0.  1.
         11   -1    0    0    0    0 -0.00000000000E+00 -0.00000000000E+00 -0.45593999997E+02  0.45594000000E+02  0.51100000000E-03 0. -1.
    9900012    2    1    2    0    0  0.13837851744E+02 -0.40037156809E+02  0.94426291674E+01  0.47787270607E+02  0.19999998006E+02 0.  0.
         12    1    1    2    0    0 -0.13837851744E+02  0.40037156809E+02 -0.94426291674E+01  0.43400729393E+02  0.00000000000E+00 0. -1.
         11    1    3    3    0    0 -0.98353013837E+00 -0.25166468840E+00 -0.10795114949E+01  0.14818947254E+01  0.51100000000E-03 0. -1.
        -11    1    3    3    0    0  0.77565133806E+01 -0.17774331564E+02 -0.28467357711E+01  0.19600874143E+02  0.51100000000E-03 0.  1.
        -12    1    3    3    0    0  0.70648685022E+01 -0.22011160557E+02  0.13368876433E+02  0.26704501739E+02  0.00000000000E+00 0.  1.
</event>
<event>
 7    1  0.2751796E-010  0.4778727E+02  0.7816164E-02  0.1312668E+00
        -11   -1    0    0    0    0  0.00000000000E+00  0.00000000000E+00  0.45593999997E+02  0.45594000000E+02  0.51100000000E-03 0. -1.
         11   -1    0    0    0    0 -0.00000000000E+00 -0.00000000000E+00 -0.45593999997E+02  0.45594000000E+02  0.51100000000E-03 0.  1.
    9900012    2    1    2    0    0  0.20322166862E+02  0.38099703994E+02 -0.43640772345E+01  0.47787273272E+02  0.20000010158E+02 0.  0.
         12    1    1    2    0    0 -0.20322166862E+02 -0.38099703994E+02  0.43640772345E+01  0.43400726728E+02  0.00000000000E+00 0. -1.
         11    1    3    3    0    0  0.10961729009E+02  0.23811367932E+02 -0.52846967624E+01  0.26740769731E+02  0.51100000000E-03 0. -1.
        -11    1    3    3    0    0  0.51151250520E+01  0.15182105947E+02 -0.14789149956E+01  0.16088754928E+02  0.51100000000E-03 0.  1.
         12    1    3    3    0    0  0.42453128014E+01 -0.89376988593E+00  0.23995345236E+01  0.49577486141E+01  0.00000000000E+00 0. -1.
</event>
<event>
 7    1  0.2751796E-010  0.4778727E+02  0.7816164E-02  0.1312668E+00
        -11   -1    0    0    0    0  0.00000000000E+00  0.00000000000E+00  0.45593999997E+02  0.45594000000E+02  0.51100000000E-03 0.  1.
         11   -1    0    0    0    0 -0.00000000000E+00 -0.00000000000E+00 -0.45593999997E+02  0.45594000000E+02  0.51100000000E-03 0. -1.
    9900012    2    1    2    0    0  0.19183070900E+02 -0.14188069738E+02  0.36253715677E+02  0.47787269217E+02  0.19999991669E+02 0.  0.
         12    1    1    2    0    0 -0.19183070900E+02  0.14188069738E+02 -0.36253715677E+02  0.43400730783E+02  0.00000000000E+00 0. -1.
         11    1    3    3    0    0  0.10676324639E+01 -0.91754210738E+01  0.14930609105E+02  0.17557086303E+02  0.51100000000E-03 0. -1.
        -11    1    3    3    0    0  0.40376285445E+01 -0.45195932923E+01  0.11681629018E+02  0.13160152909E+02  0.51100000000E-03 0.  1.
         12    1    3    3    0    0  0.14077809892E+02 -0.49305537213E+00  0.96414775539E+01  0.17070030005E+02  0.00000000000E+00 0. -1.
</event>
<event>
 7    1  0.2751796E-010  0.4778728E+02  0.7816164E-02  0.1312668E+00
        -11   -1    0    0    0    0  0.00000000000E+00  0.00000000000E+00  0.45593999997E+02  0.45594000000E+02  0.51100000000E-03 0.  1.
         11   -1    0    0    0    0 -0.00000000000E+00 -0.00000000000E+00 -0.45593999997E+02  0.45594000000E+02  0.51100000000E-03 0. -1.
    9900012    2    1    2    0    0 -0.27482225833E+02 -0.12466201282E+02  0.31192043048E+02  0.47787280413E+02  0.20000042715E+02 0.  0.
         12    1    1    2    0    0  0.27482225833E+02  0.12466201282E+02 -0.31192043048E+02  0.43400719587E+02  0.00000000000E+00 0. -1.
         11    1    3    3    0    0 -0.31302735830E+01  0.27696457362E+01  0.49299840892E+01  0.64633036126E+01  0.51100000000E-03 0. -1.
        -11    1    3    3    0    0 -0.21627323643E+02 -0.75506967248E+01  0.14855481022E+02  0.27302737329E+02  0.51100000000E-03 0.  1.
        -12    1    3    3    0    0 -0.27246286072E+01 -0.76851502936E+01  0.11406577937E+02  0.14021239472E+02  0.00000000000E+00 0.  1.
</event>
<event>
 7    1  0.2751796E-010  0.4778732E+02  0.7816164E-02  0.1312668E+00
        -11   -1    0    0    0    0  0.00000000000E+00  0.00000000000E+00  0.45593999997E+02  0.45594000000E+02  0.51100000000E-03 0. -1.
         11   -1    0    0    0    0 -0.00000000000E+00 -0.00000000000E+00 -0.45593999997E+02  0.45594000000E+02  0.51100000000E-03 0.  1.
    9900012    2    1    2    0    0  0.10453803408E+02  0.17927449441E+02 -0.38117499110E+02  0.47787318120E+02  0.20000214637E+02 0.  0.
         12    1    1    2    0    0 -0.10453803408E+02 -0.17927449441E+02  0.38117499110E+02  0.43400681880E+02  0.00000000000E+00 0. -1.
         11    1    3    3    0    0 -0.34418923686E+01  0.72133563207E+01 -0.12271994675E+02  0.14645169376E+02  0.51100000000E-03 0. -1.
        -11    1    3    3    0    0  0.97977798465E+01  0.67723192389E+00 -0.13778006514E+02  0.16920064916E+02  0.51100000000E-03 0.  1.
        -12    1    3    3    0    0  0.40979159302E+01  0.10036861197E+02 -0.12067497921E+02  0.16222083828E+02  0.00000000000E+00 0.  1.
</event>
<event>
 7    1  0.2751796E-010  0.4778727E+02  0.7816164E-02  0.1312668E+00
        -11   -1    0    0    0    0  0.00000000000E+00  0.00000000000E+00  0.45593999997E+02  0.45594000000E+02  0.51100000000E-03 0. -1.
         11   -1    0    0    0    0 -0.00000000000E+00 -0.00000000000E+00 -0.45593999997E+02  0.45594000000E+02  0.51100000000E-03 0.  1.
    9900012    2    1    2    0    0  0.36951581800E+02 -0.15757058752E+02 -0.16429207969E+02  0.47787272213E+02  0.20000005327E+02 0.  0.
         12    1    1    2    0    0 -0.36951581800E+02  0.15757058752E+02  0.16429207969E+02  0.43400727787E+02  0.00000000000E+00 0. -1.
         11    1    3    3    0    0  0.27891075997E+02 -0.90635815005E+01 -0.49138737680E+01  0.29735614767E+02  0.51100000000E-03 0. -1.
        -11    1    3    3    0    0  0.84791481024E+01 -0.14454008579E+01 -0.76028207861E+01  0.11479896356E+02  0.51100000000E-03 0.  1.
         12    1    3    3    0    0  0.58135770033E+00 -0.52480763933E+01 -0.39125134143E+01  0.65717610900E+01  0.00000000000E+00 0. -1.
</event>
<event>
 7    1  0.2751796E-010  0.4778728E+02  0.7816164E-02  0.1312668E+00
        -11   -1    0    0    0    0  0.00000000000E+00  0.00000000000E+00  0.45593999997E+02  0.45594000000E+02  0.51100000000E-03 0.  1.
         11   -1    0    0    0    0 -0.00000000000E+00 -0.00000000000E+00 -0.45593999997E+02  0.45594000000E+02  0.51100000000E-03 0. -1.
    9900012    2    1    2    0    0 -0.15664997193E+01 -0.92017079325E+01  0.42385103754E+02  0.47787281452E+02  0.20000047452E+02 0.  0.
         12    1    1    2    0    0  0.15664997193E+01  0.92017079325E+01 -0.42385103754E+02  0.43400718548E+02  0.00000000000E+00 0. -1.
         11    1    3    3    0    0 -0.86830491138E+01 -0.84837170360E+01  0.15997301854E+02  0.20081893923E+02  0.51100000000E-03 0. -1.
        -11    1    3    3    0    0  0.52358107971E+01  0.61561853650E+00  0.23072998704E+02  0.23667614378E+02  0.51100000000E-03 0.  1.
         12    1    3    3    0    0  0.18807385975E+01 -0.13336094330E+01  0.33148031964E+01  0.40377731515E+01  0.00000000000E+00 0. -1.
</event>
<event>
 7    1  0.2751796E-010  0.4778727E+02  0.7816164E-02  0.1312668E+00
        -11   -1    0    0    0    0  0.00000000000E+00  0.00000000000E+00  0.45593999997E+02  0.45594000000E+02  0.51100000000E-03 0.  1.
         11   -1    0    0    0    0 -0.00000000000E+00 -0.00000000000E+00 -0.45593999997E+02  0.45594000000E+02  0.51100000000E-03 0. -1.
    9900012    2    1    2    0    0 -0.23962267348E+02 -0.20867736192E+02  0.29562995412E+02  0.47787269961E+02  0.19999995059E+02 0.  0.
         12    1    1    2    0    0  0.23962267348E+02  0.20867736192E+02 -0.29562995412E+02  0.43400730039E+02  0.00000000000E+00 0. -1.
         11    1    3    3    0    0 -0.88192196137E+01 -0.13847669273E+02  0.21338421835E+02  0.26923313792E+02  0.51100000000E-03 0.  1.
        -11    1    3    3    0    0 -0.16227213174E+02 -0.57630360513E+01  0.84621598914E+01  0.19187057675E+02  0.51100000000E-03 0. -1.
         12    1    3    3    0    0  0.10841654401E+01 -0.12570308669E+01 -0.23758631405E+00  0.16768984937E+01  0.00000000000E+00 0. -1.
</event>
<event>
 7    1  0.2751796E-010  0.4778727E+02  0.7816164E-02  0.1312668E+00
        -11   -1    0    0    0    0  0.00000000000E+00  0.00000000000E+00  0.45593999997E+02  0.45594000000E+02  0.51100000000E-03 0. -1.
         11   -1    0    0    0    0 -0.00000000000E+00 -0.00000000000E+00 -0.45593999997E+02  0.45594000000E+02  0.51100000000E-03 0.  1.
    9900012    2    1    2    0    0  0.12340594707E+01  0.22773198236E+02 -0.36925353279E+02  0.47787272178E+02  0.20000005167E+02 0.  0.
         12    1    1    2    0    0 -0.12340594707E+01 -0.22773198236E+02  0.36925353279E+02  0.43400727822E+02  0.00000000000E+00 0. -1.
         11    1    3    3    0    0  0.19774942559E+00  0.17061671411E+02 -0.12403642164E+02  0.21094787872E+02  0.51100000000E-03 0. -1.
        -11    1    3    3    0    0 -0.10137971762E+01  0.66190712780E+01 -0.23068436863E+02  0.24020671699E+02  0.51100000000E-03 0.  1.
        -12    1    3    3    0    0  0.20501072213E+01 -0.90754445297E+00 -0.14532742524E+01  0.26718126068E+01  0.00000000000E+00 0.  1.
</event>
<event>
 7    1  0.2751796E-010  0.4778726E+02  0.7816164E-02  0.1312668E+00
        -11   -1    0    0    0    0  0.00000000000E+00  0.00000000000E+00  0.45593999997E+02  0.45594000000E+02  0.51100000000E-03 0.  1.
         11   -1    0    0    0    0 -0.00000000000E+00 -0.00000000000E+00 -0.45593999997E+02  0.45594000000E+02  0.51100000000E-03 0. -1.
    9900012    2    1    2    0    0  0.14469377562E+02  0.40606164000E+02  0.50398768197E+01  0.47787264981E+02  0.19999972354E+02 0.  0.
         12    1    1    2    0    0 -0.14469377562E+02 -0.40606164000E+02 -0.50398768197E+01  0.43400735019E+02  0.00000000000E+00 0. -1.
         11    1    3    3    0    0  0.74157226900E+01  0.84552851111E+01  0.46451803928E+01  0.12168093132E+02  0.51100000000E-03 0. -1.
        -11    1    3    3    0    0  0.17515802184E+00  0.52110646852E+01 -0.50818392022E+01  0.72808629587E+01  0.51100000000E-03 0.  1.
        -12    1    3    3    0    0  0.68784968502E+01  0.26939814204E+02  0.54765356290E+01  0.28338308890E+02  0.00000000000E+00 0.  1.
</event>
<event>
 7    1  0.2751796E-010  0.4778728E+02  0.7816164E-02  0.1312668E+00
        -11   -1    0    0    0    0  0.00000000000E+00  0.00000000000E+00  0.45593999997E+02  0.45594000000E+02  0.51100000000E-03 0. -1.
         11   -1    0    0    0    0 -0.00000000000E+00 -0.00000000000E+00 -0.45593999997E+02  0.45594000000E+02  0.51100000000E-03 0.  1.
    9900012    2    1    2    0    0 -0.15812966565E+02 -0.28088604458E+02 -0.29062057865E+02  0.47787276281E+02  0.20000023876E+02 0.  0.
         12    1    1    2    0    0  0.15812966565E+02  0.28088604458E+02  0.29062057865E+02  0.43400723719E+02  0.00000000000E+00 0. -1.
         11    1    3    3    0    0  0.31817864070E+01 -0.86981176370E+01 -0.35831495371E+01  0.99307590864E+01  0.51100000000E-03 0. -1.
        -11    1    3    3    0    0 -0.19399380547E+02 -0.19536620903E+02 -0.24811456259E+02  0.37062432245E+02  0.51100000000E-03 0.  1.
        -12    1    3    3    0    0  0.40462757512E+00  0.14613408193E+00 -0.66745206834E+00  0.79408495010E+00  0.00000000000E+00 0.  1.
</event>
<event>
 7    1  0.2751796E-010  0.4778727E+02  0.7816164E-02  0.1312668E+00
        -11   -1    0    0    0    0  0.00000000000E+00  0.00000000000E+00  0.45593999997E+02  0.45594000000E+02  0.51100000000E-03 0.  1.
         11   -1    0    0    0    0 -0.00000000000E+00 -0.00000000000E+00 -0.45593999997E+02  0.45594000000E+02  0.51100000000E-03 0. -1.
    9900012    2    1    2    0    0  0.13358711259E+02  0.27999376317E+01  0.41198645307E+02  0.47787271983E+02  0.20000004280E+02 0.  0.
         12    1    1    2    0    0 -0.13358711259E+02 -0.27999376317E+01 -0.41198645307E+02  0.43400728017E+02  0.00000000000E+00 0. -1.
         11    1    3    3    0    0  0.44046026376E+00 -0.15869972159E+01  0.28018979797E+02  0.28067343916E+02  0.51100000000E-03 0. -1.
        -11    1    3    3    0    0  0.11944140600E+02  0.45794575043E+01  0.13573816585E+02  0.18651606436E+02  0.51100000000E-03 0.  1.
         12    1    3    3    0    0  0.97411039552E+00 -0.19252265674E+00 -0.39415107496E+00  0.10683216304E+01  0.00000000000E+00 0. -1.
</event>
<event>
 7    1  0.2751796E-010  0.4778727E+02  0.7816164E-02  0.1312668E+00
        -11   -1    0    0    0    0  0.00000000000E+00  0.00000000000E+00  0.45593999997E+02  0.45594000000E+02  0.51100000000E-03 0. -1.
         11   -1    0    0    0    0 -0.00000000000E+00 -0.00000000000E+00 -0.45593999997E+02  0.45594000000E+02  0.51100000000E-03 0.  1.
    9900012    2    1    2    0    0  0.18027247510E+02 -0.98849311628E+01 -0.38222107077E+02  0.47787274358E+02  0.20000015108E+02 0.  0.
         12    1    1    2    0    0 -0.18027247510E+02  0.98849311628E+01  0.38222107077E+02  0.43400725642E+02  0.00000000000E+00 0. -1.
         11    1    3    3    0    0  0.38700816480E+01 -0.20742858573E+01  0.81442542355E+00  0.44658126709E+01  0.51100000000E-03 0. -1.
        -11    1    3    3    0    0  0.11112638156E+02 -0.10040385674E+02 -0.30072064561E+02  0.33595076105E+02  0.51100000000E-03 0.  1.
        -12    1    3    3    0    0  0.30445277052E+01  0.22297403683E+01 -0.89644679389E+01  0.97263855818E+01  0.00000000000E+00 0.  1.
</event>
<event>
 7    1  0.2751796E-010  0.4778727E+02  0.7816164E-02  0.1312668E+00
        -11   -1    0    0    0    0  0.00000000000E+00  0.00000000000E+00  0.45593999997E+02  0.45594000000E+02  0.51100000000E-03 0.  1.
         11   -1    0    0    0    0 -0.00000000000E+00 -0.00000000000E+00 -0.45593999997E+02  0.45594000000E+02  0.51100000000E-03 0. -1.
    9900012    2    1    2    0    0 -0.20619388314E+02 -0.86395376992E+01  0.37199762057E+02  0.47787273241E+02  0.20000010015E+02 0.  0.
         12    1    1    2    0    0  0.20619388314E+02  0.86395376992E+01 -0.37199762057E+02  0.43400726759E+02  0.00000000000E+00 0. -1.
         11    1    3    3    0    0 -0.10193053608E+02 -0.11700365749E+02  0.29086031564E+02  0.32966560829E+02  0.51100000000E-03 0. -1.
        -11    1    3    3    0    0 -0.72327045354E+01 -0.60190895223E+00  0.32729904291E+01  0.79615812432E+01  0.51100000000E-03 0.  1.
         12    1    3    3    0    0 -0.31936301710E+01  0.36627370023E+01  0.48407400642E+01  0.68591311685E+01  0.00000000000E+00 0. -1.
</event>
<event>
 7    1  0.2751796E-010  0.4778727E+02  0.7816164E-02  0.1312668E+00
        -11   -1    0    0    0    0  0.00000000000E+00  0.00000000000E+00  0.45593999997E+02  0.45594000000E+02  0.51100000000E-03 0. -1.
         11   -1    0    0    0    0 -0.00000000000E+00 -0.00000000000E+00 -0.45593999997E+02  0.45594000000E+02  0.51100000000E-03 0.  1.
    9900012    2    1    2    0    0 -0.14393386587E+02 -0.18267852164E+02 -0.36643406991E+02  0.47787271020E+02  0.19999999890E+02 0.  0.
         12    1    1    2    0    0  0.14393386587E+02  0.18267852164E+02  0.36643406991E+02  0.43400728980E+02  0.00000000000E+00 0. -1.
         11    1    3    3    0    0 -0.34635465871E+01 -0.50454441586E+01  0.13504907853E+00  0.61213479098E+01  0.51100000000E-03 0. -1.
        -11    1    3    3    0    0 -0.94100710733E+01 -0.60858935011E+01 -0.15181521725E+02  0.18869714875E+02  0.51100000000E-03 0.  1.
         12    1    3    3    0    0 -0.15197689261E+01 -0.71365145038E+01 -0.21596934345E+02  0.22796208236E+02  0.00000000000E+00 0. -1.
</event>
<event>
 7    1  0.2751796E-010  0.4778727E+02  0.7816164E-02  0.1312668E+00
        -11   -1    0    0    0    0  0.00000000000E+00  0.00000000000E+00  0.45593999997E+02  0.45594000000E+02  0.51100000000E-03 0.  1.
         11   -1    0    0    0    0 -0.00000000000E+00 -0.00000000000E+00 -0.45593999997E+02  0.45594000000E+02  0.51100000000E-03 0. -1.
    9900012    2    1    2    0    0 -0.37159370433E+02 -0.16577869422E+02  0.15098959628E+02  0.47787272501E+02  0.20000006643E+02 0.  0.
         12    1    1    2    0    0  0.37159370433E+02  0.16577869422E+02 -0.15098959628E+02  0.43400727499E+02  0.00000000000E+00 0. -1.
         11    1    3    3    0    0  0.14734296946E+01  0.11646101550E+01  0.15203438112E+01  0.24163520942E+01  0.51100000000E-03 0. -1.
        -11    1    3    3    0    0 -0.11349006646E+02 -0.91782094619E+01  0.60504559508E+01  0.15800237285E+02  0.51100000000E-03 0.  1.
         12    1    3    3    0    0 -0.27283793482E+02 -0.85642701147E+01  0.75281598659E+01  0.29570683122E+02  0.00000000000E+00 0. -1.
</event>
<event>
 7    1  0.2751796E-010  0.4778728E+02  0.7816164E-02  0.1312668E+00
        -11   -1    0    0    0    0  0.00000000000E+00  0.00000000000E+00  0.45593999997E+02  0.45594000000E+02  0.51100000000E-03 0.  1.
         11   -1    0    0    0    0 -0.00000000000E+00 -0.00000000000E+00 -0.45593999997E+02  0.45594000000E+02  0.51100000000E-03 0. -1.
    9900012    2    1    2    0    0  0.16150354128E+02 -0.17610520596E+02  0.36230629469E+02  0.47787275515E+02  0.20000020384E+02 0.  0.
         12    1    1    2    0    0 -0.16150354128E+02  0.17610520596E+02 -0.36230629469E+02  0.43400724485E+02  0.00000000000E+00 0. -1.
         11    1    3    3    0    0  0.18062994266E+02 -0.15541443711E+02  0.26595815226E+02  0.35709181204E+02  0.51100000000E-03 0. -1.
        -11    1    3    3    0    0 -0.14826782573E+01 -0.42806660075E+01  0.83096175906E+01  0.94642580821E+01  0.51100000000E-03 0.  1.
         12    1    3    3    0    0 -0.42996188081E+00  0.22115891224E+01  0.13251966524E+01  0.26138362291E+01  0.00000000000E+00 0. -1.
</event>
<event>
 7    1  0.2751796E-010  0.4778727E+02  0.7816164E-02  0.1312668E+00
        -11   -1    0    0    0    0  0.00000000000E+00  0.00000000000E+00  0.45593999997E+02  0.45594000000E+02  0.51100000000E-03 0.  1.
         11   -1    0    0    0    0 -0.00000000000E+00 -0.00000000000E+00 -0.45593999997E+02  0.45594000000E+02  0.51100000000E-03 0. -1.
    9900012    2    1    2    0    0  0.38826158326E+02  0.16428417215E+02 -0.10308244925E+02  0.47787269868E+02  0.19999994636E+02 0.  0.
         12    1    1    2    0    0 -0.38826158326E+02 -0.16428417215E+02  0.10308244925E+02  0.43400730132E+02  0.00000000000E+00 0. -1.
         11    1    3    3    0    0  0.32424852953E+02  0.92141185267E+01 -0.82171573765E+01  0.34695716521E+02  0.51100000000E-03 0.  1.
        -11    1    3    3    0    0  0.67691643438E+01  0.82442345804E+01  0.72301158721E-01  0.10667437248E+02  0.51100000000E-03 0. -1.
         12    1    3    3    0    0 -0.36785897094E+00 -0.10299358922E+01 -0.21633887069E+01  0.24241160990E+01  0.00000000000E+00 0. -1.
</event>
<event>
 7    1  0.2751796E-010  0.4778727E+02  0.7816164E-02  0.1312668E+00
        -11   -1    0    0    0    0  0.00000000000E+00  0.00000000000E+00  0.45593999997E+02  0.45594000000E+02  0.51100000000E-03 0.  1.
         11   -1    0    0    0    0 -0.00000000000E+00 -0.00000000000E+00 -0.45593999997E+02  0.45594000000E+02  0.51100000000E-03 0. -1.
    9900012    2    1    2    0    0 -0.22534197460E+02  0.11479003433E+00  0.37092054471E+02  0.47787265712E+02  0.19999975686E+02 0.  0.
         12    1    1    2    0    0  0.22534197460E+02 -0.11479003433E+00 -0.37092054471E+02  0.43400734288E+02  0.00000000000E+00 0. -1.
         11    1    3    3    0    0 -0.82787713582E+01 -0.69034818860E+01  0.16779892796E+02  0.19943944441E+02  0.51100000000E-03 0. -1.
        -11    1    3    3    0    0 -0.89396379517E+01  0.35018074222E+01  0.41307919679E+01  0.10451948358E+02  0.51100000000E-03 0.  1.
         12    1    3    3    0    0 -0.53157881500E+01  0.35164644981E+01  0.16181369707E+02  0.17391372913E+02  0.00000000000E+00 0. -1.
</event>
<event>
 7    1  0.2751796E-010  0.4778727E+02  0.7816164E-02  0.1312668E+00
        -11   -1    0    0    0    0  0.00000000000E+00  0.00000000000E+00  0.45593999997E+02  0.45594000000E+02  0.51100000000E-03 0.  1.
         11   -1    0    0    0    0 -0.00000000000E+00 -0.00000000000E+00 -0.45593999997E+02  0.45594000000E+02  0.51100000000E-03 0. -1.
    9900012    2    1    2    0    0 -0.34278049897E+02  0.13622853113E+02  0.22870433602E+02  0.47787267693E+02  0.19999984719E+02 0.  0.
         12    1    1    2    0    0  0.34278049897E+02 -0.13622853113E+02 -0.22870433602E+02  0.43400732307E+02  0.00000000000E+00 0. -1.
         11    1    3    3    0    0 -0.24984155642E+01  0.87715749868E+01  0.49639431908E+01  0.10383801825E+02  0.51100000000E-03 0. -1.
        -11    1    3    3    0    0 -0.24471246712E+02  0.58910945025E+01  0.11689527909E+02  0.27752332750E+02  0.51100000000E-03 0.  1.
        -12    1    3    3    0    0 -0.73083876209E+01 -0.10398163759E+01  0.62169625014E+01  0.96511331178E+01  0.00000000000E+00 0.  1.
</event>
<event>
 7    1  0.2751796E-010  0.4778727E+02  0.7816164E-02  0.1312668E+00
        -11   -1    0    0    0    0  0.00000000000E+00  0.00000000000E+00  0.45593999997E+02  0.45594000000E+02  0.51100000000E-03 0. -1.
         11   -1    0    0    0    0 -0.00000000000E+00 -0.00000000000E+00 -0.45593999997E+02  0.45594000000E+02  0.51100000000E-03 0.  1.
    9900012    2    1    2    0    0 -0.40899333698E+02 -0.11022694204E+02  0.94534678628E+01  0.47787270293E+02  0.19999996574E+02 0.  0.
         12    1    1    2    0    0  0.40899333698E+02  0.11022694204E+02 -0.94534678628E+01  0.43400729707E+02  0.00000000000E+00 0. -1.
         11    1    3    3    0    0  0.13576204998E+01 -0.21862569484E+01  0.31263708734E+00  0.25924110545E+01  0.51100000000E-03 0. -1.
        -11    1    3    3    0    0 -0.29746510760E+02 -0.18977585505E+01  0.78953237790E+01  0.30834923832E+02  0.51100000000E-03 0.  1.
        -12    1    3    3    0    0 -0.12510443438E+02 -0.69386787054E+01  0.12455069965E+01  0.14359935406E+02  0.00000000000E+00 0.  1.
</event>
<event>
 7    1  0.2751796E-010  0.4778727E+02  0.7816164E-02  0.1312668E+00
        -11   -1    0    0    0    0  0.00000000000E+00  0.00000000000E+00  0.45593999997E+02  0.45594000000E+02  0.51100000000E-03 0. -1.
         11   -1    0    0    0    0 -0.00000000000E+00 -0.00000000000E+00 -0.45593999997E+02  0.45594000000E+02  0.51100000000E-03 0.  1.
    9900012    2    1    2    0    0  0.37274715634E+02  0.20733876905E+02  0.80203067284E+01  0.47787269624E+02  0.19999993526E+02 0.  0.
         12    1    1    2    0    0 -0.37274715634E+02 -0.20733876905E+02 -0.80203067284E+01  0.43400730376E+02  0.00000000000E+00 0. -1.
         11    1    3    3    0    0  0.18907829192E+02  0.11046549373E+02  0.82826411918E+01  0.23412270355E+02  0.51100000000E-03 0. -1.
        -11    1    3    3    0    0  0.16256123475E+02  0.10247572591E+02  0.39609579454E+01  0.19620486298E+02  0.51100000000E-03 0.  1.
         12    1    3    3    0    0  0.21107629672E+01 -0.56024505911E+00 -0.42232924088E+01  0.47545129719E+01  0.00000000000E+00 0. -1.
</event>
<event>
 7    1  0.2751796E-010  0.4778727E+02  0.7816164E-02  0.1312668E+00
        -11   -1    0    0    0    0  0.00000000000E+00  0.00000000000E+00  0.45593999997E+02  0.45594000000E+02  0.51100000000E-03 0.  1.
         11   -1    0    0    0    0 -0.00000000000E+00 -0.00000000000E+00 -0.45593999997E+02  0.45594000000E+02  0.51100000000E-03 0. -1.
    9900012    2    1    2    0    0 -0.94521956946E+01  0.36133972607E+02  0.22104646414E+02  0.47787269903E+02  0.19999994797E+02 0.  0.
         12    1    1    2    0    0  0.94521956946E+01 -0.36133972607E+02 -0.22104646414E+02  0.43400730097E+02  0.00000000000E+00 0. -1.
         11    1    3    3    0    0  0.33919526227E+01  0.22193874277E+02  0.14257182165E+02  0.26595876401E+02  0.51100000000E-03 0. -1.
        -11    1    3    3    0    0 -0.12343003164E+02  0.13355218491E+02  0.85983329198E+01  0.20115738050E+02  0.51100000000E-03 0.  1.
        -12    1    3    3    0    0 -0.50114515355E+00  0.58487983960E+00 -0.75086867031E+00  0.10756554521E+01  0.00000000000E+00 0.  1.
</event>
<event>
 7    1  0.2751796E-010  0.4778727E+02  0.7816164E-02  0.1312668E+00
        -11   -1    0    0    0    0  0.00000000000E+00  0.00000000000E+00  0.45593999997E+02  0.45594000000E+02  0.51100000000E-03 0.  1.
         11   -1    0    0    0    0 -0.00000000000E+00 -0.00000000000E+00 -0.45593999997E+02  0.45594000000E+02  0.51100000000E-03 0. -1.
    9900012    2    1    2    0    0 -0.10049976598E+02 -0.28748151218E+02  0.30921922971E+02  0.47787267882E+02  0.19999985583E+02 0.  0.
         12    1    1    2    0    0  0.10049976598E+02  0.28748151218E+02 -0.30921922971E+02  0.43400732118E+02  0.00000000000E+00 0. -1.
         11    1    3    3    0    0 -0.11754049739E+02 -0.18138747793E+02  0.26644570764E+02  0.34308963963E+02  0.51100000000E-03 0.  1.
        -11    1    3    3    0    0  0.36751403381E+00 -0.10724051179E+02  0.21198118890E+01  0.10937730247E+02  0.51100000000E-03 0. -1.
        -12    1    3    3    0    0  0.13365591077E+01  0.11464775400E+00  0.21575403186E+01  0.25405736719E+01  0.00000000000E+00 0.  1.
</event>
<event>
 7    1  0.2751796E-010  0.4778727E+02  0.7816164E-02  0.1312668E+00
        -11   -1    0    0    0    0  0.00000000000E+00  0.00000000000E+00  0.45593999997E+02  0.45594000000E+02  0.51100000000E-03 0.  1.
         11   -1    0    0    0    0 -0.00000000000E+00 -0.00000000000E+00 -0.45593999997E+02  0.45594000000E+02  0.51100000000E-03 0. -1.
    9900012    2    1    2    0    0  0.29570370257E+02  0.31766670594E+02  0.30831752158E+00  0.47787271695E+02  0.20000002966E+02 0.  0.
         12    1    1    2    0    0 -0.29570370257E+02 -0.31766670594E+02 -0.30831752158E+00  0.43400728305E+02  0.00000000000E+00 0. -1.
         11    1    3    3    0    0  0.15074340142E+02  0.47691949545E+01 -0.92867277119E-01  0.15811058656E+02  0.51100000000E-03 0. -1.
        -11    1    3    3    0    0  0.54420748071E+01  0.18932236432E+02  0.17484658316E+01  0.19776321386E+02  0.51100000000E-03 0.  1.
         12    1    3    3    0    0  0.90539553076E+01  0.80652392071E+01 -0.13472810329E+01  0.12199891654E+02  0.00000000000E+00 0. -1.
</event>
<event>
 7    1  0.2751796E-010  0.4778727E+02  0.7816164E-02  0.1312668E+00
        -11   -1    0    0    0    0  0.00000000000E+00  0.00000000000E+00  0.45593999997E+02  0.45594000000E+02  0.51100000000E-03 0.  1.
         11   -1    0    0    0    0 -0.00000000000E+00 -0.00000000000E+00 -0.45593999997E+02  0.45594000000E+02  0.51100000000E-03 0. -1.
    9900012    2    1    2    0    0  0.12265484458E+02 -0.21483922958E+02  0.35659813060E+02  0.47787270488E+02  0.19999997465E+02 0.  0.
         12    1    1    2    0    0 -0.12265484458E+02  0.21483922958E+02 -0.35659813060E+02  0.43400729512E+02  0.00000000000E+00 0. -1.
         11    1    3    3    0    0  0.98762728418E+01 -0.11035048538E+02  0.20440114428E+02  0.25241064549E+02  0.51100000000E-03 0. -1.
        -11    1    3    3    0    0 -0.97613201646E-01 -0.96690148144E+01  0.31071862351E+01  0.10156474899E+02  0.51100000000E-03 0.  1.
         12    1    3    3    0    0  0.24868248181E+01 -0.77985960595E+00  0.12112512397E+02  0.12389731040E+02  0.00000000000E+00 0. -1.
</event>
<event>
 7    1  0.2751796E-010  0.4778728E+02  0.7816164E-02  0.1312668E+00
        -11   -1    0    0    0    0  0.00000000000E+00  0.00000000000E+00  0.45593999997E+02  0.45594000000E+02  0.51100000000E-03 0.  1.
         11   -1    0    0    0    0 -0.00000000000E+00 -0.00000000000E+00 -0.45593999997E+02  0.45594000000E+02  0.51100000000E-03 0. -1.
    9900012    2    1    2    0    0  0.12147530062E+02 -0.85399722153E+01  0.40781480041E+02  0.47787277352E+02  0.20000028758E+02 0.  0.
         12    1    1    2    0    0 -0.12147530062E+02  0.85399722153E+01 -0.40781480041E+02  0.43400722648E+02  0.00000000000E+00 0. -1.
         11    1    3    3    0    0  0.10709580382E+01  0.29245665236E+01  0.12552789801E+00  0.31170174822E+01  0.51100000000E-03 0. -1.
        -11    1    3    3    0    0  0.10548656000E+02 -0.12991221194E+02  0.38470035630E+02  0.41952230133E+02  0.51100000000E-03 0.  1.
        -12    1    3    3    0    0  0.52791602324E+00  0.15266824551E+01  0.21859165133E+01  0.27180297366E+01  0.00000000000E+00 0.  1.
</event>
<event>
 7    1  0.2751796E-010  0.4778727E+02  0.7816164E-02  0.1312668E+00
        -11   -1    0    0    0    0  0.00000000000E+00  0.00000000000E+00  0.45593999997E+02  0.45594000000E+02  0.51100000000E-03 0. -1.
         11   -1    0    0    0    0 -0.00000000000E+00 -0.00000000000E+00 -0.45593999997E+02  0.45594000000E+02  0.51100000000E-03 0.  1.
    9900012    2    1    2    0    0  0.35848936961E+02  0.24331314912E+02 -0.25424909824E+01  0.47787269281E+02  0.19999991958E+02 0.  0.
         12    1    1    2    0    0 -0.35848936961E+02 -0.24331314912E+02  0.25424909824E+01  0.43400730719E+02  0.00000000000E+00 0. -1.
         11    1    3    3    0    0  0.26948150584E+02  0.21644333182E+02  0.43562037007E+01  0.34837572960E+02  0.51100000000E-03 0. -1.
        -11    1    3    3    0    0  0.19316692813E+01 -0.98130308150E+00 -0.40158798548E+01  0.45630683996E+01  0.51100000000E-03 0.  1.
         12    1    3    3    0    0  0.69691170956E+01  0.36682848108E+01 -0.28828148283E+01  0.83866279206E+01  0.00000000000E+00 0. -1.
</event>
<event>
 7    1  0.2751796E-010  0.4778727E+02  0.7816164E-02  0.1312668E+00
        -11   -1    0    0    0    0  0.00000000000E+00  0.00000000000E+00  0.45593999997E+02  0.45594000000E+02  0.51100000000E-03 0. -1.
         11   -1    0    0    0    0 -0.00000000000E+00 -0.00000000000E+00 -0.45593999997E+02  0.45594000000E+02  0.51100000000E-03 0.  1.
    9900012    2    1    2    0    0  0.43217205608E+02 -0.16436251238E+01 -0.36324981934E+01  0.47787269508E+02  0.19999992994E+02 0.  0.
         12    1    1    2    0    0 -0.43217205608E+02  0.16436251238E+01  0.36324981934E+01  0.43400730492E+02  0.00000000000E+00 0. -1.
         11    1    3    3    0    0  0.82679758939E+01 -0.12764602947E+01 -0.86901779154E+01  0.12062668392E+02  0.51100000000E-03 0. -1.
        -11    1    3    3    0    0  0.25373070704E+02  0.14136374065E+01  0.53935441841E+01  0.25978479686E+02  0.51100000000E-03 0.  1.
         12    1    3    3    0    0  0.95761590099E+01 -0.17808022355E+01 -0.33586446201E+00  0.97461214297E+01  0.00000000000E+00 0. -1.
</event>
<event>
 7    1  0.2751796E-010  0.4778727E+02  0.7816164E-02  0.1312668E+00
        -11   -1    0    0    0    0  0.00000000000E+00  0.00000000000E+00  0.45593999997E+02  0.45594000000E+02  0.51100000000E-03 0.  1.
         11   -1    0    0    0    0 -0.00000000000E+00 -0.00000000000E+00 -0.45593999997E+02  0.45594000000E+02  0.51100000000E-03 0. -1.
    9900012    2    1    2    0    0  0.18194779059E+02  0.35237982300E+02  0.17631161837E+02  0.47787271327E+02  0.20000001289E+02 0.  0.
         12    1    1    2    0    0 -0.18194779059E+02 -0.35237982300E+02 -0.17631161837E+02  0.43400728673E+02  0.00000000000E+00 0. -1.
         11    1    3    3    0    0  0.85942589415E+01  0.34946417310E+01 -0.75512170123E+00  0.93082767807E+01  0.51100000000E-03 0. -1.
        -11    1    3    3    0    0  0.90393779800E+01  0.25314659564E+02  0.17215672797E+02  0.31920553461E+02  0.51100000000E-03 0.  1.
         12    1    3    3    0    0  0.56114213713E+00  0.64286810054E+01  0.11706107413E+01  0.65584410857E+01  0.00000000000E+00 0. -1.
</event>
<event>
 7    1  0.2751796E-010  0.4778727E+02  0.7816164E-02  0.1312668E+00
        -11   -1    0    0    0    0  0.00000000000E+00  0.00000000000E+00  0.45593999997E+02  0.45594000000E+02  0.51100000000E-03 0. -1.
         11   -1    0    0    0    0 -0.00000000000E+00 -0.00000000000E+00 -0.45593999997E+02  0.45594000000E+02  0.51100000000E-03 0.  1.
    9900012    2    1    2    0    0  0.16033672073E+01  0.32165809672E+02 -0.29093177871E+02  0.47787273083E+02  0.20000009295E+02 0.  0.
         12    1    1    2    0    0 -0.16033672073E+01 -0.32165809672E+02  0.29093177871E+02  0.43400726917E+02  0.00000000000E+00 0. -1.
         11    1    3    3    0    0  0.10012984955E+02  0.12587475427E+02 -0.10719559641E+02  0.19329080798E+02  0.51100000000E-03 0. -1.
        -11    1    3    3    0    0 -0.70500876249E+01  0.18203607129E+02 -0.15195639395E+02  0.24738280153E+02  0.51100000000E-03 0.  1.
         12    1    3    3    0    0 -0.13595301225E+01  0.13747271158E+01 -0.31779788350E+01  0.37199121324E+01  0.00000000000E+00 0. -1.
</event>
<event>
 7    1  0.2751796E-010  0.4778727E+02  0.7816164E-02  0.1312668E+00
        -11   -1    0    0    0    0  0.00000000000E+00  0.00000000000E+00  0.45593999997E+02  0.45594000000E+02  0.51100000000E-03 0.  1.
         11   -1    0    0    0    0 -0.00000000000E+00 -0.00000000000E+00 -0.45593999997E+02  0.45594000000E+02  0.51100000000E-03 0. -1.
    9900012    2    1    2    0    0  0.11180147748E+02  0.15918467948E+02  0.38797295877E+02  0.47787268522E+02  0.19999988497E+02 0.  0.
         12    1    1    2    0    0 -0.11180147748E+02 -0.15918467948E+02 -0.38797295877E+02  0.43400731478E+02  0.00000000000E+00 0. -1.
         11    1    3    3    0    0  0.26720668050E+01 -0.34608309119E+01  0.39408985229E+01  0.58862528862E+01  0.51100000000E-03 0. -1.
        -11    1    3    3    0    0 -0.15084723154E+00  0.86661855146E+01  0.19085032528E+02  0.20961011261E+02  0.51100000000E-03 0.  1.
        -12    1    3    3    0    0  0.86589281742E+01  0.10713113346E+02  0.15771364827E+02  0.20940004374E+02  0.00000000000E+00 0.  1.
</event>
<event>
 7    1  0.2751796E-010  0.4778727E+02  0.7816164E-02  0.1312668E+00
        -11   -1    0    0    0    0  0.00000000000E+00  0.00000000000E+00  0.45593999997E+02  0.45594000000E+02  0.51100000000E-03 0. -1.
         11   -1    0    0    0    0 -0.00000000000E+00 -0.00000000000E+00 -0.45593999997E+02  0.45594000000E+02  0.51100000000E-03 0.  1.
    9900012    2    1    2    0    0 -0.53455677130E+01  0.14574477845E+02 -0.40529404943E+02  0.47787272314E+02  0.20000005790E+02 0.  0.
         12    1    1    2    0    0  0.53455677130E+01 -0.14574477845E+02  0.40529404943E+02  0.43400727686E+02  0.00000000000E+00 0. -1.
         11    1    3    3    0    0  0.79059237444E+00  0.88256278336E+01 -0.67771213405E+01  0.11155541981E+02  0.51100000000E-03 0. -1.
        -11    1    3    3    0    0 -0.85240465389E+01  0.67146555735E+01 -0.31081587373E+02  0.32921285557E+02  0.51100000000E-03 0.  1.
         12    1    3    3    0    0  0.23878864515E+01 -0.96580556161E+00 -0.26706962293E+01  0.37104447762E+01  0.00000000000E+00 0. -1.
</event>
<event>
 7    1  0.2751796E-010  0.4778727E+02  0.7816164E-02  0.1312668E+00
        -11   -1    0    0    0    0  0.00000000000E+00  0.00000000000E+00  0.45593999997E+02  0.45594000000E+02  0.51100000000E-03 0. -1.
         11   -1    0    0    0    0 -0.00000000000E+00 -0.00000000000E+00 -0.45593999997E+02  0.45594000000E+02  0.51100000000E-03 0.  1.
    9900012    2    1    2    0    0 -0.22136977502E+02  0.36408658316E+02  0.82454465353E+01  0.47787267726E+02  0.19999984871E+02 0.  0.
         12    1    1    2    0    0  0.22136977502E+02 -0.36408658316E+02 -0.82454465353E+01  0.43400732274E+02  0.00000000000E+00 0. -1.
         11    1    3    3    0    0 -0.11725441059E+02  0.12939096212E+02 -0.31319771298E+01  0.17740221526E+02  0.51100000000E-03 0. -1.
        -11    1    3    3    0    0 -0.14694804789E+01  0.10198501302E+02  0.93552566327E+01  0.13917242134E+02  0.51100000000E-03 0.  1.
        -12    1    3    3    0    0 -0.89420559645E+01  0.13271060803E+02  0.20221670323E+01  0.16129804066E+02  0.00000000000E+00 0.  1.
</event>
<event>
 7    1  0.2751796E-010  0.4778726E+02  0.7816164E-02  0.1312668E+00
        -11   -1    0    0    0    0  0.00000000000E+00  0.00000000000E+00  0.45593999997E+02  0.45594000000E+02  0.51100000000E-03 0.  1.
         11   -1    0    0    0    0 -0.00000000000E+00 -0.00000000000E+00 -0.45593999997E+02  0.45594000000E+02  0.51100000000E-03 0. -1.
    9900012    2    1    2    0    0  0.43899614438E+00 -0.22554862223E+02  0.37077073011E+02  0.47787264170E+02  0.19999968657E+02 0.  0.
         12    1    1    2    0    0 -0.43899614438E+00  0.22554862223E+02 -0.37077073011E+02  0.43400735830E+02  0.00000000000E+00 0. -1.
         11    1    3    3    0    0  0.48514342599E+01 -0.14875999464E+02  0.30105108722E+02  0.33928591864E+02  0.51100000000E-03 0. -1.
        -11    1    3    3    0    0 -0.26518595716E+01 -0.81205381505E+01  0.23004289728E+01  0.88468905702E+01  0.51100000000E-03 0.  1.
        -12    1    3    3    0    0 -0.17605785439E+01  0.44167539124E+00  0.46715353162E+01  0.50117817361E+01  0.00000000000E+00 0.  1.
</event>
<event>
 7    1  0.2751796E-010  0.4778727E+02  0.7816164E-02  0.1312668E+00
        -11   -1    0    0    0    0  0.00000000000E+00  0.00000000000E+00  0.45593999997E+02  0.45594000000E+02  0.51100000000E-03 0.  1.
         11   -1    0    0    0    0 -0.00000000000E+00 -0.00000000000E+00 -0.45593999997E+02  0.45594000000E+02  0.51100000000E-03 0. -1.
    9900012    2    1    2    0    0 -0.23617596544E+02 -0.33816842019E+02  0.13500128463E+02  0.47787272596E+02  0.20000007076E+02 0.  0.
         12    1    1    2    0    0  0.23617596544E+02  0.33816842019E+02 -0.13500128463E+02  0.43400727404E+02  0.00000000000E+00 0. -1.
         11    1    3    3    0    0 -0.15275028726E+01 -0.45299350381E+01 -0.30139884887E+01  0.56513452688E+01  0.51100000000E-03 0. -1.
        -11    1    3    3    0    0 -0.78099096094E+01 -0.16652119443E+02  0.26984399104E+01  0.18589495643E+02  0.51100000000E-03 0.  1.
         12    1    3    3    0    0 -0.14280184062E+02 -0.12634787538E+02  0.13815677041E+02  0.23546431684E+02  0.00000000000E+00 0. -1.
</event>
<event>
 7    1  0.2751796E-010  0.4778727E+02  0.7816164E-02  0.1312668E+00
        -11   -1    0    0    0    0  0.00000000000E+00  0.00000000000E+00  0.45593999997E+02  0.45594000000E+02  0.51100000000E-03 0. -1.
         11   -1    0    0    0    0 -0.00000000000E+00 -0.00000000000E+00 -0.45593999997E+02  0.45594000000E+02  0.51100000000E-03 0.  1.
    9900012    2    1    2    0    0  0.10785590539E+02 -0.32006487343E+02 -0.27255806902E+02  0.47787271836E+02  0.20000003609E+02 0.  0.
         12    1    1    2    0    0 -0.10785590539E+02  0.32006487343E+02  0.27255806902E+02  0.43400728164E+02  0.00000000000E+00 0. -1.
         11    1    3    3    0    0 -0.24084956092E+01 -0.37738215189E+01 -0.46150268755E+01  0.64297008701E+01  0.51100000000E-03 0. -1.
        -11    1    3    3    0    0  0.53358843667E+01 -0.24521044394E+02 -0.20508566370E+02  0.32409174241E+02  0.51100000000E-03 0.  1.
        -12    1    3    3    0    0  0.78582017814E+01 -0.37116214297E+01 -0.21322136568E+01  0.89483967253E+01  0.00000000000E+00 0.  1.
</event>
<event>
 7    1  0.2751796E-010  0.4778727E+02  0.7816164E-02  0.1312668E+00
        -11   -1    0    0    0    0  0.00000000000E+00  0.00000000000E+00  0.45593999997E+02  0.45594000000E+02  0.51100000000E-03 0.  1.
         11   -1    0    0    0    0 -0.00000000000E+00 -0.00000000000E+00 -0.45593999997E+02  0.45594000000E+02  0.51100000000E-03 0. -1.
    9900012    2    1    2    0    0  0.12808274796E+02 -0.26016337067E+02  0.32291198615E+02  0.47787271831E+02  0.20000003586E+02 0.  0.
         12    1    1    2    0    0 -0.12808274796E+02  0.26016337067E+02 -0.32291198615E+02  0.43400728169E+02  0.00000000000E+00 0. -1.
         11    1    3    3    0    0 -0.25496277962E+01 -0.17713762757E+01  0.23989603557E+00  0.31138282191E+01  0.51100000000E-03 0. -1.
        -11    1    3    3    0    0  0.11717948915E+02 -0.74791682154E+01  0.15752830480E+02  0.21009520517E+02  0.51100000000E-03 0.  1.
        -12    1    3    3    0    0  0.36399536779E+01 -0.16765792576E+02  0.16298472099E+02  0.23663923095E+02  0.00000000000E+00 0.  1.
</event>
<event>
 7    1  0.2751796E-010  0.4778727E+02  0.7816164E-02  0.1312668E+00
        -11   -1    0    0    0    0  0.00000000000E+00  0.00000000000E+00  0.45593999997E+02  0.45594000000E+02  0.51100000000E-03 0.  1.
         11   -1    0    0    0    0 -0.00000000000E+00 -0.00000000000E+00 -0.45593999997E+02  0.45594000000E+02  0.51100000000E-03 0. -1.
    9900012    2    1    2    0    0 -0.80160366346E+01  0.76864117749E+01  0.41955761997E+02  0.47787265743E+02  0.19999975827E+02 0.  0.
         12    1    1    2    0    0  0.80160366346E+01 -0.76864117749E+01 -0.41955761997E+02  0.43400734257E+02  0.00000000000E+00 0. -1.
         11    1    3    3    0    0 -0.33821597114E+01 -0.55302036406E+01  0.20982525317E+02  0.21961068406E+02  0.51100000000E-03 0. -1.
        -11    1    3    3    0    0 -0.36927591601E+01  0.13517368591E+02  0.20131721454E+02  0.24528390343E+02  0.51100000000E-03 0.  1.
        -12    1    3    3    0    0 -0.94111776311E+00 -0.30075317513E+00  0.84151522637E+00  0.12978069936E+01  0.00000000000E+00 0.  1.
</event>
<event>
 7    1  0.2751796E-010  0.4778727E+02  0.7816164E-02  0.1312668E+00
        -11   -1    0    0    0    0  0.00000000000E+00  0.00000000000E+00  0.45593999997E+02  0.45594000000E+02  0.51100000000E-03 0.  1.
         11   -1    0    0    0    0 -0.00000000000E+00 -0.00000000000E+00 -0.45593999997E+02  0.45594000000E+02  0.51100000000E-03 0. -1.
    9900012    2    1    2    0    0  0.37900018013E+02  0.51648091372E+01  0.20506990310E+02  0.47787271085E+02  0.20000000185E+02 0.  0.
         12    1    1    2    0    0 -0.37900018013E+02 -0.51648091372E+01 -0.20506990310E+02  0.43400728915E+02  0.00000000000E+00 0. -1.
         11    1    3    3    0    0  0.61867772714E+01  0.12376668319E+01 -0.11395661899E+01  0.64114462920E+01  0.51100000000E-03 0. -1.
        -11    1    3    3    0    0  0.14323246428E+02 -0.56467448248E+01  0.88718858073E+01  0.17769397102E+02  0.51100000000E-03 0.  1.
        -12    1    3    3    0    0  0.17389994314E+02  0.95738871301E+01  0.12774670692E+02  0.23606427691E+02  0.00000000000E+00 0.  1.
</event>
<event>
 7    1  0.2751796E-010  0.4778727E+02  0.7816164E-02  0.1312668E+00
        -11   -1    0    0    0    0  0.00000000000E+00  0.00000000000E+00  0.45593999997E+02  0.45594000000E+02  0.51100000000E-03 0.  1.
         11   -1    0    0    0    0 -0.00000000000E+00 -0.00000000000E+00 -0.45593999997E+02  0.45594000000E+02  0.51100000000E-03 0. -1.
    9900012    2    1    2    0    0  0.39201566198E+02  0.16763207451E+02  0.81151385965E+01  0.47787269697E+02  0.19999993854E+02 0.  0.
         12    1    1    2    0    0 -0.39201566198E+02 -0.16763207451E+02 -0.81151385965E+01  0.43400730303E+02  0.00000000000E+00 0. -1.
         11    1    3    3    0    0  0.93700542921E+00 -0.12217373014E+01  0.35988728390E+01  0.39143974224E+01  0.51100000000E-03 0. -1.
        -11    1    3    3    0    0  0.26698728218E+02  0.15609875442E+02 -0.76901244792E+00  0.30936736741E+02  0.51100000000E-03 0.  1.
         12    1    3    3    0    0  0.11565832551E+02  0.23750693109E+01  0.52852782054E+01  0.12936135533E+02  0.00000000000E+00 0. -1.
</event>
<event>
 7    1  0.2751796E-010  0.4778727E+02  0.7816164E-02  0.1312668E+00
        -11   -1    0    0    0    0  0.00000000000E+00  0.00000000000E+00  0.45593999997E+02  0.45594000000E+02  0.51100000000E-03 0. -1.
         11   -1    0    0    0    0 -0.00000000000E+00 -0.00000000000E+00 -0.45593999997E+02  0.45594000000E+02  0.51100000000E-03 0.  1.
    9900012    2    1    2    0    0  0.58890276809E+01 -0.11332684931E+02 -0.41479071232E+02  0.47787265616E+02  0.19999975250E+02 0.  0.
         12    1    1    2    0    0 -0.58890276809E+01  0.11332684931E+02  0.41479071232E+02  0.43400734384E+02  0.00000000000E+00 0. -1.
         11    1    3    3    0    0  0.56969857433E+01 -0.45341989566E+01 -0.33705363799E+01  0.80234109010E+01  0.51100000000E-03 0. -1.
        -11    1    3    3    0    0  0.37525855962E+01 -0.52023188509E+01 -0.30981705446E+02  0.31638775145E+02  0.51100000000E-03 0.  1.
         12    1    3    3    0    0 -0.35605436586E+01 -0.15961671233E+01 -0.71268294064E+01  0.81250795699E+01  0.00000000000E+00 0. -1.
</event>
<event>
 7    1  0.2751796E-010  0.4778727E+02  0.7816164E-02  0.1312668E+00
        -11   -1    0    0    0    0  0.00000000000E+00  0.00000000000E+00  0.45593999997E+02  0.45594000000E+02  0.51100000000E-03 0. -1.
         11   -1    0    0    0    0 -0.00000000000E+00 -0.00000000000E+00 -0.45593999997E+02  0.45594000000E+02  0.51100000000E-03 0.  1.
    9900012    2    1    2    0    0  0.32305481974E+02  0.28762036010E+02  0.35671176185E+01  0.47787271791E+02  0.20000003402E+02 0.  0.
         12    1    1    2    0    0 -0.32305481974E+02 -0.28762036010E+02 -0.35671176185E+01  0.43400728209E+02  0.00000000000E+00 0. -1.
         11    1    3    3    0    0  0.15742943807E+02  0.26187848231E+02  0.27381366688E+01  0.30678022547E+02  0.51100000000E-03 0. -1.
        -11    1    3    3    0    0  0.12692851821E+01  0.10645772317E+01 -0.36155918587E+00  0.16956222638E+01  0.51100000000E-03 0.  1.
         12    1    3    3    0    0  0.15293252985E+02  0.15096105467E+01  0.11905401356E+01  0.15413626980E+02  0.00000000000E+00 0. -1.
</event>
<event>
 7    1  0.2751796E-010  0.4778727E+02  0.7816164E-02  0.1312668E+00
        -11   -1    0    0    0    0  0.00000000000E+00  0.00000000000E+00  0.45593999997E+02  0.45594000000E+02  0.51100000000E-03 0.  1.
         11   -1    0    0    0    0 -0.00000000000E+00 -0.00000000000E+00 -0.45593999997E+02  0.45594000000E+02  0.51100000000E-03 0. -1.
    9900012    2    1    2    0    0  0.66441147757E+01  0.13998217717E+02  0.40540463190E+02  0.47787268255E+02  0.19999987280E+02 0.  0.
         12    1    1    2    0    0 -0.66441147757E+01 -0.13998217717E+02 -0.40540463190E+02  0.43400731745E+02  0.00000000000E+00 0. -1.
         11    1    3    3    0    0  0.69705877852E+01  0.83093676487E+01  0.13412041683E+02  0.17248696970E+02  0.51100000000E-03 0. -1.
        -11    1    3    3    0    0 -0.27142976420E+00 -0.40933970007E+01  0.61670470689E+01  0.74068915838E+01  0.51100000000E-03 0.  1.
        -12    1    3    3    0    0 -0.55043245298E-01  0.97822470687E+01  0.20961374438E+02  0.23131679701E+02  0.00000000000E+00 0.  1.
</event>
<event>
 7    1  0.2751796E-010  0.4778724E+02  0.7816164E-02  0.1312668E+00
        -11   -1    0    0    0    0  0.00000000000E+00  0.00000000000E+00  0.45593999997E+02  0.45594000000E+02  0.51100000000E-03 0.  1.
         11   -1    0    0    0    0 -0.00000000000E+00 -0.00000000000E+00 -0.45593999997E+02  0.45594000000E+02  0.51100000000E-03 0. -1.
    9900012    2    1    2    0    0 -0.81915905292E+01 -0.16125582786E+02  0.39452364692E+02  0.47787243608E+02  0.19999874906E+02 0.  0.
         12    1    1    2    0    0  0.81915905292E+01  0.16125582786E+02 -0.39452364692E+02  0.43400756392E+02  0.00000000000E+00 0. -1.
         11    1    3    3    0    0  0.22762225643E+01 -0.57053453614E+01  0.11360357151E+02  0.12914715239E+02  0.51100000000E-03 0. -1.
        -11    1    3    3    0    0 -0.10476702294E+02 -0.37430685083E+01  0.80080213811E+01  0.13707671557E+02  0.51100000000E-03 0.  1.
        -12    1    3    3    0    0  0.88892009385E-02 -0.66771689162E+01  0.20083986160E+02  0.21164856811E+02  0.00000000000E+00 0.  1.
</event>
<event>
 7    1  0.2751796E-010  0.4778727E+02  0.7816164E-02  0.1312668E+00
        -11   -1    0    0    0    0  0.00000000000E+00  0.00000000000E+00  0.45593999997E+02  0.45594000000E+02  0.51100000000E-03 0. -1.
         11   -1    0    0    0    0 -0.00000000000E+00 -0.00000000000E+00 -0.45593999997E+02  0.45594000000E+02  0.51100000000E-03 0.  1.
    9900012    2    1    2    0    0 -0.10186388940E+02 -0.42027079657E+02 -0.36858561827E+01  0.47787268670E+02  0.19999989174E+02 0.  0.
         12    1    1    2    0    0  0.10186388940E+02  0.42027079657E+02  0.36858561827E+01  0.43400731330E+02  0.00000000000E+00 0. -1.
         11    1    3    3    0    0 -0.83427056057E+01 -0.15045638416E+02  0.39847479534E+01  0.17659280526E+02  0.51100000000E-03 0. -1.
        -11    1    3    3    0    0  0.18803606385E+01 -0.31313670100E+01 -0.44779742837E+01  0.57787082838E+01  0.51100000000E-03 0.  1.
        -12    1    3    3    0    0 -0.37240439729E+01 -0.23850074231E+02 -0.31926298523E+01  0.24349279861E+02  0.00000000000E+00 0.  1.
</event>
<event>
 7    1  0.2751796E-010  0.4778727E+02  0.7816164E-02  0.1312668E+00
        -11   -1    0    0    0    0  0.00000000000E+00  0.00000000000E+00  0.45593999997E+02  0.45594000000E+02  0.51100000000E-03 0.  1.
         11   -1    0    0    0    0 -0.00000000000E+00 -0.00000000000E+00 -0.45593999997E+02  0.45594000000E+02  0.51100000000E-03 0. -1.
    9900012    2    1    2    0    0  0.34220581596E+02  0.26338278194E+02  0.43439462441E+01  0.47787274523E+02  0.20000015859E+02 0.  0.
         12    1    1    2    0    0 -0.34220581596E+02 -0.26338278194E+02 -0.43439462441E+01  0.43400725477E+02  0.00000000000E+00 0. -1.
         11    1    3    3    0    0  0.19096181700E+01 -0.67421053567E-01 -0.22825270770E+00  0.19243925570E+01  0.51100000000E-03 0. -1.
        -11    1    3    3    0    0  0.10497585283E+02  0.55530861279E+01  0.95988519529E+01  0.15270036719E+02  0.51100000000E-03 0.  1.
        -12    1    3    3    0    0  0.21813378142E+02  0.20852613120E+02 -0.50266530011E+01  0.30592845247E+02  0.00000000000E+00 0.  1.
</event>
<event>
 7    1  0.2751796E-010  0.4778728E+02  0.7816164E-02  0.1312668E+00
        -11   -1    0    0    0    0  0.00000000000E+00  0.00000000000E+00  0.45593999997E+02  0.45594000000E+02  0.51100000000E-03 0.  1.
         11   -1    0    0    0    0 -0.00000000000E+00 -0.00000000000E+00 -0.45593999997E+02  0.45594000000E+02  0.51100000000E-03 0. -1.
    9900012    2    1    2    0    0 -0.15095041982E+02 -0.31389621544E+02  0.25893131531E+02  0.47787275426E+02  0.20000019976E+02 0.  0.
         12    1    1    2    0    0  0.15095041982E+02  0.31389621544E+02 -0.25893131531E+02  0.43400724574E+02  0.00000000000E+00 0. -1.
         11    1    3    3    0    0  0.88438287450E+00 -0.12517233416E+02  0.12570036010E+02  0.17761449012E+02  0.51100000000E-03 0. -1.
        -11    1    3    3    0    0 -0.14672221891E+02 -0.20111287144E+02  0.13300144036E+02  0.28224666472E+02  0.51100000000E-03 0.  1.
         12    1    3    3    0    0 -0.13072029654E+01  0.12388990165E+01  0.22951485823E-01  0.18011599420E+01  0.00000000000E+00 0. -1.
</event>
<event>
 7    1  0.2751796E-010  0.4778727E+02  0.7816164E-02  0.1312668E+00
        -11   -1    0    0    0    0  0.00000000000E+00  0.00000000000E+00  0.45593999997E+02  0.45594000000E+02  0.51100000000E-03 0. -1.
         11   -1    0    0    0    0 -0.00000000000E+00 -0.00000000000E+00 -0.45593999997E+02  0.45594000000E+02  0.51100000000E-03 0.  1.
    9900012    2    1    2    0    0 -0.30669782105E+02  0.24659969536E+02 -0.18299551864E+02  0.47787271547E+02  0.20000002290E+02 0.  0.
         12    1    1    2    0    0  0.30669782105E+02 -0.24659969536E+02  0.18299551864E+02  0.43400728453E+02  0.00000000000E+00 0. -1.
         11    1    3    3    0    0 -0.11188009013E+02  0.15940637976E+02 -0.10922496672E+01  0.19505601615E+02  0.51100000000E-03 0. -1.
        -11    1    3    3    0    0 -0.14536435276E+02  0.70599909617E+01 -0.88357827469E+01  0.18417993374E+02  0.51100000000E-03 0.  1.
         12    1    3    3    0    0 -0.49453378149E+01  0.16593405978E+01 -0.83715194498E+01  0.98636765570E+01  0.00000000000E+00 0. -1.
</event>
<event>
 7    1  0.2751796E-010  0.4778727E+02  0.7816164E-02  0.1312668E+00
        -11   -1    0    0    0    0  0.00000000000E+00  0.00000000000E+00  0.45593999997E+02  0.45594000000E+02  0.51100000000E-03 0.  1.
         11   -1    0    0    0    0 -0.00000000000E+00 -0.00000000000E+00 -0.45593999997E+02  0.45594000000E+02  0.51100000000E-03 0. -1.
    9900012    2    1    2    0    0  0.26467895876E+02 -0.17823896742E+00  0.34395383926E+02  0.47787265944E+02  0.19999976745E+02 0.  0.
         12    1    1    2    0    0 -0.26467895876E+02  0.17823896742E+00 -0.34395383926E+02  0.43400734056E+02  0.00000000000E+00 0. -1.
         11    1    3    3    0    0 -0.24956213391E+01  0.19999277315E+01  0.22127803357E+01  0.38889887985E+01  0.51100000000E-03 0. -1.
        -11    1    3    3    0    0  0.22487746707E+02  0.61017728666E+00  0.21635750267E+02  0.31211804788E+02  0.51100000000E-03 0.  1.
         12    1    3    3    0    0  0.64757705077E+01 -0.27883439856E+01  0.10546853323E+02  0.12686472357E+02  0.00000000000E+00 0. -1.
</event>
<event>
 7    1  0.2751796E-010  0.4778727E+02  0.7816164E-02  0.1312668E+00
        -11   -1    0    0    0    0  0.00000000000E+00  0.00000000000E+00  0.45593999997E+02  0.45594000000E+02  0.51100000000E-03 0.  1.
         11   -1    0    0    0    0 -0.00000000000E+00 -0.00000000000E+00 -0.45593999997E+02  0.45594000000E+02  0.51100000000E-03 0. -1.
    9900012    2    1    2    0    0 -0.73877886352E+01 -0.26815029953E+02  0.33316632054E+02  0.47787271622E+02  0.20000002634E+02 0.  0.
         12    1    1    2    0    0  0.73877886352E+01  0.26815029953E+02 -0.33316632054E+02  0.43400728378E+02  0.00000000000E+00 0. -1.
         11    1    3    3    0    0 -0.74676371350E+01 -0.42870961892E+01  0.44575362234E+01  0.96961037308E+01  0.51100000000E-03 0. -1.
        -11    1    3    3    0    0  0.47545551159E+01 -0.16404832284E+02  0.21249645989E+02  0.27263011051E+02  0.51100000000E-03 0.  1.
        -12    1    3    3    0    0 -0.46747066161E+01 -0.61231014796E+01  0.76094498416E+01  0.10828156841E+02  0.00000000000E+00 0.  1.
</event>
<event>
 7    1  0.2751796E-010  0.4778727E+02  0.7816164E-02  0.1312668E+00
        -11   -1    0    0    0    0  0.00000000000E+00  0.00000000000E+00  0.45593999997E+02  0.45594000000E+02  0.51100000000E-03 0.  1.
         11   -1    0    0    0    0 -0.00000000000E+00 -0.00000000000E+00 -0.45593999997E+02  0.45594000000E+02  0.51100000000E-03 0. -1.
    9900012    2    1    2    0    0 -0.12563450841E+02  0.23347801056E+02  0.34360778540E+02  0.47787271745E+02  0.20000003194E+02 0.  0.
         12    1    1    2    0    0  0.12563450841E+02 -0.23347801056E+02 -0.34360778540E+02  0.43400728255E+02  0.00000000000E+00 0. -1.
         11    1    3    3    0    0 -0.11988604529E+02  0.11906934639E+02  0.11741584926E+02  0.20575872956E+02  0.51100000000E-03 0. -1.
        -11    1    3    3    0    0  0.82827325262E+00  0.12650327574E+02  0.16438792344E+02  0.20759352551E+02  0.51100000000E-03 0.  1.
         12    1    3    3    0    0 -0.14031195644E+01 -0.12094611578E+01  0.61804012701E+01  0.64520462385E+01  0.00000000000E+00 0. -1.
</event>
<event>
 7    1  0.2751796E-010  0.4778727E+02  0.7816164E-02  0.1312668E+00
        -11   -1    0    0    0    0  0.00000000000E+00  0.00000000000E+00  0.45593999997E+02  0.45594000000E+02  0.51100000000E-03 0.  1.
         11   -1    0    0    0    0 -0.00000000000E+00 -0.00000000000E+00 -0.45593999997E+02  0.45594000000E+02  0.51100000000E-03 0. -1.
    9900012    2    1    2    0    0 -0.38490610124E+02 -0.43020141605E+01  0.19585424324E+02  0.47787271440E+02  0.20000001804E+02 0.  0.
         12    1    1    2    0    0  0.38490610124E+02  0.43020141605E+01 -0.19585424324E+02  0.43400728560E+02  0.00000000000E+00 0. -1.
         11    1    3    3    0    0  0.14958724674E+01 -0.24091100009E+00  0.23132445442E+00  0.15327047377E+01  0.51100000000E-03 0. -1.
        -11    1    3    3    0    0 -0.38533728662E+02 -0.55294644138E+01  0.15537060234E+02  0.41914477956E+02  0.51100000000E-03 0.  1.
        -12    1    3    3    0    0 -0.14527539294E+01  0.14683612533E+01  0.38170396357E+01  0.43400887468E+01  0.00000000000E+00 0.  1.
</event>
<event>
 7    1  0.2751796E-010  0.4778727E+02  0.7816164E-02  0.1312668E+00
        -11   -1    0    0    0    0  0.00000000000E+00  0.00000000000E+00  0.45593999997E+02  0.45594000000E+02  0.51100000000E-03 0.  1.
         11   -1    0    0    0    0 -0.00000000000E+00 -0.00000000000E+00 -0.45593999997E+02  0.45594000000E+02  0.51100000000E-03 0. -1.
    9900012    2    1    2    0    0  0.34278703971E+01 -0.25308350028E+02  0.35090748311E+02  0.47787268513E+02  0.19999988457E+02 0.  0.
         12    1    1    2    0    0 -0.34278703971E+01  0.25308350028E+02 -0.35090748311E+02  0.43400731487E+02  0.00000000000E+00 0. -1.
         11    1    3    3    0    0  0.37015982670E+01 -0.44471821940E+01  0.14359266113E+02  0.15481207407E+02  0.51100000000E-03 0. -1.
        -11    1    3    3    0    0  0.15534811983E+00 -0.20754703991E+02  0.12847802591E+02  0.24409995954E+02  0.51100000000E-03 0.  1.
        -12    1    3    3    0    0 -0.42907598969E+00 -0.10646384377E+00  0.78836796065E+01  0.78960651525E+01  0.00000000000E+00 0.  1.
</event>
<event>
 7    1  0.2751796E-010  0.4778727E+02  0.7816164E-02  0.1312668E+00
        -11   -1    0    0    0    0  0.00000000000E+00  0.00000000000E+00  0.45593999997E+02  0.45594000000E+02  0.51100000000E-03 0.  1.
         11   -1    0    0    0    0 -0.00000000000E+00 -0.00000000000E+00 -0.45593999997E+02  0.45594000000E+02  0.51100000000E-03 0. -1.
    9900012    2    1    2    0    0  0.12760997437E+02  0.41275049970E+02  0.41413212776E+01  0.47787270196E+02  0.19999996132E+02 0.  0.
         12    1    1    2    0    0 -0.12760997437E+02 -0.41275049970E+02 -0.41413212776E+01  0.43400729804E+02  0.00000000000E+00 0. -1.
         11    1    3    3    0    0  0.23127116659E+01  0.17174933792E+02  0.61138427423E+01  0.18376780440E+02  0.51100000000E-03 0. -1.
        -11    1    3    3    0    0  0.19828164173E+01  0.81015561967E+00 -0.40098898706E+01  0.45461115372E+01  0.51100000000E-03 0.  1.
        -12    1    3    3    0    0  0.84654693539E+01  0.23289960558E+02  0.20373684059E+01  0.24864378219E+02  0.00000000000E+00 0.  1.
</event>
<event>
 7    1  0.2751796E-010  0.4778727E+02  0.7816164E-02  0.1312668E+00
        -11   -1    0    0    0    0  0.00000000000E+00  0.00000000000E+00  0.45593999997E+02  0.45594000000E+02  0.51100000000E-03 0.  1.
         11   -1    0    0    0    0 -0.00000000000E+00 -0.00000000000E+00 -0.45593999997E+02  0.45594000000E+02  0.51100000000E-03 0. -1.
    9900012    2    1    2    0    0  0.65015412265E+01  0.20266466075E+02  0.37823585452E+02  0.47787270721E+02  0.19999998526E+02 0.  0.
         12    1    1    2    0    0 -0.65015412265E+01 -0.20266466075E+02 -0.37823585452E+02  0.43400729279E+02  0.00000000000E+00 0. -1.
         11    1    3    3    0    0  0.75245612513E+01  0.60959657398E+01  0.57373356144E+01  0.11255969107E+02  0.51100000000E-03 0. -1.
        -11    1    3    3    0    0  0.31386351703E+01  0.63090236787E+01  0.70754694800E+01  0.99858439370E+01  0.51100000000E-03 0.  1.
         12    1    3    3    0    0 -0.41616551951E+01  0.78614766566E+01  0.25010780358E+02  0.26545457677E+02  0.00000000000E+00 0. -1.
</event>
<event>
 7    1  0.2751796E-010  0.4778727E+02  0.7816164E-02  0.1312668E+00
        -11   -1    0    0    0    0  0.00000000000E+00  0.00000000000E+00  0.45593999997E+02  0.45594000000E+02  0.51100000000E-03 0. -1.
         11   -1    0    0    0    0 -0.00000000000E+00 -0.00000000000E+00 -0.45593999997E+02  0.45594000000E+02  0.51100000000E-03 0.  1.
    9900012    2    1    2    0    0  0.38087247491E+02 -0.16706303152E+02 -0.12405010621E+02  0.47787271032E+02  0.19999999944E+02 0.  0.
         12    1    1    2    0    0 -0.38087247491E+02  0.16706303152E+02  0.12405010621E+02  0.43400728968E+02  0.00000000000E+00 0. -1.
         11    1    3    3    0    0  0.22804171208E+02 -0.61589487356E+00 -0.34499952905E+01  0.23071888062E+02  0.51100000000E-03 0. -1.
        -11    1    3    3    0    0  0.80508851408E+01 -0.12725311764E+02 -0.59654141522E+01  0.16196804540E+02  0.51100000000E-03 0.  1.
         12    1    3    3    0    0  0.72321911414E+01 -0.33650965141E+01 -0.29896011787E+01  0.85185784297E+01  0.00000000000E+00 0. -1.
</event>
<event>
 7    1  0.2751796E-010  0.4778727E+02  0.7816164E-02  0.1312668E+00
        -11   -1    0    0    0    0  0.00000000000E+00  0.00000000000E+00  0.45593999997E+02  0.45594000000E+02  0.51100000000E-03 0. -1.
         11   -1    0    0    0    0 -0.00000000000E+00 -0.00000000000E+00 -0.45593999997E+02  0.45594000000E+02  0.51100000000E-03 0.  1.
    9900012    2    1    2    0    0  0.10703047252E+02 -0.39585357648E+02 -0.14215045632E+02  0.47787270941E+02  0.19999999526E+02 0.  0.
         12    1    1    2    0    0 -0.10703047252E+02  0.39585357648E+02  0.14215045632E+02  0.43400729059E+02  0.00000000000E+00 0. -1.
         11    1    3    3    0    0  0.10595097367E+02 -0.82701138923E+01 -0.39571046642E+00  0.13446466415E+02  0.51100000000E-03 0. -1.
        -11    1    3    3    0    0 -0.12964919385E+01 -0.17965181474E+02 -0.77327390074E+01  0.19601629768E+02  0.51100000000E-03 0.  1.
        -12    1    3    3    0    0  0.14044418240E+01 -0.13350062281E+02 -0.60865961583E+01  0.14739174757E+02  0.00000000000E+00 0.  1.
</event>
<event>
 7    1  0.2751796E-010  0.4778727E+02  0.7816164E-02  0.1312668E+00
        -11   -1    0    0    0    0  0.00000000000E+00  0.00000000000E+00  0.45593999997E+02  0.45594000000E+02  0.51100000000E-03 0.  1.
         11   -1    0    0    0    0 -0.00000000000E+00 -0.00000000000E+00 -0.45593999997E+02  0.45594000000E+02  0.51100000000E-03 0. -1.
    9900012    2    1    2    0    0  0.12111493615E+02 -0.20388763334E+02  0.36348774961E+02  0.47787269718E+02  0.19999993951E+02 0.  0.
         12    1    1    2    0    0 -0.12111493615E+02  0.20388763334E+02 -0.36348774961E+02  0.43400730282E+02  0.00000000000E+00 0. -1.
         11    1    3    3    0    0 -0.25948284528E+01 -0.10813139486E+02  0.77987584467E+01  0.13582258789E+02  0.51100000000E-03 0. -1.
        -11    1    3    3    0    0  0.62483683766E+01 -0.77253978263E+01  0.17969900380E+02  0.20533903644E+02  0.51100000000E-03 0.  1.
         12    1    3    3    0    0  0.84579536907E+01 -0.18502260218E+01  0.10580116134E+02  0.13671107284E+02  0.00000000000E+00 0. -1.
</event>
<event>
 7    1  0.2751796E-010  0.4778727E+02  0.7816164E-02  0.1312668E+00
        -11   -1    0    0    0    0  0.00000000000E+00  0.00000000000E+00  0.45593999997E+02  0.45594000000E+02  0.51100000000E-03 0.  1.
         11   -1    0    0    0    0 -0.00000000000E+00 -0.00000000000E+00 -0.45593999997E+02  0.45594000000E+02  0.51100000000E-03 0. -1.
    9900012    2    1    2    0    0  0.22074150266E+02 -0.32308776810E+02  0.18774940863E+02  0.47787267595E+02  0.19999984272E+02 0.  0.
         12    1    1    2    0    0 -0.22074150266E+02  0.32308776810E+02 -0.18774940863E+02  0.43400732405E+02  0.00000000000E+00 0. -1.
         11    1    3    3    0    0  0.11228598403E+02 -0.51857163189E+01  0.64574785754E+01  0.13952494603E+02  0.51100000000E-03 0. -1.
        -11    1    3    3    0    0 -0.20922335129E+01 -0.88667858254E+01  0.29341839561E+01  0.95711424446E+01  0.51100000000E-03 0.  1.
        -12    1    3    3    0    0  0.12937785375E+02 -0.18256274665E+02  0.93832783316E+01  0.24263630547E+02  0.00000000000E+00 0.  1.
</event>
<event>
 7    1  0.2751796E-010  0.4778727E+02  0.7816164E-02  0.1312668E+00
        -11   -1    0    0    0    0  0.00000000000E+00  0.00000000000E+00  0.45593999997E+02  0.45594000000E+02  0.51100000000E-03 0.  1.
         11   -1    0    0    0    0 -0.00000000000E+00 -0.00000000000E+00 -0.45593999997E+02  0.45594000000E+02  0.51100000000E-03 0. -1.
    9900012    2    1    2    0    0  0.92305186706E+00  0.24328736090E+02  0.35928873399E+02  0.47787269958E+02  0.19999995045E+02 0.  0.
         12    1    1    2    0    0 -0.92305186706E+00 -0.24328736090E+02 -0.35928873399E+02  0.43400730042E+02  0.00000000000E+00 0. -1.
         11    1    3    3    0    0 -0.74805372114E+01  0.10720258299E+02  0.16187782115E+02  0.20806889845E+02  0.51100000000E-03 0. -1.
        -11    1    3    3    0    0  0.59182211657E+01  0.17336421513E+01  0.79596738469E+01  0.10069124336E+02  0.51100000000E-03 0.  1.
         12    1    3    3    0    0  0.24853679128E+01  0.11874835639E+02  0.11781417437E+02  0.16911255777E+02  0.00000000000E+00 0. -1.
</event>
<event>
 7    1  0.2751796E-010  0.4778727E+02  0.7816164E-02  0.1312668E+00
        -11   -1    0    0    0    0  0.00000000000E+00  0.00000000000E+00  0.45593999997E+02  0.45594000000E+02  0.51100000000E-03 0.  1.
         11   -1    0    0    0    0 -0.00000000000E+00 -0.00000000000E+00 -0.45593999997E+02  0.45594000000E+02  0.51100000000E-03 0. -1.
    9900012    2    1    2    0    0  0.26573429078E+02 -0.14833530591E+02  0.30942568635E+02  0.47787270553E+02  0.19999997761E+02 0.  0.
         12    1    1    2    0    0 -0.26573429078E+02  0.14833530591E+02 -0.30942568635E+02  0.43400729447E+02  0.00000000000E+00 0. -1.
         11    1    3    3    0    0  0.23171163411E+01  0.33928043577E+01  0.34947219552E+01  0.53938141748E+01  0.51100000000E-03 0. -1.
        -11    1    3    3    0    0  0.87269512112E+01 -0.12431016439E+02  0.17015375777E+02  0.22808175294E+02  0.51100000000E-03 0.  1.
        -12    1    3    3    0    0  0.15529361526E+02 -0.57953185099E+01  0.10432470903E+02  0.19585281085E+02  0.00000000000E+00 0.  1.
</event>
<event>
 7    1  0.2751796E-010  0.4778729E+02  0.7816164E-02  0.1312668E+00
        -11   -1    0    0    0    0  0.00000000000E+00  0.00000000000E+00  0.45593999997E+02  0.45594000000E+02  0.51100000000E-03 0.  1.
         11   -1    0    0    0    0 -0.00000000000E+00 -0.00000000000E+00 -0.45593999997E+02  0.45594000000E+02  0.51100000000E-03 0. -1.
    9900012    2    1    2    0    0 -0.16519583809E+02  0.12215478623E+02  0.38229664642E+02  0.47787287726E+02  0.20000076060E+02 0.  0.
         12    1    1    2    0    0  0.16519583809E+02 -0.12215478623E+02 -0.38229664642E+02  0.43400712274E+02  0.00000000000E+00 0. -1.
         11    1    3    3    0    0 -0.11151255029E+02  0.79065555925E+00  0.17315474931E+02  0.20610708316E+02  0.51100000000E-03 0.  1.
        -11    1    3    3    0    0 -0.46669239757E+00  0.11096373127E+02  0.90193771041E+01  0.14307217129E+02  0.51100000000E-03 0. -1.
         12    1    3    3    0    0 -0.49016363825E+01  0.32844993686E+00  0.11894812607E+02  0.12869362282E+02  0.00000000000E+00 0. -1.
</event>
<event>
 7    1  0.2751796E-010  0.4778726E+02  0.7816164E-02  0.1312668E+00
        -11   -1    0    0    0    0  0.00000000000E+00  0.00000000000E+00  0.45593999997E+02  0.45594000000E+02  0.51100000000E-03 0.  1.
         11   -1    0    0    0    0 -0.00000000000E+00 -0.00000000000E+00 -0.45593999997E+02  0.45594000000E+02  0.51100000000E-03 0. -1.
    9900012    2    1    2    0    0  0.20706085669E+02 -0.14186379136E+01  0.38116523253E+02  0.47787264267E+02  0.19999969100E+02 0.  0.
         12    1    1    2    0    0 -0.20706085669E+02  0.14186379136E+01 -0.38116523253E+02  0.43400735733E+02  0.00000000000E+00 0. -1.
         11    1    3    3    0    0  0.23826773127E+01  0.25088674187E+00  0.64840425749E+00  0.24820402245E+01  0.51100000000E-03 0. -1.
        -11    1    3    3    0    0 -0.20966596580E+01 -0.29651982501E+01  0.15095835930E+01  0.39328393394E+01  0.51100000000E-03 0.  1.
        -12    1    3    3    0    0  0.20420068015E+02  0.12956735947E+01  0.35958535402E+02  0.41372384703E+02  0.00000000000E+00 0.  1.
</event>
<event>
 7    1  0.2751796E-010  0.4778727E+02  0.7816164E-02  0.1312668E+00
        -11   -1    0    0    0    0  0.00000000000E+00  0.00000000000E+00  0.45593999997E+02  0.45594000000E+02  0.51100000000E-03 0.  1.
         11   -1    0    0    0    0 -0.00000000000E+00 -0.00000000000E+00 -0.45593999997E+02  0.45594000000E+02  0.51100000000E-03 0. -1.
    9900012    2    1    2    0    0  0.25865091444E+02  0.29072771729E+01  0.34729928658E+02  0.47787272350E+02  0.20000005952E+02 0.  0.
         12    1    1    2    0    0 -0.25865091444E+02 -0.29072771729E+01 -0.34729928658E+02  0.43400727650E+02  0.00000000000E+00 0. -1.
         11    1    3    3    0    0  0.11904781283E+02 -0.75124345325E+01  0.20085495127E+02  0.24527282866E+02  0.51100000000E-03 0. -1.
        -11    1    3    3    0    0  0.20474065456E+01  0.36385175996E+01  0.20768130416E+01  0.46630286892E+01  0.51100000000E-03 0.  1.
         12    1    3    3    0    0  0.11912903616E+02  0.67811941058E+01  0.12567620489E+02  0.18596960795E+02  0.00000000000E+00 0. -1.
</event>
<event>
 7    1  0.2751796E-010  0.4778727E+02  0.7816164E-02  0.1312668E+00
        -11   -1    0    0    0    0  0.00000000000E+00  0.00000000000E+00  0.45593999997E+02  0.45594000000E+02  0.51100000000E-03 0. -1.
         11   -1    0    0    0    0 -0.00000000000E+00 -0.00000000000E+00 -0.45593999997E+02  0.45594000000E+02  0.51100000000E-03 0.  1.
    9900012    2    1    2    0    0  0.19035000972E+02 -0.38320537476E+02 -0.72683124237E+01  0.47787271666E+02  0.20000002833E+02 0.  0.
         12    1    1    2    0    0 -0.19035000972E+02  0.38320537476E+02  0.72683124237E+01  0.43400728334E+02  0.00000000000E+00 0. -1.
         11    1    3    3    0    0 -0.25687390500E+01 -0.46817776162E+01  0.13547568444E+01  0.55093400987E+01  0.51100000000E-03 0. -1.
        -11    1    3    3    0    0  0.21985620868E+02 -0.27682527691E+02 -0.82313756407E+01  0.36296630829E+02  0.51100000000E-03 0.  1.
        -12    1    3    3    0    0 -0.38188084576E+00 -0.59562321685E+01 -0.39169362739E+00  0.59813007384E+01  0.00000000000E+00 0.  1.
</event>
<event>
 7    1  0.2751796E-010  0.4778727E+02  0.7816164E-02  0.1312668E+00
        -11   -1    0    0    0    0  0.00000000000E+00  0.00000000000E+00  0.45593999997E+02  0.45594000000E+02  0.51100000000E-03 0. -1.
         11   -1    0    0    0    0 -0.00000000000E+00 -0.00000000000E+00 -0.45593999997E+02  0.45594000000E+02  0.51100000000E-03 0.  1.
    9900012    2    1    2    0    0  0.26896135477E+02 -0.23910114098E+02 -0.24259588428E+02  0.47787270853E+02  0.19999999128E+02 0.  0.
         12    1    1    2    0    0 -0.26896135477E+02  0.23910114098E+02  0.24259588428E+02  0.43400729147E+02  0.00000000000E+00 0. -1.
         11    1    3    3    0    0  0.56388066137E+01 -0.11415298236E+01 -0.35985939616E+00  0.57644366083E+01  0.51100000000E-03 0. -1.
        -11    1    3    3    0    0  0.19862876620E+02 -0.11073602951E+02 -0.14709634136E+02  0.27083793800E+02  0.51100000000E-03 0.  1.
        -12    1    3    3    0    0  0.13944522433E+01 -0.11694981323E+02 -0.91900948964E+01  0.14939040445E+02  0.00000000000E+00 0.  1.
</event>
<event>
 7    1  0.2751796E-010  0.4778726E+02  0.7816164E-02  0.1312668E+00
        -11   -1    0    0    0    0  0.00000000000E+00  0.00000000000E+00  0.45593999997E+02  0.45594000000E+02  0.51100000000E-03 0. -1.
         11   -1    0    0    0    0 -0.00000000000E+00 -0.00000000000E+00 -0.45593999997E+02  0.45594000000E+02  0.51100000000E-03 0.  1.
    9900012    2    1    2    0    0 -0.30432751509E+02 -0.28128290411E+02 -0.12894617388E+02  0.47787259874E+02  0.19999949071E+02 0.  0.
         12    1    1    2    0    0  0.30432751509E+02  0.28128290411E+02  0.12894617388E+02  0.43400740126E+02  0.00000000000E+00 0. -1.
         11    1    3    3    0    0 -0.81234742986E+01 -0.71386230128E+01 -0.18968081771E+01  0.10979465138E+02  0.51100000000E-03 0. -1.
        -11    1    3    3    0    0 -0.37146290351E+01 -0.12624737026E+02  0.91773631106E+00  0.13191841951E+02  0.51100000000E-03 0.  1.
        -12    1    3    3    0    0 -0.18594648175E+02 -0.83649303723E+01 -0.11915545522E+02  0.23615952786E+02  0.00000000000E+00 0.  1.
</event>
<event>
 7    1  0.2751796E-010  0.4778727E+02  0.7816164E-02  0.1312668E+00
        -11   -1    0    0    0    0  0.00000000000E+00  0.00000000000E+00  0.45593999997E+02  0.45594000000E+02  0.51100000000E-03 0.  1.
         11   -1    0    0    0    0 -0.00000000000E+00 -0.00000000000E+00 -0.45593999997E+02  0.45594000000E+02  0.51100000000E-03 0. -1.
    9900012    2    1    2    0    0  0.91692927239E+01  0.38383456625E+02  0.18062598897E+02  0.47787272467E+02  0.20000006485E+02 0.  0.
         12    1    1    2    0    0 -0.91692927239E+01 -0.38383456625E+02 -0.18062598897E+02  0.43400727533E+02  0.00000000000E+00 0. -1.
         11    1    3    3    0    0 -0.19603760487E+01  0.16407693771E+02  0.92874782588E+01  0.18955546465E+02  0.51100000000E-03 0. -1.
        -11    1    3    3    0    0  0.10578103015E+02  0.75958422283E+01  0.32957626243E+01  0.13433359003E+02  0.51100000000E-03 0.  1.
        -12    1    3    3    0    0  0.55156575718E+00  0.14379920626E+02  0.54793580136E+01  0.15398366999E+02  0.00000000000E+00 0.  1.
</event>
<event>
 7    1  0.2751796E-010  0.4778727E+02  0.7816164E-02  0.1312668E+00
        -11   -1    0    0    0    0  0.00000000000E+00  0.00000000000E+00  0.45593999997E+02  0.45594000000E+02  0.51100000000E-03 0. -1.
         11   -1    0    0    0    0 -0.00000000000E+00 -0.00000000000E+00 -0.45593999997E+02  0.45594000000E+02  0.51100000000E-03 0.  1.
    9900012    2    1    2    0    0  0.36379164392E+02 -0.94105039089E+01 -0.21716861269E+02  0.47787271331E+02  0.20000001305E+02 0.  0.
         12    1    1    2    0    0 -0.36379164392E+02  0.94105039089E+01  0.21716861269E+02  0.43400728669E+02  0.00000000000E+00 0. -1.
         11    1    3    3    0    0  0.69466130154E+01  0.17743405870E+01  0.55498569117E-01  0.71698533637E+01  0.51100000000E-03 0. -1.
        -11    1    3    3    0    0  0.24598289480E+02 -0.11253959120E+02 -0.23134984114E+02  0.35594310380E+02  0.51100000000E-03 0.  1.
        -12    1    3    3    0    0  0.48342618967E+01  0.69114623879E-01  0.13626242760E+01  0.50231075874E+01  0.00000000000E+00 0.  1.
</event>
<event>
 7    1  0.2751796E-010  0.4778727E+02  0.7816164E-02  0.1312668E+00
        -11   -1    0    0    0    0  0.00000000000E+00  0.00000000000E+00  0.45593999997E+02  0.45594000000E+02  0.51100000000E-03 0.  1.
         11   -1    0    0    0    0 -0.00000000000E+00 -0.00000000000E+00 -0.45593999997E+02  0.45594000000E+02  0.51100000000E-03 0. -1.
    9900012    2    1    2    0    0 -0.31277773423E+02 -0.18760051870E+02 -0.23524126475E+02  0.47787272092E+02  0.20000004777E+02 0.  0.
         12    1    1    2    0    0  0.31277773423E+02  0.18760051870E+02  0.23524126475E+02  0.43400727908E+02  0.00000000000E+00 0. -1.
         11    1    3    3    0    0  0.52730284473E+00 -0.46081185036E+01 -0.16867123341E+01  0.49353625189E+01  0.51100000000E-03 0. -1.
        -11    1    3    3    0    0 -0.30117549572E+02 -0.15716634350E+02 -0.18179158562E+02  0.38530003813E+02  0.51100000000E-03 0.  1.
        -12    1    3    3    0    0 -0.16875266954E+01  0.15647009835E+01 -0.36582555797E+01  0.43219057605E+01  0.00000000000E+00 0.  1.
</event>
<event>
 7    1  0.2751796E-010  0.4778727E+02  0.7816164E-02  0.1312668E+00
        -11   -1    0    0    0    0  0.00000000000E+00  0.00000000000E+00  0.45593999997E+02  0.45594000000E+02  0.51100000000E-03 0.  1.
         11   -1    0    0    0    0 -0.00000000000E+00 -0.00000000000E+00 -0.45593999997E+02  0.45594000000E+02  0.51100000000E-03 0. -1.
    9900012    2    1    2    0    0 -0.35119611955E+02  0.78692821337E+01  0.24255121501E+02  0.47787266548E+02  0.19999979498E+02 0.  0.
         12    1    1    2    0    0  0.35119611955E+02 -0.78692821337E+01 -0.24255121501E+02  0.43400733452E+02  0.00000000000E+00 0. -1.
         11    1    3    3    0    0 -0.23886037349E+02  0.10397915162E+02  0.24742536135E+02  0.35928436017E+02  0.51100000000E-03 0. -1.
        -11    1    3    3    0    0 -0.64966546580E+01 -0.28254110732E+01  0.29880628635E-01  0.70845156921E+01  0.51100000000E-03 0.  1.
         12    1    3    3    0    0 -0.47369199472E+01  0.29677804497E+00 -0.51729526177E+00  0.47743148390E+01  0.00000000000E+00 0. -1.
</event>
<event>
 7    1  0.2751796E-010  0.4778727E+02  0.7816164E-02  0.1312668E+00
        -11   -1    0    0    0    0  0.00000000000E+00  0.00000000000E+00  0.45593999997E+02  0.45594000000E+02  0.51100000000E-03 0.  1.
         11   -1    0    0    0    0 -0.00000000000E+00 -0.00000000000E+00 -0.45593999997E+02  0.45594000000E+02  0.51100000000E-03 0. -1.
    9900012    2    1    2    0    0 -0.94404705916E+01 -0.24776237873E+02  0.34360430334E+02  0.47787267047E+02  0.19999981772E+02 0.  0.
         12    1    1    2    0    0  0.94404705916E+01  0.24776237873E+02 -0.34360430334E+02  0.43400732953E+02  0.00000000000E+00 0. -1.
         11    1    3    3    0    0  0.28198448616E+01 -0.77702163346E+01  0.14960827049E+02  0.17092516877E+02  0.51100000000E-03 0. -1.
        -11    1    3    3    0    0 -0.89108439658E+01 -0.51682420922E+01  0.13687777468E+02  0.17130940394E+02  0.51100000000E-03 0.  1.
         12    1    3    3    0    0 -0.33494714874E+01 -0.11837779446E+02  0.57118258169E+01  0.13563809775E+02  0.00000000000E+00 0. -1.
</event>
<event>
 7    1  0.2751796E-010  0.4778730E+02  0.7816164E-02  0.1312668E+00
        -11   -1    0    0    0    0  0.00000000000E+00  0.00000000000E+00  0.45593999997E+02  0.45594000000E+02  0.51100000000E-03 0. -1.
         11   -1    0    0    0    0 -0.00000000000E+00 -0.00000000000E+00 -0.45593999997E+02  0.45594000000E+02  0.51100000000E-03 0.  1.
    9900012    2    1    2    0    0  0.29448839807E+02 -0.31611761684E+02  0.41331563751E+01  0.47787301568E+02  0.20000139171E+02 0.  0.
         12    1    1    2    0    0 -0.29448839807E+02  0.31611761684E+02 -0.41331563751E+01  0.43400698432E+02  0.00000000000E+00 0. -1.
         11    1    3    3    0    0  0.47138698929E+01 -0.98653631478E-01  0.32329830551E+00  0.47259733348E+01  0.51100000000E-03 0. -1.
        -11    1    3    3    0    0  0.11626580724E+02 -0.15988765314E+02  0.95397487005E+01  0.21950507992E+02  0.51100000000E-03 0.  1.
        -12    1    3    3    0    0  0.13108389190E+02 -0.15524342738E+02 -0.57298906309E+01  0.21110820241E+02  0.00000000000E+00 0.  1.
</event>
<event>
 7    1  0.2751796E-010  0.4778727E+02  0.7816164E-02  0.1312668E+00
        -11   -1    0    0    0    0  0.00000000000E+00  0.00000000000E+00  0.45593999997E+02  0.45594000000E+02  0.51100000000E-03 0. -1.
         11   -1    0    0    0    0 -0.00000000000E+00 -0.00000000000E+00 -0.45593999997E+02  0.45594000000E+02  0.51100000000E-03 0.  1.
    9900012    2    1    2    0    0  0.41614863472E+01 -0.35783176619E+02 -0.24204736922E+02  0.47787274349E+02  0.20000015068E+02 0.  0.
         12    1    1    2    0    0 -0.41614863472E+01  0.35783176619E+02  0.24204736922E+02  0.43400725651E+02  0.00000000000E+00 0. -1.
         11    1    3    3    0    0  0.54081807193E-01 -0.87860736541E+01 -0.20698780206E+01  0.90267607910E+01  0.51100000000E-03 0. -1.
        -11    1    3    3    0    0  0.90104873082E+01 -0.20513393469E+02 -0.20704409074E+02  0.30506732839E+02  0.51100000000E-03 0.  1.
        -12    1    3    3    0    0 -0.49030827682E+01 -0.64837094958E+01 -0.14304498276E+01  0.82537807195E+01  0.00000000000E+00 0.  1.
</event>
<event>
 7    1  0.2751796E-010  0.4778722E+02  0.7816164E-02  0.1312668E+00
        -11   -1    0    0    0    0  0.00000000000E+00  0.00000000000E+00  0.45593999997E+02  0.45594000000E+02  0.51100000000E-03 0.  1.
         11   -1    0    0    0    0 -0.00000000000E+00 -0.00000000000E+00 -0.45593999997E+02  0.45594000000E+02  0.51100000000E-03 0. -1.
    9900012    2    1    2    0    0  0.38105922235E+02 -0.20341690575E+02 -0.42168858151E+01  0.47787218777E+02  0.19999761689E+02 0.  0.
         12    1    1    2    0    0 -0.38105922235E+02  0.20341690575E+02  0.42168858151E+01  0.43400781223E+02  0.00000000000E+00 0. -1.
         11    1    3    3    0    0  0.13321293149E+00 -0.48312873665E+01 -0.25134311916E+01  0.54476068065E+01  0.51100000000E-03 0. -1.
        -11    1    3    3    0    0  0.89298868605E+01 -0.74335177582E+01 -0.35184902031E+01  0.12140009851E+02  0.51100000000E-03 0.  1.
         12    1    3    3    0    0  0.29042822443E+02 -0.80768854499E+01  0.18150355796E+01  0.30199602120E+02  0.00000000000E+00 0. -1.
</event>
<event>
 7    1  0.2751796E-010  0.4778727E+02  0.7816164E-02  0.1312668E+00
        -11   -1    0    0    0    0  0.00000000000E+00  0.00000000000E+00  0.45593999997E+02  0.45594000000E+02  0.51100000000E-03 0.  1.
         11   -1    0    0    0    0 -0.00000000000E+00 -0.00000000000E+00 -0.45593999997E+02  0.45594000000E+02  0.51100000000E-03 0. -1.
    9900012    2    1    2    0    0  0.12399257676E+02  0.37810373124E+02  0.17327934611E+02  0.47787271613E+02  0.20000002591E+02 0.  0.
         12    1    1    2    0    0 -0.12399257676E+02 -0.37810373124E+02 -0.17327934611E+02  0.43400728387E+02  0.00000000000E+00 0. -1.
         11    1    3    3    0    0  0.34649116654E+00  0.31076345935E+01  0.61082947516E+01  0.68621216784E+01  0.51100000000E-03 0. -1.
        -11    1    3    3    0    0  0.12110717138E+02  0.15810560825E+02  0.23489380083E+01  0.20053947573E+02  0.51100000000E-03 0.  1.
        -12    1    3    3    0    0 -0.57950628392E-01  0.18892177705E+02  0.88707018507E+01  0.20871202362E+02  0.00000000000E+00 0.  1.
</event>
<event>
 7    1  0.2751796E-010  0.4778729E+02  0.7816164E-02  0.1312668E+00
        -11   -1    0    0    0    0  0.00000000000E+00  0.00000000000E+00  0.45593999997E+02  0.45594000000E+02  0.51100000000E-03 0.  1.
         11   -1    0    0    0    0 -0.00000000000E+00 -0.00000000000E+00 -0.45593999997E+02  0.45594000000E+02  0.51100000000E-03 0. -1.
    9900012    2    1    2    0    0 -0.41360862893E+02 -0.13140843835E+02  0.46758937298E+00  0.47787292681E+02  0.20000098650E+02 0.  0.
         12    1    1    2    0    0  0.41360862893E+02  0.13140843835E+02 -0.46758937298E+00  0.43400707319E+02  0.00000000000E+00 0. -1.
         11    1    3    3    0    0  0.25409200705E+00 -0.21972081496E+01 -0.34679867817E+01  0.41132978229E+01  0.51100000000E-03 0. -1.
        -11    1    3    3    0    0 -0.16162593174E+02 -0.37104730057E+01  0.45871709752E+01  0.17205788731E+02  0.51100000000E-03 0.  1.
         12    1    3    3    0    0 -0.25452361726E+02 -0.72331626800E+01 -0.65159482055E+00  0.26468206128E+02  0.00000000000E+00 0. -1.
</event>
<event>
 7    1  0.2751796E-010  0.4778728E+02  0.7816164E-02  0.1312668E+00
        -11   -1    0    0    0    0  0.00000000000E+00  0.00000000000E+00  0.45593999997E+02  0.45594000000E+02  0.51100000000E-03 0.  1.
         11   -1    0    0    0    0 -0.00000000000E+00 -0.00000000000E+00 -0.45593999997E+02  0.45594000000E+02  0.51100000000E-03 0. -1.
    9900012    2    1    2    0    0 -0.11179726674E+02 -0.14026912431E+02  0.39520655396E+02  0.47787276921E+02  0.20000026793E+02 0.  0.
         12    1    1    2    0    0  0.11179726674E+02  0.14026912431E+02 -0.39520655396E+02  0.43400723079E+02  0.00000000000E+00 0. -1.
         11    1    3    3    0    0 -0.14603307948E+01  0.13050630023E+00  0.18448775416E+02  0.18506942280E+02  0.51100000000E-03 0. -1.
        -11    1    3    3    0    0 -0.21489685841E+01 -0.77837737478E+01  0.16519079721E+02  0.18387093158E+02  0.51100000000E-03 0.  1.
         12    1    3    3    0    0 -0.75704272953E+01 -0.63736449832E+01  0.45528002593E+01  0.10893241483E+02  0.00000000000E+00 0. -1.
</event>
<event>
 7    1  0.2751796E-010  0.4778727E+02  0.7816164E-02  0.1312668E+00
        -11   -1    0    0    0    0  0.00000000000E+00  0.00000000000E+00  0.45593999997E+02  0.45594000000E+02  0.51100000000E-03 0. -1.
         11   -1    0    0    0    0 -0.00000000000E+00 -0.00000000000E+00 -0.45593999997E+02  0.45594000000E+02  0.51100000000E-03 0.  1.
    9900012    2    1    2    0    0  0.14767981213E+01  0.33574308062E+02 -0.27462847399E+02  0.47787273258E+02  0.20000010091E+02 0.  0.
         12    1    1    2    0    0 -0.14767981213E+01 -0.33574308062E+02  0.27462847399E+02  0.43400726742E+02  0.00000000000E+00 0. -1.
         11    1    3    3    0    0  0.59219102366E+00 -0.22557409316E+01 -0.22101061148E+01  0.32130400960E+01  0.51100000000E-03 0. -1.
        -11    1    3    3    0    0 -0.32812488584E+01  0.18118520978E+02 -0.14522376239E+02  0.23450944723E+02  0.51100000000E-03 0.  1.
        -12    1    3    3    0    0  0.41658559561E+01  0.17711528015E+02 -0.10730365045E+02  0.21123288439E+02  0.00000000000E+00 0.  1.
</event>
<event>
 7    1  0.2751796E-010  0.4778727E+02  0.7816164E-02  0.1312668E+00
        -11   -1    0    0    0    0  0.00000000000E+00  0.00000000000E+00  0.45593999997E+02  0.45594000000E+02  0.51100000000E-03 0. -1.
         11   -1    0    0    0    0 -0.00000000000E+00 -0.00000000000E+00 -0.45593999997E+02  0.45594000000E+02  0.51100000000E-03 0.  1.
    9900012    2    1    2    0    0  0.13354971628E+02  0.84208357260E+00 -0.41286302214E+02  0.47787272789E+02  0.20000007955E+02 0.  0.
         12    1    1    2    0    0 -0.13354971628E+02 -0.84208357260E+00  0.41286302214E+02  0.43400727211E+02  0.00000000000E+00 0. -1.
         11    1    3    3    0    0 -0.33805810214E+01 -0.16598261188E+01 -0.73576710633E+00  0.38372782390E+01  0.51100000000E-03 0. -1.
        -11    1    3    3    0    0  0.12704018719E+02  0.16160263617E+01 -0.29867221305E+02  0.32496992808E+02  0.51100000000E-03 0.  1.
         12    1    3    3    0    0  0.40315339304E+01  0.88588332973E+00 -0.10683313803E+02  0.11453001743E+02  0.00000000000E+00 0. -1.
</event>
<event>
 7    1  0.2751796E-010  0.4778727E+02  0.7816164E-02  0.1312668E+00
        -11   -1    0    0    0    0  0.00000000000E+00  0.00000000000E+00  0.45593999997E+02  0.45594000000E+02  0.51100000000E-03 0. -1.
         11   -1    0    0    0    0 -0.00000000000E+00 -0.00000000000E+00 -0.45593999997E+02  0.45594000000E+02  0.51100000000E-03 0.  1.
    9900012    2    1    2    0    0  0.10294523147E+02 -0.42053619924E+02  0.30230507888E+01  0.47787274297E+02  0.20000014829E+02 0.  0.
         12    1    1    2    0    0 -0.10294523147E+02  0.42053619924E+02 -0.30230507888E+01  0.43400725703E+02  0.00000000000E+00 0. -1.
         11    1    3    3    0    0 -0.15579844022E+01 -0.17297218261E+02  0.36519410274E+01  0.17747049008E+02  0.51100000000E-03 0. -1.
        -11    1    3    3    0    0  0.99190412319E+00 -0.15577937554E+02  0.14192948282E+01  0.15673876684E+02  0.51100000000E-03 0.  1.
         12    1    3    3    0    0  0.10860603426E+02 -0.91784641080E+01 -0.20481850668E+01  0.14366348604E+02  0.00000000000E+00 0. -1.
</event>
<event>
 7    1  0.2751796E-010  0.4778728E+02  0.7816164E-02  0.1312668E+00
        -11   -1    0    0    0    0  0.00000000000E+00  0.00000000000E+00  0.45593999997E+02  0.45594000000E+02  0.51100000000E-03 0. -1.
         11   -1    0    0    0    0 -0.00000000000E+00 -0.00000000000E+00 -0.45593999997E+02  0.45594000000E+02  0.51100000000E-03 0.  1.
    9900012    2    1    2    0    0  0.59539738921E+01 -0.42067948410E+02 -0.88577823768E+01  0.47787281145E+02  0.20000046051E+02 0.  0.
         12    1    1    2    0    0 -0.59539738921E+01  0.42067948410E+02  0.88577823768E+01  0.43400718855E+02  0.00000000000E+00 0. -1.
         11    1    3    3    0    0  0.10526216865E+02 -0.26435409438E+02 -0.67058700810E+01  0.29233556189E+02  0.51100000000E-03 0. -1.
        -11    1    3    3    0    0 -0.14449714879E+01 -0.11952875184E+02 -0.48984813489E+01  0.12998241710E+02  0.51100000000E-03 0.  1.
         12    1    3    3    0    0 -0.31272714849E+01 -0.36796637878E+01  0.27465690531E+01  0.55554832459E+01  0.00000000000E+00 0. -1.
</event>
<event>
 7    1  0.2751796E-010  0.4778727E+02  0.7816164E-02  0.1312668E+00
        -11   -1    0    0    0    0  0.00000000000E+00  0.00000000000E+00  0.45593999997E+02  0.45594000000E+02  0.51100000000E-03 0. -1.
         11   -1    0    0    0    0 -0.00000000000E+00 -0.00000000000E+00 -0.45593999997E+02  0.45594000000E+02  0.51100000000E-03 0.  1.
    9900012    2    1    2    0    0 -0.36437753426E+02 -0.14263513274E+02 -0.18774079387E+02  0.47787265646E+02  0.19999975385E+02 0.  0.
         12    1    1    2    0    0  0.36437753426E+02  0.14263513274E+02  0.18774079387E+02  0.43400734354E+02  0.00000000000E+00 0. -1.
         11    1    3    3    0    0 -0.32768442977E+01 -0.40545615450E+01  0.14079929539E+01  0.53999650270E+01  0.51100000000E-03 0. -1.
        -11    1    3    3    0    0 -0.19992233675E+02 -0.61550597438E+01 -0.19490930052E+02  0.28591441418E+02  0.51100000000E-03 0.  1.
        -12    1    3    3    0    0 -0.13168675454E+02 -0.40538919851E+01 -0.69114228807E+00  0.13795859201E+02  0.00000000000E+00 0.  1.
</event>
<event>
 7    1  0.2751796E-010  0.4778727E+02  0.7816164E-02  0.1312668E+00
        -11   -1    0    0    0    0  0.00000000000E+00  0.00000000000E+00  0.45593999997E+02  0.45594000000E+02  0.51100000000E-03 0.  1.
         11   -1    0    0    0    0 -0.00000000000E+00 -0.00000000000E+00 -0.45593999997E+02  0.45594000000E+02  0.51100000000E-03 0. -1.
    9900012    2    1    2    0    0  0.17654682787E+02 -0.18300448987E+02  0.35171428739E+02  0.47787266631E+02  0.19999979876E+02 0.  0.
         12    1    1    2    0    0 -0.17654682787E+02  0.18300448987E+02 -0.35171428739E+02  0.43400733369E+02  0.00000000000E+00 0. -1.
         11    1    3    3    0    0  0.10102976253E+02 -0.15778588300E+02  0.27008004326E+02  0.32870446846E+02  0.51100000000E-03 0.  1.
        -11    1    3    3    0    0  0.97450424234E-01 -0.26843566877E+00 -0.20519210544E+01  0.20716984742E+01  0.51100000000E-03 0. -1.
        -12    1    3    3    0    0  0.74542561094E+01 -0.22534250177E+01  0.10215345467E+02  0.12845121310E+02  0.00000000000E+00 0.  1.
</event>
<event>
 7    1  0.2751796E-010  0.4778727E+02  0.7816164E-02  0.1312668E+00
        -11   -1    0    0    0    0  0.00000000000E+00  0.00000000000E+00  0.45593999997E+02  0.45594000000E+02  0.51100000000E-03 0. -1.
         11   -1    0    0    0    0 -0.00000000000E+00 -0.00000000000E+00 -0.45593999997E+02  0.45594000000E+02  0.51100000000E-03 0.  1.
    9900012    2    1    2    0    0  0.20283636898E+02  0.46653634782E+01 -0.38084531901E+02  0.47787272906E+02  0.20000008485E+02 0.  0.
         12    1    1    2    0    0 -0.20283636898E+02 -0.46653634782E+01  0.38084531901E+02  0.43400727094E+02  0.00000000000E+00 0. -1.
         11    1    3    3    0    0 -0.76100293711E+00  0.32173202173E+01 -0.19124601864E+02  0.19408262971E+02  0.51100000000E-03 0. -1.
        -11    1    3    3    0    0  0.10910450327E+02  0.10325060535E+01 -0.93265957611E+01  0.14390600538E+02  0.51100000000E-03 0.  1.
         12    1    3    3    0    0  0.10134189508E+02  0.41553720741E+00 -0.96333342760E+01  0.13988409396E+02  0.00000000000E+00 0. -1.
</event>
<event>
 7    1  0.2751796E-010  0.4778727E+02  0.7816164E-02  0.1312668E+00
        -11   -1    0    0    0    0  0.00000000000E+00  0.00000000000E+00  0.45593999997E+02  0.45594000000E+02  0.51100000000E-03 0. -1.
         11   -1    0    0    0    0 -0.00000000000E+00 -0.00000000000E+00 -0.45593999997E+02  0.45594000000E+02  0.51100000000E-03 0.  1.
    9900012    2    1    2    0    0  0.38861581203E+02 -0.93405167994E+01 -0.16916125537E+02  0.47787273613E+02  0.20000011712E+02 0.  0.
         12    1    1    2    0    0 -0.38861581203E+02  0.93405167994E+01  0.16916125537E+02  0.43400726387E+02  0.00000000000E+00 0. -1.
         11    1    3    3    0    0  0.10652690318E+01  0.12291236920E+01 -0.30238126068E+01  0.34335092984E+01  0.51100000000E-03 0. -1.
        -11    1    3    3    0    0  0.25458397686E+02  0.60774008941E+00 -0.88292159761E+01  0.26952818327E+02  0.51100000000E-03 0.  1.
        -12    1    3    3    0    0  0.12337914486E+02 -0.11177380581E+02 -0.50630969545E+01  0.17400945988E+02  0.00000000000E+00 0.  1.
</event>
<event>
 7    1  0.2751796E-010  0.4778727E+02  0.7816164E-02  0.1312668E+00
        -11   -1    0    0    0    0  0.00000000000E+00  0.00000000000E+00  0.45593999997E+02  0.45594000000E+02  0.51100000000E-03 0.  1.
         11   -1    0    0    0    0 -0.00000000000E+00 -0.00000000000E+00 -0.45593999997E+02  0.45594000000E+02  0.51100000000E-03 0. -1.
    9900012    2    1    2    0    0 -0.19347788989E+02 -0.31224210109E+02  0.23115693169E+02  0.47787268366E+02  0.19999987786E+02 0.  0.
         12    1    1    2    0    0  0.19347788989E+02  0.31224210109E+02 -0.23115693169E+02  0.43400731634E+02  0.00000000000E+00 0. -1.
         11    1    3    3    0    0 -0.52893612938E+00 -0.85416721435E+00 -0.82763644929E+00  0.13016748489E+01  0.51100000000E-03 0. -1.
        -11    1    3    3    0    0 -0.18710254451E+02 -0.13901845228E+02  0.12696899624E+02  0.26543288844E+02  0.51100000000E-03 0.  1.
        -12    1    3    3    0    0 -0.10859840845E+00 -0.16468197667E+02  0.11246429995E+02  0.19942304672E+02  0.00000000000E+00 0.  1.
</event>
<event>
 7    1  0.2751796E-010  0.4778727E+02  0.7816164E-02  0.1312668E+00
        -11   -1    0    0    0    0  0.00000000000E+00  0.00000000000E+00  0.45593999997E+02  0.45594000000E+02  0.51100000000E-03 0. -1.
         11   -1    0    0    0    0 -0.00000000000E+00 -0.00000000000E+00 -0.45593999997E+02  0.45594000000E+02  0.51100000000E-03 0.  1.
    9900012    2    1    2    0    0 -0.65378850377E+01  0.15817917027E+02 -0.39883240272E+02  0.47787270808E+02  0.19999998921E+02 0.  0.
         12    1    1    2    0    0  0.65378850377E+01 -0.15817917027E+02  0.39883240272E+02  0.43400729192E+02  0.00000000000E+00 0. -1.
         11    1    3    3    0    0  0.51608046473E+01  0.43216781412E+01 -0.21211138157E+02  0.22253610690E+02  0.51100000000E-03 0. -1.
        -11    1    3    3    0    0 -0.39729211134E+01  0.76927557212E+01 -0.77072055435E+01  0.11591531836E+02  0.51100000000E-03 0.  1.
         12    1    3    3    0    0 -0.77257685716E+01  0.38034831651E+01 -0.10964896571E+02  0.13942128282E+02  0.00000000000E+00 0. -1.
</event>
<event>
 7    1  0.2751796E-010  0.4778728E+02  0.7816164E-02  0.1312668E+00
        -11   -1    0    0    0    0  0.00000000000E+00  0.00000000000E+00  0.45593999997E+02  0.45594000000E+02  0.51100000000E-03 0.  1.
         11   -1    0    0    0    0 -0.00000000000E+00 -0.00000000000E+00 -0.45593999997E+02  0.45594000000E+02  0.51100000000E-03 0. -1.
    9900012    2    1    2    0    0  0.31403898072E+02  0.75286135989E+01  0.28995482092E+02  0.47787276290E+02  0.20000023916E+02 0.  0.
         12    1    1    2    0    0 -0.31403898072E+02 -0.75286135989E+01 -0.28995482092E+02  0.43400723710E+02  0.00000000000E+00 0. -1.
         11    1    3    3    0    0 -0.42195981987E+00  0.66221270731E+00  0.31033506010E+01  0.32011499455E+01  0.51100000000E-03 0. -1.
        -11    1    3    3    0    0  0.21572708971E+02  0.11303355131E+02  0.21806382149E+02  0.32690455981E+02  0.51100000000E-03 0.  1.
        -12    1    3    3    0    0  0.10253148921E+02 -0.44369542392E+01  0.40857493419E+01  0.11895670363E+02  0.00000000000E+00 0.  1.
</event>
<event>
 7    1  0.2751796E-010  0.4778727E+02  0.7816164E-02  0.1312668E+00
        -11   -1    0    0    0    0  0.00000000000E+00  0.00000000000E+00  0.45593999997E+02  0.45594000000E+02  0.51100000000E-03 0. -1.
         11   -1    0    0    0    0 -0.00000000000E+00 -0.00000000000E+00 -0.45593999997E+02  0.45594000000E+02  0.51100000000E-03 0.  1.
    9900012    2    1    2    0    0 -0.41255856892E+02 -0.13469666049E+02  0.38216136701E+00  0.47787266381E+02  0.19999978735E+02 0.  0.
         12    1    1    2    0    0  0.41255856892E+02  0.13469666049E+02 -0.38216136701E+00  0.43400733619E+02  0.00000000000E+00 0. -1.
         11    1    3    3    0    0 -0.20773629670E+02 -0.10693561726E+02 -0.53533166188E+01  0.23969855050E+02  0.51100000000E-03 0.  1.
        -11    1    3    3    0    0  0.17483850767E+00 -0.59078686094E+00  0.27661334964E+01  0.28339182063E+01  0.51100000000E-03 0. -1.
         12    1    3    3    0    0 -0.20657065730E+02 -0.21853174623E+01  0.29693444894E+01  0.20983493124E+02  0.00000000000E+00 0. -1.
</event>
<event>
 7    1  0.2751796E-010  0.4778727E+02  0.7816164E-02  0.1312668E+00
        -11   -1    0    0    0    0  0.00000000000E+00  0.00000000000E+00  0.45593999997E+02  0.45594000000E+02  0.51100000000E-03 0.  1.
         11   -1    0    0    0    0 -0.00000000000E+00 -0.00000000000E+00 -0.45593999997E+02  0.45594000000E+02  0.51100000000E-03 0. -1.
    9900012    2    1    2    0    0 -0.20332485961E+02 -0.27712072077E+02  0.26500090717E+02  0.47787265765E+02  0.19999975927E+02 0.  0.
         12    1    1    2    0    0  0.20332485961E+02  0.27712072077E+02 -0.26500090717E+02  0.43400734235E+02  0.00000000000E+00 0. -1.
         11    1    3    3    0    0 -0.12756081703E+01 -0.10533854286E+02  0.57354290061E+01  0.12061691775E+02  0.51100000000E-03 0. -1.
        -11    1    3    3    0    0 -0.18717316253E+02 -0.89810522033E+01  0.16229285575E+02  0.26351222684E+02  0.51100000000E-03 0.  1.
        -12    1    3    3    0    0 -0.33956153741E+00 -0.81971655877E+01  0.45353761359E+01  0.93743513057E+01  0.00000000000E+00 0.  1.
</event>
<event>
 7    1  0.2751796E-010  0.4778727E+02  0.7816164E-02  0.1312668E+00
        -11   -1    0    0    0    0  0.00000000000E+00  0.00000000000E+00  0.45593999997E+02  0.45594000000E+02  0.51100000000E-03 0.  1.
         11   -1    0    0    0    0 -0.00000000000E+00 -0.00000000000E+00 -0.45593999997E+02  0.45594000000E+02  0.51100000000E-03 0. -1.
    9900012    2    1    2    0    0  0.27043437281E+02  0.28553429875E+02  0.18356956210E+02  0.47787266148E+02  0.19999977675E+02 0.  0.
         12    1    1    2    0    0 -0.27043437281E+02 -0.28553429875E+02 -0.18356956210E+02  0.43400733852E+02  0.00000000000E+00 0. -1.
         11    1    3    3    0    0  0.18251188204E+02  0.15870675825E+02  0.18898047821E+01  0.24260164558E+02  0.51100000000E-03 0. -1.
        -11    1    3    3    0    0  0.97933350107E+01  0.10328912597E+02  0.13630850788E+02  0.19707763433E+02  0.51100000000E-03 0.  1.
        -12    1    3    3    0    0 -0.10010859343E+01  0.23538414528E+01  0.28363006402E+01  0.38193381566E+01  0.00000000000E+00 0.  1.
</event>
<event>
 7    1  0.2751796E-010  0.4778726E+02  0.7816164E-02  0.1312668E+00
        -11   -1    0    0    0    0  0.00000000000E+00  0.00000000000E+00  0.45593999997E+02  0.45594000000E+02  0.51100000000E-03 0. -1.
         11   -1    0    0    0    0 -0.00000000000E+00 -0.00000000000E+00 -0.45593999997E+02  0.45594000000E+02  0.51100000000E-03 0.  1.
    9900012    2    1    2    0    0 -0.41226610422E+02 -0.13233508165E+02 -0.29774060032E+01  0.47787261622E+02  0.19999957041E+02 0.  0.
         12    1    1    2    0    0  0.41226610422E+02  0.13233508165E+02  0.29774060032E+01  0.43400738378E+02  0.00000000000E+00 0. -1.
         11    1    3    3    0    0 -0.90834501588E+00  0.18937783108E+01  0.18380580212E+01  0.27910472065E+01  0.51100000000E-03 0. -1.
        -11    1    3    3    0    0 -0.23232467811E+02 -0.11262870807E+02 -0.83312884676E+01  0.27129507684E+02  0.51100000000E-03 0.  1.
        -12    1    3    3    0    0 -0.17085797595E+02 -0.38644156692E+01  0.35158244432E+01  0.17866706732E+02  0.00000000000E+00 0.  1.
</event>
<event>
 7    1  0.2751796E-010  0.4778727E+02  0.7816164E-02  0.1312668E+00
        -11   -1    0    0    0    0  0.00000000000E+00  0.00000000000E+00  0.45593999997E+02  0.45594000000E+02  0.51100000000E-03 0. -1.
         11   -1    0    0    0    0 -0.00000000000E+00 -0.00000000000E+00 -0.45593999997E+02  0.45594000000E+02  0.51100000000E-03 0.  1.
    9900012    2    1    2    0    0  0.40779585747E+02 -0.14823686713E+02 -0.95244750148E+00  0.47787268927E+02  0.19999990344E+02 0.  0.
         12    1    1    2    0    0 -0.40779585747E+02  0.14823686713E+02  0.95244750148E+00  0.43400731073E+02  0.00000000000E+00 0. -1.
         11    1    3    3    0    0  0.10664539279E+02 -0.57075780772E+01  0.69276789957E+01  0.13939210238E+02  0.51100000000E-03 0. -1.
        -11    1    3    3    0    0  0.18596949177E+02 -0.11948322961E+01 -0.67627236076E+01  0.19824443845E+02  0.51100000000E-03 0.  1.
         12    1    3    3    0    0  0.11518097291E+02 -0.79212763401E+01 -0.11174028896E+01  0.14023614843E+02  0.00000000000E+00 0. -1.
</event>
<event>
 7    1  0.2751796E-010  0.4778727E+02  0.7816164E-02  0.1312668E+00
        -11   -1    0    0    0    0  0.00000000000E+00  0.00000000000E+00  0.45593999997E+02  0.45594000000E+02  0.51100000000E-03 0.  1.
         11   -1    0    0    0    0 -0.00000000000E+00 -0.00000000000E+00 -0.45593999997E+02  0.45594000000E+02  0.51100000000E-03 0. -1.
    9900012    2    1    2    0    0  0.18079881816E+01  0.87579460203E+01  0.42469437543E+02  0.47787267691E+02  0.19999984708E+02 0.  0.
         12    1    1    2    0    0 -0.18079881816E+01 -0.87579460203E+01 -0.42469437543E+02  0.43400732309E+02  0.00000000000E+00 0. -1.
         11    1    3    3    0    0  0.71209339272E+01  0.33806323767E+01  0.28762348819E+02  0.29822962380E+02  0.51100000000E-03 0. -1.
        -11    1    3    3    0    0 -0.24396734966E+01  0.84030574318E+00  0.12080606959E+02  0.12353104277E+02  0.51100000000E-03 0.  1.
         12    1    3    3    0    0 -0.28732722489E+01  0.45370079005E+01  0.16264817645E+01  0.56112010333E+01  0.00000000000E+00 0. -1.
</event>
<event>
 7    1  0.2751796E-010  0.4778727E+02  0.7816164E-02  0.1312668E+00
        -11   -1    0    0    0    0  0.00000000000E+00  0.00000000000E+00  0.45593999997E+02  0.45594000000E+02  0.51100000000E-03 0.  1.
         11   -1    0    0    0    0 -0.00000000000E+00 -0.00000000000E+00 -0.45593999997E+02  0.45594000000E+02  0.51100000000E-03 0. -1.
    9900012    2    1    2    0    0 -0.14946112951E+01  0.40567491511E+02  0.15351481927E+02  0.47787271575E+02  0.20000002420E+02 0.  0.
         12    1    1    2    0    0  0.14946112951E+01 -0.40567491511E+02 -0.15351481927E+02  0.43400728425E+02  0.00000000000E+00 0. -1.
         11    1    3    3    0    0 -0.43503521119E+01  0.52556627429E+01  0.38957910672E+01  0.78565095727E+01  0.51100000000E-03 0. -1.
        -11    1    3    3    0    0  0.78670964430E+01  0.19004662097E+02  0.98204449565E+01  0.22792751639E+02  0.51100000000E-03 0.  1.
        -12    1    3    3    0    0 -0.50113556263E+01  0.16307166672E+02  0.16352459029E+01  0.17138010364E+02  0.00000000000E+00 0.  1.
</event>
<event>
 7    1  0.2751796E-010  0.4778723E+02  0.7816164E-02  0.1312668E+00
        -11   -1    0    0    0    0  0.00000000000E+00  0.00000000000E+00  0.45593999997E+02  0.45594000000E+02  0.51100000000E-03 0. -1.
         11   -1    0    0    0    0 -0.00000000000E+00 -0.00000000000E+00 -0.45593999997E+02  0.45594000000E+02  0.51100000000E-03 0.  1.
    9900012    2    1    2    0    0  0.36453533106E+01 -0.41172654878E+02 -0.13234441851E+02  0.47787233169E+02  0.19999827309E+02 0.  0.
         12    1    1    2    0    0 -0.36453533106E+01  0.41172654878E+02  0.13234441851E+02  0.43400766831E+02  0.00000000000E+00 0. -1.
         11    1    3    3    0    0 -0.31415107486E+01 -0.19430135736E+02 -0.30338064192E+01  0.19914900104E+02  0.51100000000E-03 0.  1.
        -11    1    3    3    0    0  0.90090477714E+01 -0.19551372798E+02 -0.11598379758E+02  0.24452843051E+02  0.51100000000E-03 0. -1.
         12    1    3    3    0    0 -0.22221837122E+01 -0.21911463436E+01  0.13977443257E+01  0.34194900131E+01  0.00000000000E+00 0. -1.
</event>
<event>
 7    1  0.2751796E-010  0.4778727E+02  0.7816164E-02  0.1312668E+00
        -11   -1    0    0    0    0  0.00000000000E+00  0.00000000000E+00  0.45593999997E+02  0.45594000000E+02  0.51100000000E-03 0.  1.
         11   -1    0    0    0    0 -0.00000000000E+00 -0.00000000000E+00 -0.45593999997E+02  0.45594000000E+02  0.51100000000E-03 0. -1.
    9900012    2    1    2    0    0 -0.12623766704E+02 -0.12374441705E+02  0.39637571644E+02  0.47787269832E+02  0.19999994471E+02 0.  0.
         12    1    1    2    0    0  0.12623766704E+02  0.12374441705E+02 -0.39637571644E+02  0.43400730168E+02  0.00000000000E+00 0. -1.
         11    1    3    3    0    0  0.38920037505E+01 -0.22134226871E+01  0.83582669261E+01  0.94819596843E+01  0.51100000000E-03 0. -1.
        -11    1    3    3    0    0 -0.23939320890E+01 -0.64472962854E+01  0.14591118430E+02  0.16130693647E+02  0.51100000000E-03 0.  1.
         12    1    3    3    0    0 -0.14121838365E+02 -0.37137227324E+01  0.16688186288E+02  0.22174616500E+02  0.00000000000E+00 0. -1.
</event>
<event>
 7    1  0.2751796E-010  0.4778726E+02  0.7816164E-02  0.1312668E+00
        -11   -1    0    0    0    0  0.00000000000E+00  0.00000000000E+00  0.45593999997E+02  0.45594000000E+02  0.51100000000E-03 0.  1.
         11   -1    0    0    0    0 -0.00000000000E+00 -0.00000000000E+00 -0.45593999997E+02  0.45594000000E+02  0.51100000000E-03 0. -1.
    9900012    2    1    2    0    0  0.17366296966E+02  0.36986958927E+02  0.14628778761E+02  0.47787256124E+02  0.19999931969E+02 0.  0.
         12    1    1    2    0    0 -0.17366296966E+02 -0.36986958927E+02 -0.14628778761E+02  0.43400743876E+02  0.00000000000E+00 0. -1.
         11    1    3    3    0    0  0.17132064510E+02  0.20072085119E+02  0.63006182046E+01  0.27131052788E+02  0.51100000000E-03 0. -1.
        -11    1    3    3    0    0  0.26220846275E+01  0.15375179920E+02  0.85843862750E+01  0.17803459589E+02  0.51100000000E-03 0.  1.
         12    1    3    3    0    0 -0.23878521711E+01  0.15396938887E+01 -0.25622571907E+00  0.28527437461E+01  0.00000000000E+00 0. -1.
</event>
<event>
 7    1  0.2751796E-010  0.4778727E+02  0.7816164E-02  0.1312668E+00
        -11   -1    0    0    0    0  0.00000000000E+00  0.00000000000E+00  0.45593999997E+02  0.45594000000E+02  0.51100000000E-03 0. -1.
         11   -1    0    0    0    0 -0.00000000000E+00 -0.00000000000E+00 -0.45593999997E+02  0.45594000000E+02  0.51100000000E-03 0.  1.
    9900012    2    1    2    0    0  0.10149791408E+02 -0.40086417062E+02 -0.13178929494E+02  0.47787270961E+02  0.19999999620E+02 0.  0.
         12    1    1    2    0    0 -0.10149791408E+02  0.40086417062E+02  0.13178929494E+02  0.43400729039E+02  0.00000000000E+00 0. -1.
         11    1    3    3    0    0 -0.29997583203E+01 -0.26116134626E+00 -0.34428692057E+01  0.45738500038E+01  0.51100000000E-03 0. -1.
        -11    1    3    3    0    0  0.12709092400E+02 -0.37547143705E+02 -0.83467296743E+01  0.40508973408E+02  0.51100000000E-03 0.  1.
        -12    1    3    3    0    0  0.44045732836E+00 -0.22781120107E+01 -0.13893306138E+01  0.27044475491E+01  0.00000000000E+00 0.  1.
</event>
<event>
 7    1  0.2751796E-010  0.4778727E+02  0.7816164E-02  0.1312668E+00
        -11   -1    0    0    0    0  0.00000000000E+00  0.00000000000E+00  0.45593999997E+02  0.45594000000E+02  0.51100000000E-03 0.  1.
         11   -1    0    0    0    0 -0.00000000000E+00 -0.00000000000E+00 -0.45593999997E+02  0.45594000000E+02  0.51100000000E-03 0. -1.
    9900012    2    1    2    0    0  0.15444910518E+02 -0.37386189151E+02 -0.15727392860E+02  0.47787270902E+02  0.19999999349E+02 0.  0.
         12    1    1    2    0    0 -0.15444910518E+02  0.37386189151E+02  0.15727392860E+02  0.43400729098E+02  0.00000000000E+00 0. -1.
         11    1    3    3    0    0  0.82692706349E+00 -0.90568013283E+01 -0.63431354359E+00  0.91165680275E+01  0.51100000000E-03 0.  1.
        -11    1    3    3    0    0  0.17986041026E+01 -0.16671067498E+00  0.24935846080E+01  0.30790799966E+01  0.51100000000E-03 0. -1.
        -12    1    3    3    0    0  0.12819379352E+02 -0.28162677147E+02 -0.17586663924E+02  0.35591622877E+02  0.00000000000E+00 0.  1.
</event>
<event>
 7    1  0.2751796E-010  0.4778727E+02  0.7816164E-02  0.1312668E+00
        -11   -1    0    0    0    0  0.00000000000E+00  0.00000000000E+00  0.45593999997E+02  0.45594000000E+02  0.51100000000E-03 0.  1.
         11   -1    0    0    0    0 -0.00000000000E+00 -0.00000000000E+00 -0.45593999997E+02  0.45594000000E+02  0.51100000000E-03 0. -1.
    9900012    2    1    2    0    0  0.31236286957E+02  0.28642923231E+02  0.93541783027E+01  0.47787270446E+02  0.19999997273E+02 0.  0.
         12    1    1    2    0    0 -0.31236286957E+02 -0.28642923231E+02 -0.93541783027E+01  0.43400729554E+02  0.00000000000E+00 0. -1.
         11    1    3    3    0    0  0.10547318445E+02  0.12327197049E+02 -0.91463306443E+00  0.16249377446E+02  0.51100000000E-03 0. -1.
        -11    1    3    3    0    0  0.15922666481E+02  0.38620899010E+01  0.69437141197E+01  0.17795005263E+02  0.51100000000E-03 0.  1.
        -12    1    3    3    0    0  0.47663020309E+01  0.12453636281E+02  0.33250972475E+01  0.13742887737E+02  0.00000000000E+00 0.  1.
</event>
<event>
 7    1  0.2751796E-010  0.4778727E+02  0.7816164E-02  0.1312668E+00
        -11   -1    0    0    0    0  0.00000000000E+00  0.00000000000E+00  0.45593999997E+02  0.45594000000E+02  0.51100000000E-03 0.  1.
         11   -1    0    0    0    0 -0.00000000000E+00 -0.00000000000E+00 -0.45593999997E+02  0.45594000000E+02  0.51100000000E-03 0. -1.
    9900012    2    1    2    0    0  0.37533699279E+02 -0.73248503116E+01  0.20522951080E+02  0.47787268040E+02  0.19999986302E+02 0.  0.
         12    1    1    2    0    0 -0.37533699279E+02  0.73248503116E+01 -0.20522951080E+02  0.43400731960E+02  0.00000000000E+00 0. -1.
         11    1    3    3    0    0  0.24246576494E+02 -0.70528882015E+01  0.18589203969E+02  0.31355991582E+02  0.51100000000E-03 0.  1.
        -11    1    3    3    0    0  0.85105228468E+00  0.23294631518E+00  0.37506526220E+01  0.38530441640E+01  0.51100000000E-03 0. -1.
         12    1    3    3    0    0  0.12436070500E+02 -0.50490842522E+00 -0.18169055111E+01  0.12578232294E+02  0.00000000000E+00 0. -1.
</event>
<event>
 7    1  0.2751796E-010  0.4778727E+02  0.7816164E-02  0.1312668E+00
        -11   -1    0    0    0    0  0.00000000000E+00  0.00000000000E+00  0.45593999997E+02  0.45594000000E+02  0.51100000000E-03 0.  1.
         11   -1    0    0    0    0 -0.00000000000E+00 -0.00000000000E+00 -0.45593999997E+02  0.45594000000E+02  0.51100000000E-03 0. -1.
    9900012    2    1    2    0    0  0.41498773067E+02 -0.20410685680E+01  0.12542299185E+02  0.47787269639E+02  0.19999993593E+02 0.  0.
         12    1    1    2    0    0 -0.41498773067E+02  0.20410685680E+01 -0.12542299185E+02  0.43400730361E+02  0.00000000000E+00 0. -1.
         11    1    3    3    0    0  0.24724798591E+02  0.59138561684E+01  0.70173905666E+01  0.26372962116E+02  0.51100000000E-03 0. -1.
        -11    1    3    3    0    0  0.15355728966E+02 -0.33121545474E+01  0.31988999743E+01  0.16031273846E+02  0.51100000000E-03 0.  1.
         12    1    3    3    0    0  0.14182455103E+01 -0.46427701889E+01  0.23260086445E+01  0.53830336771E+01  0.00000000000E+00 0. -1.
</event>
<event>
 7    1  0.2751796E-010  0.4778727E+02  0.7816164E-02  0.1312668E+00
        -11   -1    0    0    0    0  0.00000000000E+00  0.00000000000E+00  0.45593999997E+02  0.45594000000E+02  0.51100000000E-03 0.  1.
         11   -1    0    0    0    0 -0.00000000000E+00 -0.00000000000E+00 -0.45593999997E+02  0.45594000000E+02  0.51100000000E-03 0. -1.
    9900012    2    1    2    0    0  0.14667716901E+02  0.38449355898E+02  0.13788700495E+02  0.47787272478E+02  0.20000006538E+02 0.  0.
         12    1    1    2    0    0 -0.14667716901E+02 -0.38449355898E+02 -0.13788700495E+02  0.43400727522E+02  0.00000000000E+00 0. -1.
         11    1    3    3    0    0  0.37686714034E+01  0.35049415401E+01 -0.22279634539E+01  0.56081477120E+01  0.51100000000E-03 0. -1.
        -11    1    3    3    0    0  0.57669033780E+00  0.21103000684E+02  0.12576625958E+02  0.24573170946E+02  0.51100000000E-03 0.  1.
        -12    1    3    3    0    0  0.10322355160E+02  0.13841413674E+02  0.34400379915E+01  0.17605953820E+02  0.00000000000E+00 0.  1.
</event>
<event>
 7    1  0.2751796E-010  0.4778727E+02  0.7816164E-02  0.1312668E+00
        -11   -1    0    0    0    0  0.00000000000E+00  0.00000000000E+00  0.45593999997E+02  0.45594000000E+02  0.51100000000E-03 0.  1.
         11   -1    0    0    0    0 -0.00000000000E+00 -0.00000000000E+00 -0.45593999997E+02  0.45594000000E+02  0.51100000000E-03 0. -1.
    9900012    2    1    2    0    0  0.25939323796E+02  0.14757553414E+02  0.31511734300E+02  0.47787270740E+02  0.19999998610E+02 0.  0.
         12    1    1    2    0    0 -0.25939323796E+02 -0.14757553414E+02 -0.31511734300E+02  0.43400729260E+02  0.00000000000E+00 0. -1.
         11    1    3    3    0    0 -0.86702224795E+00  0.38638014971E+01  0.29829958357E+01  0.49577166119E+01  0.51100000000E-03 0. -1.
        -11    1    3    3    0    0  0.20696877502E+02  0.16480149184E+01  0.20192169906E+02  0.28962051331E+02  0.51100000000E-03 0.  1.
         12    1    3    3    0    0  0.61094685419E+01  0.92457369981E+01  0.83365685577E+01  0.13867502797E+02  0.00000000000E+00 0. -1.
</event>
<event>
 7    1  0.2751796E-010  0.4778729E+02  0.7816164E-02  0.1312668E+00
        -11   -1    0    0    0    0  0.00000000000E+00  0.00000000000E+00  0.45593999997E+02  0.45594000000E+02  0.51100000000E-03 0. -1.
         11   -1    0    0    0    0 -0.00000000000E+00 -0.00000000000E+00 -0.45593999997E+02  0.45594000000E+02  0.51100000000E-03 0.  1.
    9900012    2    1    2    0    0  0.27417733272E+02  0.33200992627E+02 -0.54391175051E+01  0.47787285623E+02  0.20000066470E+02 0.  0.
         12    1    1    2    0    0 -0.27417733272E+02 -0.33200992627E+02  0.54391175051E+01  0.43400714377E+02  0.00000000000E+00 0. -1.
         11    1    3    3    0    0  0.43896587086E+01  0.13355833905E+02 -0.52867358894E-02  0.14058713706E+02  0.51100000000E-03 0. -1.
        -11    1    3    3    0    0  0.82893981498E+01  0.17252882270E+01 -0.59785565958E+01  0.10365031615E+02  0.51100000000E-03 0.  1.
        -12    1    3    3    0    0  0.14738676413E+02  0.18119870496E+02  0.54472582660E+00  0.23363540302E+02  0.00000000000E+00 0.  1.
</event>
<event>
 7    1  0.2751796E-010  0.4778727E+02  0.7816164E-02  0.1312668E+00
        -11   -1    0    0    0    0  0.00000000000E+00  0.00000000000E+00  0.45593999997E+02  0.45594000000E+02  0.51100000000E-03 0.  1.
         11   -1    0    0    0    0 -0.00000000000E+00 -0.00000000000E+00 -0.45593999997E+02  0.45594000000E+02  0.51100000000E-03 0. -1.
    9900012    2    1    2    0    0 -0.34363970400E+02  0.15032614039E+02  0.21834863628E+02  0.47787271710E+02  0.20000003033E+02 0.  0.
         12    1    1    2    0    0  0.34363970400E+02 -0.15032614039E+02 -0.21834863628E+02  0.43400728290E+02  0.00000000000E+00 0. -1.
         11    1    3    3    0    0 -0.32678762448E+02  0.11144492504E+02  0.15874231831E+02  0.38001216623E+02  0.51100000000E-03 0. -1.
        -11    1    3    3    0    0 -0.25194955721E+01  0.31045059687E+01  0.71143642431E+01  0.81608819433E+01  0.51100000000E-03 0.  1.
         12    1    3    3    0    0  0.83428762064E+00  0.78361556604E+00 -0.11537324461E+01  0.16251731435E+01  0.00000000000E+00 0. -1.
</event>
<event>
 7    1  0.2751796E-010  0.4778728E+02  0.7816164E-02  0.1312668E+00
        -11   -1    0    0    0    0  0.00000000000E+00  0.00000000000E+00  0.45593999997E+02  0.45594000000E+02  0.51100000000E-03 0. -1.
         11   -1    0    0    0    0 -0.00000000000E+00 -0.00000000000E+00 -0.45593999997E+02  0.45594000000E+02  0.51100000000E-03 0.  1.
    9900012    2    1    2    0    0 -0.41146974505E+02  0.25039528796E+01 -0.13574962750E+02  0.47787275299E+02  0.20000019399E+02 0.  0.
         12    1    1    2    0    0  0.41146974505E+02 -0.25039528796E+01  0.13574962750E+02  0.43400724701E+02  0.00000000000E+00 0. -1.
         11    1    3    3    0    0 -0.29063853264E+02  0.61139744138E+00 -0.95849706319E+01  0.30609688591E+02  0.51100000000E-03 0. -1.
        -11    1    3    3    0    0 -0.13260517515E+02  0.41315122850E+01 -0.44940553665E+01  0.14598193464E+02  0.51100000000E-03 0.  1.
         12    1    3    3    0    0  0.11773962739E+01 -0.22389568468E+01  0.50406324841E+00  0.25793932438E+01  0.00000000000E+00 0. -1.
</event>
<event>
 7    1  0.2751796E-010  0.4778727E+02  0.7816164E-02  0.1312668E+00
        -11   -1    0    0    0    0  0.00000000000E+00  0.00000000000E+00  0.45593999997E+02  0.45594000000E+02  0.51100000000E-03 0.  1.
         11   -1    0    0    0    0 -0.00000000000E+00 -0.00000000000E+00 -0.45593999997E+02  0.45594000000E+02  0.51100000000E-03 0. -1.
    9900012    2    1    2    0    0 -0.27644899862E+02  0.21794553152E+02  0.25384645603E+02  0.47787271114E+02  0.20000000317E+02 0.  0.
         12    1    1    2    0    0  0.27644899862E+02 -0.21794553152E+02 -0.25384645603E+02  0.43400728886E+02  0.00000000000E+00 0. -1.
         11    1    3    3    0    0 -0.12412567008E+02  0.15860473268E+02  0.13990478708E+02  0.24522641104E+02  0.51100000000E-03 0. -1.
        -11    1    3    3    0    0 -0.11838404821E+01  0.52262071634E+00 -0.24764730378E+01  0.27941957105E+01  0.51100000000E-03 0.  1.
        -12    1    3    3    0    0 -0.14048492372E+02  0.54114591677E+01  0.13870639933E+02  0.20470434299E+02  0.00000000000E+00 0.  1.
</event>
<event>
 7    1  0.2751796E-010  0.4778727E+02  0.7816164E-02  0.1312668E+00
        -11   -1    0    0    0    0  0.00000000000E+00  0.00000000000E+00  0.45593999997E+02  0.45594000000E+02  0.51100000000E-03 0.  1.
         11   -1    0    0    0    0 -0.00000000000E+00 -0.00000000000E+00 -0.45593999997E+02  0.45594000000E+02  0.51100000000E-03 0. -1.
    9900012    2    1    2    0    0  0.36353072769E+01 -0.25227957029E+02  0.35127738407E+02  0.47787270969E+02  0.19999999655E+02 0.  0.
         12    1    1    2    0    0 -0.36353072769E+01  0.25227957029E+02 -0.35127738407E+02  0.43400729031E+02  0.00000000000E+00 0. -1.
         11    1    3    3    0    0 -0.37190941285E+01 -0.23101206104E+01  0.17069501958E+02  0.17622037786E+02  0.51100000000E-03 0. -1.
        -11    1    3    3    0    0  0.49422929408E+01 -0.18108935551E+02  0.14420003353E+02  0.23670578854E+02  0.51100000000E-03 0.  1.
         12    1    3    3    0    0  0.24121084646E+01 -0.48089008667E+01  0.36382330960E+01  0.64946543289E+01  0.00000000000E+00 0. -1.
</event>
<event>
 7    1  0.2751796E-010  0.4778727E+02  0.7816164E-02  0.1312668E+00
        -11   -1    0    0    0    0  0.00000000000E+00  0.00000000000E+00  0.45593999997E+02  0.45594000000E+02  0.51100000000E-03 0.  1.
         11   -1    0    0    0    0 -0.00000000000E+00 -0.00000000000E+00 -0.45593999997E+02  0.45594000000E+02  0.51100000000E-03 0. -1.
    9900012    2    1    2    0    0 -0.11117540783E+02 -0.35772151229E+02  0.21917502759E+02  0.47787269087E+02  0.19999991076E+02 0.  0.
         12    1    1    2    0    0  0.11117540783E+02  0.35772151229E+02 -0.21917502759E+02  0.43400730913E+02  0.00000000000E+00 0. -1.
         11    1    3    3    0    0  0.14806709975E+01 -0.22263386447E+01  0.30648365500E+01  0.40672095721E+01  0.51100000000E-03 0. -1.
        -11    1    3    3    0    0 -0.54925772150E+01 -0.25957346134E+02  0.20049347941E+02  0.33255504445E+02  0.51100000000E-03 0.  1.
        -12    1    3    3    0    0 -0.71056345653E+01 -0.75884664500E+01 -0.11966817322E+01  0.10464555070E+02  0.00000000000E+00 0.  1.
</event>
<event>
 7    1  0.2751796E-010  0.4778729E+02  0.7816164E-02  0.1312668E+00
        -11   -1    0    0    0    0  0.00000000000E+00  0.00000000000E+00  0.45593999997E+02  0.45594000000E+02  0.51100000000E-03 0.  1.
         11   -1    0    0    0    0 -0.00000000000E+00 -0.00000000000E+00 -0.45593999997E+02  0.45594000000E+02  0.51100000000E-03 0. -1.
    9900012    2    1    2    0    0  0.16810972762E+02  0.31163302509E+02  0.25097040682E+02  0.47787289413E+02  0.20000083749E+02 0.  0.
         12    1    1    2    0    0 -0.16810972762E+02 -0.31163302509E+02 -0.25097040682E+02  0.43400710587E+02  0.00000000000E+00 0. -1.
         11    1    3    3    0    0 -0.29093302661E+01  0.71739703379E+01  0.22341269954E+01  0.80573802628E+01  0.51100000000E-03 0. -1.
        -11    1    3    3    0    0  0.16417327253E+02  0.15823508126E+02  0.12071368562E+02  0.25799805867E+02  0.51100000000E-03 0.  1.
        -12    1    3    3    0    0  0.33029757750E+01  0.81658240447E+01  0.10791545125E+02  0.13930103283E+02  0.00000000000E+00 0.  1.
</event>
<event>
 7    1  0.2751796E-010  0.4778727E+02  0.7816164E-02  0.1312668E+00
        -11   -1    0    0    0    0  0.00000000000E+00  0.00000000000E+00  0.45593999997E+02  0.45594000000E+02  0.51100000000E-03 0.  1.
         11   -1    0    0    0    0 -0.00000000000E+00 -0.00000000000E+00 -0.45593999997E+02  0.45594000000E+02  0.51100000000E-03 0. -1.
    9900012    2    1    2    0    0  0.15756121341E+02 -0.34376377733E+02  0.21298649917E+02  0.47787271964E+02  0.20000004193E+02 0.  0.
         12    1    1    2    0    0 -0.15756121341E+02  0.34376377733E+02 -0.21298649917E+02  0.43400728036E+02  0.00000000000E+00 0. -1.
         11    1    3    3    0    0  0.12978179045E+02 -0.21695427279E+02  0.20050856785E+02  0.32267035101E+02  0.51100000000E-03 0. -1.
        -11    1    3    3    0    0 -0.18374692959E+01 -0.20865718699E+01  0.26971961709E+01  0.38736214357E+01  0.51100000000E-03 0.  1.
         12    1    3    3    0    0  0.46154115925E+01 -0.10594378584E+02 -0.14494030389E+01  0.11646615427E+02  0.00000000000E+00 0. -1.
</event>
<event>
 7    1  0.2751796E-010  0.4778727E+02  0.7816164E-02  0.1312668E+00
        -11   -1    0    0    0    0  0.00000000000E+00  0.00000000000E+00  0.45593999997E+02  0.45594000000E+02  0.51100000000E-03 0.  1.
         11   -1    0    0    0    0 -0.00000000000E+00 -0.00000000000E+00 -0.45593999997E+02  0.45594000000E+02  0.51100000000E-03 0. -1.
    9900012    2    1    2    0    0 -0.19495546075E+02  0.14633909208E+02  0.35908154082E+02  0.47787272528E+02  0.20000006765E+02 0.  0.
         12    1    1    2    0    0  0.19495546075E+02 -0.14633909208E+02 -0.35908154082E+02  0.43400727472E+02  0.00000000000E+00 0. -1.
         11    1    3    3    0    0  0.25920684977E+01  0.53319962678E+01  0.36911267053E+01  0.69837969553E+01  0.51100000000E-03 0. -1.
        -11    1    3    3    0    0 -0.14681986167E+02  0.37986056576E+01  0.24309001809E+02  0.28651661243E+02  0.51100000000E-03 0.  1.
        -12    1    3    3    0    0 -0.74056284060E+01  0.55033072830E+01  0.79080255676E+01  0.12151814330E+02  0.00000000000E+00 0.  1.
</event>
<event>
 7    1  0.2751796E-010  0.4778728E+02  0.7816164E-02  0.1312668E+00
        -11   -1    0    0    0    0  0.00000000000E+00  0.00000000000E+00  0.45593999997E+02  0.45594000000E+02  0.51100000000E-03 0. -1.
         11   -1    0    0    0    0 -0.00000000000E+00 -0.00000000000E+00 -0.45593999997E+02  0.45594000000E+02  0.51100000000E-03 0.  1.
    9900012    2    1    2    0    0 -0.26620343124E+02 -0.33769200115E+02 -0.58839769261E+01  0.47787277323E+02  0.20000028628E+02 0.  0.
         12    1    1    2    0    0  0.26620343124E+02  0.33769200115E+02  0.58839769261E+01  0.43400722677E+02  0.00000000000E+00 0. -1.
         11    1    3    3    0    0  0.53871065880E+00 -0.30066142346E+01  0.23430513172E+01  0.38496529799E+01  0.51100000000E-03 0. -1.
        -11    1    3    3    0    0 -0.21630409521E+02 -0.14758360784E+02 -0.59488963939E+01  0.26852806141E+02  0.51100000000E-03 0.  1.
        -12    1    3    3    0    0 -0.55286442616E+01 -0.16004225096E+02 -0.22781318494E+01  0.17084818202E+02  0.00000000000E+00 0.  1.
</event>
<event>
 7    1  0.2751796E-010  0.4778727E+02  0.7816164E-02  0.1312668E+00
        -11   -1    0    0    0    0  0.00000000000E+00  0.00000000000E+00  0.45593999997E+02  0.45594000000E+02  0.51100000000E-03 0.  1.
         11   -1    0    0    0    0 -0.00000000000E+00 -0.00000000000E+00 -0.45593999997E+02  0.45594000000E+02  0.51100000000E-03 0. -1.
    9900012    2    1    2    0    0  0.15939558665E+02 -0.39769820338E+02  0.69220960608E+01  0.47787267817E+02  0.19999985285E+02 0.  0.
         12    1    1    2    0    0 -0.15939558665E+02  0.39769820338E+02 -0.69220960608E+01  0.43400732183E+02  0.00000000000E+00 0. -1.
         11    1    3    3    0    0 -0.16676450408E+00 -0.14967554598E+00 -0.15928028195E+01  0.16084881883E+01  0.51100000000E-03 0. -1.
        -11    1    3    3    0    0 -0.70920009618E-01 -0.17428821357E+02  0.66467679353E+01  0.18653374166E+02  0.51100000000E-03 0.  1.
        -12    1    3    3    0    0  0.16177243179E+02 -0.22191323435E+02  0.18681309450E+01  0.27525405463E+02  0.00000000000E+00 0.  1.
</event>
<event>
 7    1  0.2751796E-010  0.4778727E+02  0.7816164E-02  0.1312668E+00
        -11   -1    0    0    0    0  0.00000000000E+00  0.00000000000E+00  0.45593999997E+02  0.45594000000E+02  0.51100000000E-03 0.  1.
         11   -1    0    0    0    0 -0.00000000000E+00 -0.00000000000E+00 -0.45593999997E+02  0.45594000000E+02  0.51100000000E-03 0. -1.
    9900012    2    1    2    0    0 -0.42075546742E+02  0.27359024761E+01  0.10285258746E+02  0.47787270243E+02  0.19999996346E+02 0.  0.
         12    1    1    2    0    0  0.42075546742E+02 -0.27359024761E+01 -0.10285258746E+02  0.43400729757E+02  0.00000000000E+00 0. -1.
         11    1    3    3    0    0 -0.25740472061E+02 -0.56433591066E+01  0.39995028685E+01  0.26653619405E+02  0.51100000000E-03 0. -1.
        -11    1    3    3    0    0 -0.99012811804E+01  0.93659970317E+01  0.36359660220E+01  0.14105939125E+02  0.51100000000E-03 0.  1.
        -12    1    3    3    0    0 -0.64337934999E+01 -0.98673544896E+00  0.26497898558E+01  0.70277117133E+01  0.00000000000E+00 0.  1.
</event>
<event>
 7    1  0.2751796E-010  0.4778727E+02  0.7816164E-02  0.1312668E+00
        -11   -1    0    0    0    0  0.00000000000E+00  0.00000000000E+00  0.45593999997E+02  0.45594000000E+02  0.51100000000E-03 0.  1.
         11   -1    0    0    0    0 -0.00000000000E+00 -0.00000000000E+00 -0.45593999997E+02  0.45594000000E+02  0.51100000000E-03 0. -1.
    9900012    2    1    2    0    0 -0.27666253951E+02 -0.31720337909E+02  0.10584035265E+02  0.47787271352E+02  0.20000001402E+02 0.  0.
         12    1    1    2    0    0  0.27666253951E+02  0.31720337909E+02 -0.10584035265E+02  0.43400728648E+02  0.00000000000E+00 0. -1.
         11    1    3    3    0    0  0.10440378951E+01 -0.17040512644E+00 -0.14975509472E+01  0.18334972414E+01  0.51100000000E-03 0. -1.
        -11    1    3    3    0    0 -0.17769013053E+02 -0.21398268972E+02  0.13582067504E+02  0.30953130662E+02  0.51100000000E-03 0.  1.
        -12    1    3    3    0    0 -0.10941278793E+02 -0.10151663811E+02 -0.15004812921E+01  0.15000643448E+02  0.00000000000E+00 0.  1.
</event>
<event>
 7    1  0.2751796E-010  0.4778727E+02  0.7816164E-02  0.1312668E+00
        -11   -1    0    0    0    0  0.00000000000E+00  0.00000000000E+00  0.45593999997E+02  0.45594000000E+02  0.51100000000E-03 0.  1.
         11   -1    0    0    0    0 -0.00000000000E+00 -0.00000000000E+00 -0.45593999997E+02  0.45594000000E+02  0.51100000000E-03 0. -1.
    9900012    2    1    2    0    0  0.39397200960E+01  0.11318407817E+01  0.43206723883E+02  0.47787269053E+02  0.19999990922E+02 0.  0.
         12    1    1    2    0    0 -0.39397200960E+01 -0.11318407817E+01 -0.43206723883E+02  0.43400730947E+02  0.00000000000E+00 0. -1.
         11    1    3    3    0    0 -0.40725031956E+01 -0.46873569818E+01  0.10976135407E+02  0.12610794840E+02  0.51100000000E-03 0. -1.
        -11    1    3    3    0    0  0.78812499684E+01  0.57225105170E+01  0.14632179166E+02  0.17577311942E+02  0.51100000000E-03 0.  1.
         12    1    3    3    0    0  0.13097332313E+00  0.96687246540E-01  0.17598409310E+02  0.17599162272E+02  0.00000000000E+00 0. -1.
</event>
<event>
 7    1  0.2751796E-010  0.4778727E+02  0.7816164E-02  0.1312668E+00
        -11   -1    0    0    0    0  0.00000000000E+00  0.00000000000E+00  0.45593999997E+02  0.45594000000E+02  0.51100000000E-03 0.  1.
         11   -1    0    0    0    0 -0.00000000000E+00 -0.00000000000E+00 -0.45593999997E+02  0.45594000000E+02  0.51100000000E-03 0. -1.
    9900012    2    1    2    0    0 -0.18680338962E+02 -0.84502089915E+01  0.38252606438E+02  0.47787274257E+02  0.20000014648E+02 0.  0.
         12    1    1    2    0    0  0.18680338962E+02  0.84502089915E+01 -0.38252606438E+02  0.43400725743E+02  0.00000000000E+00 0. -1.
         11    1    3    3    0    0 -0.10333614351E+01 -0.84924059697E+01  0.17694795685E+02  0.19654378382E+02  0.51100000000E-03 0. -1.
        -11    1    3    3    0    0 -0.70130274831E+01 -0.25236253743E+01  0.12473639162E+02  0.14530757507E+02  0.51100000000E-03 0.  1.
         12    1    3    3    0    0 -0.10633950044E+02  0.25658223524E+01  0.80841715906E+01  0.13602138368E+02  0.00000000000E+00 0. -1.
</event>
<event>
 7    1  0.2751796E-010  0.4778727E+02  0.7816164E-02  0.1312668E+00
        -11   -1    0    0    0    0  0.00000000000E+00  0.00000000000E+00  0.45593999997E+02  0.45594000000E+02  0.51100000000E-03 0. -1.
         11   -1    0    0    0    0 -0.00000000000E+00 -0.00000000000E+00 -0.45593999997E+02  0.45594000000E+02  0.51100000000E-03 0.  1.
    9900012    2    1    2    0    0  0.35699180968E+02  0.21844107353E+02 -0.11490283233E+02  0.47787272395E+02  0.20000006158E+02 0.  0.
         12    1    1    2    0    0 -0.35699180968E+02 -0.21844107353E+02  0.11490283233E+02  0.43400727605E+02  0.00000000000E+00 0. -1.
         11    1    3    3    0    0  0.12851907642E+02 -0.65912972305E+00 -0.22130281444E+01  0.13057697954E+02  0.51100000000E-03 0. -1.
        -11    1    3    3    0    0  0.20519296798E+02  0.19933119227E+02 -0.47057065409E+01  0.28991627369E+02  0.51100000000E-03 0.  1.
        -12    1    3    3    0    0  0.23279765284E+01  0.25701178494E+01 -0.45715485474E+01  0.57379470717E+01  0.00000000000E+00 0.  1.
</event>
<event>
 7    1  0.2751796E-010  0.4778727E+02  0.7816164E-02  0.1312668E+00
        -11   -1    0    0    0    0  0.00000000000E+00  0.00000000000E+00  0.45593999997E+02  0.45594000000E+02  0.51100000000E-03 0. -1.
         11   -1    0    0    0    0 -0.00000000000E+00 -0.00000000000E+00 -0.45593999997E+02  0.45594000000E+02  0.51100000000E-03 0.  1.
    9900012    2    1    2    0    0  0.50720631385E+01 -0.40665368714E+02 -0.14290746839E+02  0.47787268643E+02  0.19999989051E+02 0.  0.
         12    1    1    2    0    0 -0.50720631385E+01  0.40665368714E+02  0.14290746839E+02  0.43400731357E+02  0.00000000000E+00 0. -1.
         11    1    3    3    0    0  0.85967681843E+01 -0.11022223702E+02 -0.20421159008E+01  0.14126714981E+02  0.51100000000E-03 0.  1.
        -11    1    3    3    0    0 -0.17012421706E+01 -0.11665483211E+02 -0.99854122474E+01  0.15449471884E+02  0.51100000000E-03 0. -1.
         12    1    3    3    0    0 -0.18234628752E+01 -0.17977661801E+02 -0.22632186906E+01  0.18211081778E+02  0.00000000000E+00 0. -1.
</event>
<event>
 7    1  0.2751796E-010  0.4778726E+02  0.7816164E-02  0.1312668E+00
        -11   -1    0    0    0    0  0.00000000000E+00  0.00000000000E+00  0.45593999997E+02  0.45594000000E+02  0.51100000000E-03 0.  1.
         11   -1    0    0    0    0 -0.00000000000E+00 -0.00000000000E+00 -0.45593999997E+02  0.45594000000E+02  0.51100000000E-03 0. -1.
    9900012    2    1    2    0    0 -0.34629087647E+02 -0.12772015415E+02  0.22832561122E+02  0.47787263412E+02  0.19999965201E+02 0.  0.
         12    1    1    2    0    0  0.34629087647E+02  0.12772015415E+02 -0.22832561122E+02  0.43400736588E+02  0.00000000000E+00 0. -1.
         11    1    3    3    0    0 -0.96069970709E+01 -0.71228366881E-02  0.10116040071E+02  0.13950939411E+02  0.51100000000E-03 0. -1.
        -11    1    3    3    0    0 -0.21293874846E+02 -0.15479047197E+02  0.12690714556E+02  0.29224719747E+02  0.51100000000E-03 0.  1.
        -12    1    3    3    0    0 -0.37282157296E+01  0.27141546192E+01  0.25806494494E-01  0.46116042543E+01  0.00000000000E+00 0.  1.
</event>
<event>
 7    1  0.2751796E-010  0.4778727E+02  0.7816164E-02  0.1312668E+00
        -11   -1    0    0    0    0  0.00000000000E+00  0.00000000000E+00  0.45593999997E+02  0.45594000000E+02  0.51100000000E-03 0.  1.
         11   -1    0    0    0    0 -0.00000000000E+00 -0.00000000000E+00 -0.45593999997E+02  0.45594000000E+02  0.51100000000E-03 0. -1.
    9900012    2    1    2    0    0  0.34356610934E+02  0.11374240164E+02 -0.23955655688E+02  0.47787268513E+02  0.19999988460E+02 0.  0.
         12    1    1    2    0    0 -0.34356610934E+02 -0.11374240164E+02  0.23955655688E+02  0.43400731487E+02  0.00000000000E+00 0. -1.
         11    1    3    3    0    0  0.76057163944E+01 -0.15641893078E+01 -0.14062084269E+02  0.16063493528E+02  0.51100000000E-03 0. -1.
        -11    1    3    3    0    0  0.15054576239E+02  0.88125684370E+01 -0.35847894734E+01  0.17808771547E+02  0.51100000000E-03 0.  1.
         12    1    3    3    0    0  0.11696318300E+02  0.41258610345E+01 -0.63087819447E+01  0.13915003438E+02  0.00000000000E+00 0. -1.
</event>
<event>
 7    1  0.2751796E-010  0.4778727E+02  0.7816164E-02  0.1312668E+00
        -11   -1    0    0    0    0  0.00000000000E+00  0.00000000000E+00  0.45593999997E+02  0.45594000000E+02  0.51100000000E-03 0.  1.
         11   -1    0    0    0    0 -0.00000000000E+00 -0.00000000000E+00 -0.45593999997E+02  0.45594000000E+02  0.51100000000E-03 0. -1.
    9900012    2    1    2    0    0 -0.16029179132E+02 -0.31077463782E+02  0.25707583502E+02  0.47787272031E+02  0.20000004496E+02 0.  0.
         12    1    1    2    0    0  0.16029179132E+02  0.31077463782E+02 -0.25707583502E+02  0.43400727969E+02  0.00000000000E+00 0. -1.
         11    1    3    3    0    0  0.12983156953E+01  0.68567116245E+00  0.15684737348E+01  0.21484596123E+01  0.51100000000E-03 0. -1.
        -11    1    3    3    0    0 -0.17158661262E+02 -0.17786744973E+02  0.16419535577E+02  0.29671351534E+02  0.51100000000E-03 0.  1.
        -12    1    3    3    0    0 -0.16883356480E+00 -0.13976389971E+02  0.77195741905E+01  0.15967460884E+02  0.00000000000E+00 0.  1.
</event>
<event>
 7    1  0.2751796E-010  0.4778728E+02  0.7816164E-02  0.1312668E+00
        -11   -1    0    0    0    0  0.00000000000E+00  0.00000000000E+00  0.45593999997E+02  0.45594000000E+02  0.51100000000E-03 0.  1.
         11   -1    0    0    0    0 -0.00000000000E+00 -0.00000000000E+00 -0.45593999997E+02  0.45594000000E+02  0.51100000000E-03 0. -1.
    9900012    2    1    2    0    0 -0.33611826693E+02 -0.23131651713E+02  0.14791708655E+02  0.47787275933E+02  0.20000022290E+02 0.  0.
         12    1    1    2    0    0  0.33611826693E+02  0.23131651713E+02 -0.14791708655E+02  0.43400724067E+02  0.00000000000E+00 0. -1.
         11    1    3    3    0    0 -0.84298024785E+01 -0.67523950666E+00  0.81934831115E+00  0.84964021876E+01  0.51100000000E-03 0. -1.
        -11    1    3    3    0    0 -0.84602845740E+01 -0.14044008909E+02  0.12302706563E+02  0.20497980153E+02  0.51100000000E-03 0.  1.
        -12    1    3    3    0    0 -0.16721739640E+02 -0.84124032964E+01  0.16696537808E+01  0.18792893592E+02  0.00000000000E+00 0.  1.
</event>
<event>
 7    1  0.2751796E-010  0.4778724E+02  0.7816164E-02  0.1312668E+00
        -11   -1    0    0    0    0  0.00000000000E+00  0.00000000000E+00  0.45593999997E+02  0.45594000000E+02  0.51100000000E-03 0. -1.
         11   -1    0    0    0    0 -0.00000000000E+00 -0.00000000000E+00 -0.45593999997E+02  0.45594000000E+02  0.51100000000E-03 0.  1.
    9900012    2    1    2    0    0  0.21520797738E+02 -0.33347476705E+02 -0.17562079150E+02  0.47787244685E+02  0.19999879816E+02 0.  0.
         12    1    1    2    0    0 -0.21520797738E+02  0.33347476705E+02  0.17562079150E+02  0.43400755315E+02  0.00000000000E+00 0. -1.
         11    1    3    3    0    0  0.27339536007E+01 -0.10005766750E+02 -0.27138713900E+01  0.10721705496E+02  0.51100000000E-03 0. -1.
        -11    1    3    3    0    0  0.60155951319E+01 -0.17919978487E+02 -0.13283088568E+02  0.23103104898E+02  0.51100000000E-03 0.  1.
        -12    1    3    3    0    0  0.12771249005E+02 -0.54217314675E+01 -0.15651191923E+01  0.13962434292E+02  0.00000000000E+00 0.  1.
</event>
<event>
 7    1  0.2751796E-010  0.4778727E+02  0.7816164E-02  0.1312668E+00
        -11   -1    0    0    0    0  0.00000000000E+00  0.00000000000E+00  0.45593999997E+02  0.45594000000E+02  0.51100000000E-03 0.  1.
         11   -1    0    0    0    0 -0.00000000000E+00 -0.00000000000E+00 -0.45593999997E+02  0.45594000000E+02  0.51100000000E-03 0. -1.
    9900012    2    1    2    0    0  0.41656040110E+02  0.12091308215E+02 -0.14825220594E+01  0.47787270931E+02  0.19999999484E+02 0.  0.
         12    1    1    2    0    0 -0.41656040110E+02 -0.12091308215E+02  0.14825220594E+01  0.43400729069E+02  0.00000000000E+00 0. -1.
         11    1    3    3    0    0  0.13310816100E+00 -0.28491213971E+01 -0.21822275326E+00  0.28605649703E+01  0.51100000000E-03 0. -1.
        -11    1    3    3    0    0  0.22017898745E+01  0.31725740125E+01 -0.25103497406E+00  0.38698996545E+01  0.51100000000E-03 0.  1.
         12    1    3    3    0    0  0.39321142075E+02  0.11767855600E+02 -0.10132643321E+01  0.41056806307E+02  0.00000000000E+00 0. -1.
</event>
<event>
 7    1  0.2751796E-010  0.4778727E+02  0.7816164E-02  0.1312668E+00
        -11   -1    0    0    0    0  0.00000000000E+00  0.00000000000E+00  0.45593999997E+02  0.45594000000E+02  0.51100000000E-03 0. -1.
         11   -1    0    0    0    0 -0.00000000000E+00 -0.00000000000E+00 -0.45593999997E+02  0.45594000000E+02  0.51100000000E-03 0.  1.
    9900012    2    1    2    0    0  0.29225492410E+02 -0.82012730147E+01 -0.31019877040E+02  0.47787273540E+02  0.20000011378E+02 0.  0.
         12    1    1    2    0    0 -0.29225492410E+02  0.82012730147E+01  0.31019877040E+02  0.43400726460E+02  0.00000000000E+00 0. -1.
         11    1    3    3    0    0  0.64056471399E+01 -0.58283562380E+01 -0.20939687728E+02  0.22659933233E+02  0.51100000000E-03 0. -1.
        -11    1    3    3    0    0  0.10474544608E+02 -0.57062767072E+00 -0.54353080249E+01  0.11814578887E+02  0.51100000000E-03 0.  1.
         12    1    3    3    0    0  0.12345300662E+02 -0.18022891060E+01 -0.46448812871E+01  0.13312761420E+02  0.00000000000E+00 0. -1.
</event>
<event>
 7    1  0.2751796E-010  0.4778727E+02  0.7816164E-02  0.1312668E+00
        -11   -1    0    0    0    0  0.00000000000E+00  0.00000000000E+00  0.45593999997E+02  0.45594000000E+02  0.51100000000E-03 0.  1.
         11   -1    0    0    0    0 -0.00000000000E+00 -0.00000000000E+00 -0.45593999997E+02  0.45594000000E+02  0.51100000000E-03 0. -1.
    9900012    2    1    2    0    0  0.27607529304E+02  0.33295468332E+02 -0.35860425245E+01  0.47787267441E+02  0.19999983568E+02 0.  0.
         12    1    1    2    0    0 -0.27607529304E+02 -0.33295468332E+02  0.35860425245E+01  0.43400732559E+02  0.00000000000E+00 0. -1.
         11    1    3    3    0    0 -0.11192975490E+01  0.58719281393E+01 -0.83133833281E+00  0.60351877155E+01  0.51100000000E-03 0. -1.
        -11    1    3    3    0    0  0.15677393935E+02  0.64882572561E+01 -0.18313005155E+01  0.17065515657E+02  0.51100000000E-03 0.  1.
        -12    1    3    3    0    0  0.13049432918E+02  0.20935282937E+02 -0.92340367619E+00  0.24686564068E+02  0.00000000000E+00 0.  1.
</event>
<event>
 7    1  0.2751796E-010  0.4778727E+02  0.7816164E-02  0.1312668E+00
        -11   -1    0    0    0    0  0.00000000000E+00  0.00000000000E+00  0.45593999997E+02  0.45594000000E+02  0.51100000000E-03 0.  1.
         11   -1    0    0    0    0 -0.00000000000E+00 -0.00000000000E+00 -0.45593999997E+02  0.45594000000E+02  0.51100000000E-03 0. -1.
    9900012    2    1    2    0    0  0.23857642349E+02  0.25859968424E+02  0.25410596333E+02  0.47787268770E+02  0.19999989629E+02 0.  0.
         12    1    1    2    0    0 -0.23857642349E+02 -0.25859968424E+02 -0.25410596333E+02  0.43400731230E+02  0.00000000000E+00 0. -1.
         11    1    3    3    0    0  0.12149066053E+01  0.36522039954E+01  0.99845664006E+01  0.10700755046E+02  0.51100000000E-03 0. -1.
        -11    1    3    3    0    0  0.19211998167E+02  0.17306962889E+02  0.16943671486E+02  0.30914718852E+02  0.51100000000E-03 0.  1.
        -12    1    3    3    0    0  0.34307375773E+01  0.49008015392E+01 -0.15176415544E+01  0.61717948717E+01  0.00000000000E+00 0.  1.
</event>
<event>
 7    1  0.2751796E-010  0.4778727E+02  0.7816164E-02  0.1312668E+00
        -11   -1    0    0    0    0  0.00000000000E+00  0.00000000000E+00  0.45593999997E+02  0.45594000000E+02  0.51100000000E-03 0. -1.
         11   -1    0    0    0    0 -0.00000000000E+00 -0.00000000000E+00 -0.45593999997E+02  0.45594000000E+02  0.51100000000E-03 0.  1.
    9900012    2    1    2    0    0 -0.13371413405E+02  0.14048248304E+02 -0.38826219170E+02  0.47787271067E+02  0.20000000105E+02 0.  0.
         12    1    1    2    0    0  0.13371413405E+02 -0.14048248304E+02  0.38826219170E+02  0.43400728933E+02  0.00000000000E+00 0. -1.
         11    1    3    3    0    0 -0.26689623829E+01  0.13383109037E+02 -0.13526998786E+02  0.19214855298E+02  0.51100000000E-03 0. -1.
        -11    1    3    3    0    0 -0.10467919958E+02  0.28251927257E+01 -0.18598069981E+02  0.21527825470E+02  0.51100000000E-03 0.  1.
         12    1    3    3    0    0 -0.23453106422E+00 -0.21600534589E+01 -0.67011504029E+01  0.70445902995E+01  0.00000000000E+00 0. -1.
</event>
<event>
 7    1  0.2751796E-010  0.4778727E+02  0.7816164E-02  0.1312668E+00
        -11   -1    0    0    0    0  0.00000000000E+00  0.00000000000E+00  0.45593999997E+02  0.45594000000E+02  0.51100000000E-03 0.  1.
         11   -1    0    0    0    0 -0.00000000000E+00 -0.00000000000E+00 -0.45593999997E+02  0.45594000000E+02  0.51100000000E-03 0. -1.
    9900012    2    1    2    0    0 -0.88874947140E+01  0.10944049018E+02  0.41047094757E+02  0.47787265453E+02  0.19999974508E+02 0.  0.
         12    1    1    2    0    0  0.88874947140E+01 -0.10944049018E+02 -0.41047094757E+02  0.43400734547E+02  0.00000000000E+00 0. -1.
         11    1    3    3    0    0 -0.23279036404E+01  0.32546265264E+01  0.86531948462E+01  0.95335990315E+01  0.51100000000E-03 0. -1.
        -11    1    3    3    0    0 -0.10099192764E+02  0.28621407319E+01  0.30040629094E+02  0.31821768346E+02  0.51100000000E-03 0.  1.
        -12    1    3    3    0    0  0.35396016906E+01  0.48272817598E+01  0.23532708166E+01  0.64318980755E+01  0.00000000000E+00 0.  1.
</event>
<event>
 7    1  0.2751796E-010  0.4778727E+02  0.7816164E-02  0.1312668E+00
        -11   -1    0    0    0    0  0.00000000000E+00  0.00000000000E+00  0.45593999997E+02  0.45594000000E+02  0.51100000000E-03 0.  1.
         11   -1    0    0    0    0 -0.00000000000E+00 -0.00000000000E+00 -0.45593999997E+02  0.45594000000E+02  0.51100000000E-03 0. -1.
    9900012    2    1    2    0    0 -0.32706132369E+02  0.14909420194E+02  0.24323676816E+02  0.47787272368E+02  0.20000006037E+02 0.  0.
         12    1    1    2    0    0  0.32706132369E+02 -0.14909420194E+02 -0.24323676816E+02  0.43400727632E+02  0.00000000000E+00 0. -1.
         11    1    3    3    0    0  0.91368581658E-01  0.32459996818E+01  0.15977843923E+01  0.36190851575E+01  0.51100000000E-03 0. -1.
        -11    1    3    3    0    0 -0.13427009671E+02  0.12633381929E+02  0.12117466682E+02  0.22061729912E+02  0.51100000000E-03 0.  1.
        -12    1    3    3    0    0 -0.19370491280E+02 -0.96996141647E+00  0.10608425742E+02  0.22106457299E+02  0.00000000000E+00 0.  1.
</event>
<event>
 7    1  0.2751796E-010  0.4778726E+02  0.7816164E-02  0.1312668E+00
        -11   -1    0    0    0    0  0.00000000000E+00  0.00000000000E+00  0.45593999997E+02  0.45594000000E+02  0.51100000000E-03 0.  1.
         11   -1    0    0    0    0 -0.00000000000E+00 -0.00000000000E+00 -0.45593999997E+02  0.45594000000E+02  0.51100000000E-03 0. -1.
    9900012    2    1    2    0    0 -0.33740628676E+02  0.25576951979E+02 -0.95401147265E+01  0.47787259396E+02  0.19999946889E+02 0.  0.
         12    1    1    2    0    0  0.33740628676E+02 -0.25576951979E+02  0.95401147265E+01  0.43400740604E+02  0.00000000000E+00 0. -1.
         11    1    3    3    0    0 -0.12697479031E+02  0.44421445399E+01 -0.42460520419E+01  0.14106295760E+02  0.51100000000E-03 0. -1.
        -11    1    3    3    0    0 -0.15646551540E+02  0.22670848276E+02 -0.33803074009E+01  0.27752628975E+02  0.51100000000E-03 0.  1.
        -12    1    3    3    0    0 -0.53965981051E+01 -0.15360408371E+01 -0.19137552838E+01  0.59283346606E+01  0.00000000000E+00 0.  1.
</event>
<event>
 7    1  0.2751796E-010  0.4778727E+02  0.7816164E-02  0.1312668E+00
        -11   -1    0    0    0    0  0.00000000000E+00  0.00000000000E+00  0.45593999997E+02  0.45594000000E+02  0.51100000000E-03 0. -1.
         11   -1    0    0    0    0 -0.00000000000E+00 -0.00000000000E+00 -0.45593999997E+02  0.45594000000E+02  0.51100000000E-03 0.  1.
    9900012    2    1    2    0    0 -0.30838977833E+01 -0.13926420806E+02 -0.40989848464E+02  0.47787270754E+02  0.19999998676E+02 0.  0.
         12    1    1    2    0    0  0.30838977833E+01  0.13926420806E+02  0.40989848464E+02  0.43400729246E+02  0.00000000000E+00 0. -1.
         11    1    3    3    0    0 -0.63632715688E+01 -0.12210112368E+02 -0.16594420800E+02  0.21562765849E+02  0.51100000000E-03 0.  1.
        -11    1    3    3    0    0  0.31690100354E+01 -0.86699255995E+00 -0.24975129668E+02  0.25190303748E+02  0.51100000000E-03 0. -1.
         12    1    3    3    0    0  0.11036375001E+00 -0.84931587884E+00  0.57970200504E+00  0.10342011574E+01  0.00000000000E+00 0. -1.
</event>
<event>
 7    1  0.2751796E-010  0.4778727E+02  0.7816164E-02  0.1312668E+00
        -11   -1    0    0    0    0  0.00000000000E+00  0.00000000000E+00  0.45593999997E+02  0.45594000000E+02  0.51100000000E-03 0. -1.
         11   -1    0    0    0    0 -0.00000000000E+00 -0.00000000000E+00 -0.45593999997E+02  0.45594000000E+02  0.51100000000E-03 0.  1.
    9900012    2    1    2    0    0  0.36942811739E+02 -0.37420507470E+01 -0.22468847041E+02  0.47787269934E+02  0.19999994935E+02 0.  0.
         12    1    1    2    0    0 -0.36942811739E+02  0.37420507470E+01  0.22468847041E+02  0.43400730066E+02  0.00000000000E+00 0. -1.
         11    1    3    3    0    0  0.15101569531E+01 -0.25309786098E+01 -0.38549617581E+00  0.29723785609E+01  0.51100000000E-03 0. -1.
        -11    1    3    3    0    0  0.62599940353E+01 -0.60546984081E+00 -0.12687046768E+02  0.14160341628E+02  0.51100000000E-03 0.  1.
        -12    1    3    3    0    0  0.29172660750E+02 -0.60560229634E+00 -0.93963040968E+01  0.30654549745E+02  0.00000000000E+00 0.  1.
</event>
<event>
 7    1  0.2751796E-010  0.4778725E+02  0.7816164E-02  0.1312668E+00
        -11   -1    0    0    0    0  0.00000000000E+00  0.00000000000E+00  0.45593999997E+02  0.45594000000E+02  0.51100000000E-03 0.  1.
         11   -1    0    0    0    0 -0.00000000000E+00 -0.00000000000E+00 -0.45593999997E+02  0.45594000000E+02  0.51100000000E-03 0. -1.
    9900012    2    1    2    0    0 -0.60353245080E+01  0.14717234535E+02  0.40380722208E+02  0.47787252768E+02  0.19999916669E+02 0.  0.
         12    1    1    2    0    0  0.60353245080E+01 -0.14717234535E+02 -0.40380722208E+02  0.43400747232E+02  0.00000000000E+00 0. -1.
         11    1    3    3    0    0  0.29269479932E+01  0.11193370552E+02  0.95386565014E+01  0.14994817004E+02  0.51100000000E-03 0. -1.
        -11    1    3    3    0    0 -0.51424520140E+01  0.40809850533E+01  0.24532087142E+02  0.25395325387E+02  0.51100000000E-03 0.  1.
         12    1    3    3    0    0 -0.38198204873E+01 -0.55712107009E+00  0.63099785646E+01  0.73971103768E+01  0.00000000000E+00 0. -1.
</event>
<event>
 7    1  0.2751796E-010  0.4778727E+02  0.7816164E-02  0.1312668E+00
        -11   -1    0    0    0    0  0.00000000000E+00  0.00000000000E+00  0.45593999997E+02  0.45594000000E+02  0.51100000000E-03 0.  1.
         11   -1    0    0    0    0 -0.00000000000E+00 -0.00000000000E+00 -0.45593999997E+02  0.45594000000E+02  0.51100000000E-03 0. -1.
    9900012    2    1    2    0    0 -0.39837651519E+02 -0.11029715307E+02  0.13226107737E+02  0.47787273921E+02  0.20000013116E+02 0.  0.
         12    1    1    2    0    0  0.39837651519E+02  0.11029715307E+02 -0.13226107737E+02  0.43400726079E+02  0.00000000000E+00 0. -1.
         11    1    3    3    0    0 -0.85809875043E+01 -0.24880682263E+01 -0.45268050820E+01  0.10015777282E+02  0.51100000000E-03 0. -1.
        -11    1    3    3    0    0 -0.17850299734E+02 -0.88595041851E+01  0.10444173591E+02  0.22498995028E+02  0.51100000000E-03 0.  1.
         12    1    3    3    0    0 -0.13406364281E+02  0.31785710497E+00  0.73087392277E+01  0.15272501611E+02  0.00000000000E+00 0. -1.
</event>
<event>
 7    1  0.2751796E-010  0.4778727E+02  0.7816164E-02  0.1312668E+00
        -11   -1    0    0    0    0  0.00000000000E+00  0.00000000000E+00  0.45593999997E+02  0.45594000000E+02  0.51100000000E-03 0.  1.
         11   -1    0    0    0    0 -0.00000000000E+00 -0.00000000000E+00 -0.45593999997E+02  0.45594000000E+02  0.51100000000E-03 0. -1.
    9900012    2    1    2    0    0  0.10556713934E+02  0.69835106535E+01  0.41513970474E+02  0.47787269883E+02  0.19999994706E+02 0.  0.
         12    1    1    2    0    0 -0.10556713934E+02 -0.69835106535E+01 -0.41513970474E+02  0.43400730117E+02  0.00000000000E+00 0. -1.
         11    1    3    3    0    0 -0.31402555903E+01 -0.22038670557E+01  0.24590395969E+01  0.45568751544E+01  0.51100000000E-03 0. -1.
        -11    1    3    3    0    0  0.12288062004E+02  0.39252098288E+01  0.24482222713E+02  0.27672783908E+02  0.51100000000E-03 0.  1.
        -12    1    3    3    0    0  0.14089075212E+01  0.52621678804E+01  0.14572708165E+02  0.15557610821E+02  0.00000000000E+00 0.  1.
</event>
<event>
 7    1  0.2751796E-010  0.4778727E+02  0.7816164E-02  0.1312668E+00
        -11   -1    0    0    0    0  0.00000000000E+00  0.00000000000E+00  0.45593999997E+02  0.45594000000E+02  0.51100000000E-03 0.  1.
         11   -1    0    0    0    0 -0.00000000000E+00 -0.00000000000E+00 -0.45593999997E+02  0.45594000000E+02  0.51100000000E-03 0. -1.
    9900012    2    1    2    0    0  0.25534834415E+02 -0.46154206414E+01  0.34789272106E+02  0.47787270398E+02  0.19999997051E+02 0.  0.
         12    1    1    2    0    0 -0.25534834415E+02  0.46154206414E+01 -0.34789272106E+02  0.43400729602E+02  0.00000000000E+00 0. -1.
         11    1    3    3    0    0  0.10124129725E+02 -0.66794422249E+01  0.72868310251E+01  0.14149588608E+02  0.51100000000E-03 0. -1.
        -11    1    3    3    0    0  0.81261828396E+01  0.63038140933E+01  0.10708710863E+02  0.14847538795E+02  0.51100000000E-03 0.  1.
        -12    1    3    3    0    0  0.72845218512E+01 -0.42397925098E+01  0.16793730218E+02  0.18790142995E+02  0.00000000000E+00 0.  1.
</event>
<event>
 7    1  0.2751796E-010  0.4778727E+02  0.7816164E-02  0.1312668E+00
        -11   -1    0    0    0    0  0.00000000000E+00  0.00000000000E+00  0.45593999997E+02  0.45594000000E+02  0.51100000000E-03 0.  1.
         11   -1    0    0    0    0 -0.00000000000E+00 -0.00000000000E+00 -0.45593999997E+02  0.45594000000E+02  0.51100000000E-03 0. -1.
    9900012    2    1    2    0    0  0.50999968894E+01 -0.16680809250E+02  0.39741209672E+02  0.47787272913E+02  0.20000008520E+02 0.  0.
         12    1    1    2    0    0 -0.50999968894E+01  0.16680809250E+02 -0.39741209672E+02  0.43400727087E+02  0.00000000000E+00 0. -1.
         11    1    3    3    0    0 -0.19401589927E+01  0.18336551368E+01  0.40998287598E+01  0.48923516021E+01  0.51100000000E-03 0. -1.
        -11    1    3    3    0    0  0.10643216106E+02 -0.10080166114E+02  0.20750230240E+02  0.25405901937E+02  0.51100000000E-03 0.  1.
        -12    1    3    3    0    0 -0.36030602237E+01 -0.84342982721E+01  0.14891150673E+02  0.17489019374E+02  0.00000000000E+00 0.  1.
</event>
<event>
 7    1  0.2751796E-010  0.4778727E+02  0.7816164E-02  0.1312668E+00
        -11   -1    0    0    0    0  0.00000000000E+00  0.00000000000E+00  0.45593999997E+02  0.45594000000E+02  0.51100000000E-03 0. -1.
         11   -1    0    0    0    0 -0.00000000000E+00 -0.00000000000E+00 -0.45593999997E+02  0.45594000000E+02  0.51100000000E-03 0.  1.
    9900012    2    1    2    0    0  0.45642881350E+01  0.23293973302E+02 -0.36334298556E+02  0.47787272242E+02  0.20000005462E+02 0.  0.
         12    1    1    2    0    0 -0.45642881350E+01 -0.23293973302E+02  0.36334298556E+02  0.43400727758E+02  0.00000000000E+00 0. -1.
         11    1    3    3    0    0  0.54103007011E+01  0.17134372164E+02 -0.14107310138E+02  0.22844567466E+02  0.51100000000E-03 0. -1.
        -11    1    3    3    0    0 -0.22205750650E+00  0.86392161092E+01 -0.15504133549E+02  0.17750028785E+02  0.51100000000E-03 0.  1.
         12    1    3    3    0    0 -0.62395505955E+00 -0.24796149712E+01 -0.67228548692E+01  0.71926759912E+01  0.00000000000E+00 0. -1.
</event>
<event>
 7    1  0.2751796E-010  0.4778727E+02  0.7816164E-02  0.1312668E+00
        -11   -1    0    0    0    0  0.00000000000E+00  0.00000000000E+00  0.45593999997E+02  0.45594000000E+02  0.51100000000E-03 0. -1.
         11   -1    0    0    0    0 -0.00000000000E+00 -0.00000000000E+00 -0.45593999997E+02  0.45594000000E+02  0.51100000000E-03 0.  1.
    9900012    2    1    2    0    0  0.51466978787E+01  0.18065557597E+02 -0.39125058269E+02  0.47787273567E+02  0.20000011503E+02 0.  0.
         12    1    1    2    0    0 -0.51466978787E+01 -0.18065557597E+02  0.39125058269E+02  0.43400726433E+02  0.00000000000E+00 0. -1.
         11    1    3    3    0    0  0.16081775906E+01  0.21026985878E+01 -0.15130640667E+01  0.30490883302E+01  0.51100000000E-03 0. -1.
        -11    1    3    3    0    0  0.95103095262E+01  0.13339139020E+02 -0.19390763054E+02  0.25384647115E+02  0.51100000000E-03 0.  1.
        -12    1    3    3    0    0 -0.59717892381E+01  0.26237199892E+01 -0.18221231149E+02  0.19353538122E+02  0.00000000000E+00 0.  1.
</event>
<event>
 7    1  0.2751796E-010  0.4778727E+02  0.7816164E-02  0.1312668E+00
        -11   -1    0    0    0    0  0.00000000000E+00  0.00000000000E+00  0.45593999997E+02  0.45594000000E+02  0.51100000000E-03 0. -1.
         11   -1    0    0    0    0 -0.00000000000E+00 -0.00000000000E+00 -0.45593999997E+02  0.45594000000E+02  0.51100000000E-03 0.  1.
    9900012    2    1    2    0    0 -0.79661182569E+01 -0.34239793301E+02 -0.25451931121E+02  0.47787270937E+02  0.19999999512E+02 0.  0.
         12    1    1    2    0    0  0.79661182569E+01  0.34239793301E+02  0.25451931121E+02  0.43400729063E+02  0.00000000000E+00 0. -1.
         11    1    3    3    0    0 -0.11471928034E+02 -0.26285651392E+02 -0.22138020421E+02  0.36230271188E+02  0.51100000000E-03 0. -1.
        -11    1    3    3    0    0  0.37403504390E+01 -0.38500911473E+01 -0.47850129740E+01  0.71909507488E+01  0.51100000000E-03 0.  1.
         12    1    3    3    0    0 -0.23454066198E+00 -0.41040507615E+01  0.14711022742E+01  0.43660490007E+01  0.00000000000E+00 0. -1.
</event>
<event>
 7    1  0.2751796E-010  0.4778727E+02  0.7816164E-02  0.1312668E+00
        -11   -1    0    0    0    0  0.00000000000E+00  0.00000000000E+00  0.45593999997E+02  0.45594000000E+02  0.51100000000E-03 0.  1.
         11   -1    0    0    0    0 -0.00000000000E+00 -0.00000000000E+00 -0.45593999997E+02  0.45594000000E+02  0.51100000000E-03 0. -1.
    9900012    2    1    2    0    0  0.68215580000E+01  0.37858808559E+02  0.20094779956E+02  0.47787271659E+02  0.20000002801E+02 0.  0.
         12    1    1    2    0    0 -0.68215580000E+01 -0.37858808559E+02 -0.20094779956E+02  0.43400728341E+02  0.00000000000E+00 0. -1.
         11    1    3    3    0    0 -0.31555852970E+01  0.18469646265E+01 -0.21786730255E+01  0.42562440381E+01  0.51100000000E-03 0. -1.
        -11    1    3    3    0    0  0.69349294763E+01  0.26744426424E+02  0.15860068985E+02  0.31857485463E+02  0.51100000000E-03 0.  1.
         12    1    3    3    0    0  0.30422138207E+01  0.92674175088E+01  0.64133839968E+01  0.11673542157E+02  0.00000000000E+00 0. -1.
</event>
<event>
 7    1  0.2751796E-010  0.4778727E+02  0.7816164E-02  0.1312668E+00
        -11   -1    0    0    0    0  0.00000000000E+00  0.00000000000E+00  0.45593999997E+02  0.45594000000E+02  0.51100000000E-03 0. -1.
         11   -1    0    0    0    0 -0.00000000000E+00 -0.00000000000E+00 -0.45593999997E+02  0.45594000000E+02  0.51100000000E-03 0.  1.
    9900012    2    1    2    0    0  0.30059623587E+02 -0.65447065708E+01 -0.30613872242E+02  0.47787270422E+02  0.19999997161E+02 0.  0.
         12    1    1    2    0    0 -0.30059623587E+02  0.65447065708E+01  0.30613872242E+02  0.43400729578E+02  0.00000000000E+00 0. -1.
         11    1    3    3    0    0 -0.26557078262E+00 -0.44873326425E+00  0.15964750656E+01  0.16794708331E+01  0.51100000000E-03 0. -1.
        -11    1    3    3    0    0  0.14928601225E+02  0.25056514402E+00 -0.21952318284E+02  0.26548638303E+02  0.51100000000E-03 0.  1.
        -12    1    3    3    0    0  0.15396593144E+02 -0.63465384506E+01 -0.10258029024E+02  0.19559161286E+02  0.00000000000E+00 0.  1.
</event>
<event>
 7    1  0.2751796E-010  0.4778732E+02  0.7816164E-02  0.1312668E+00
        -11   -1    0    0    0    0  0.00000000000E+00  0.00000000000E+00  0.45593999997E+02  0.45594000000E+02  0.51100000000E-03 0.  1.
         11   -1    0    0    0    0 -0.00000000000E+00 -0.00000000000E+00 -0.45593999997E+02  0.45594000000E+02  0.51100000000E-03 0. -1.
    9900012    2    1    2    0    0 -0.20906879632E+02 -0.30665002997E+02  0.22498417705E+02  0.47787322310E+02  0.20000233738E+02 0.  0.
         12    1    1    2    0    0  0.20906879632E+02  0.30665002997E+02 -0.22498417705E+02  0.43400677690E+02  0.00000000000E+00 0. -1.
         11    1    3    3    0    0  0.19818409272E+01 -0.10813346659E+01 -0.58705826760E+00  0.23327271145E+01  0.51100000000E-03 0. -1.
        -11    1    3    3    0    0 -0.20543644793E+02 -0.18319400667E+02  0.14595799209E+02  0.31155723985E+02  0.51100000000E-03 0.  1.
        -12    1    3    3    0    0 -0.23450757658E+01 -0.11264267664E+02  0.84896767636E+01  0.14298871211E+02  0.00000000000E+00 0.  1.
</event>
<event>
 7    1  0.2751796E-010  0.4778727E+02  0.7816164E-02  0.1312668E+00
        -11   -1    0    0    0    0  0.00000000000E+00  0.00000000000E+00  0.45593999997E+02  0.45594000000E+02  0.51100000000E-03 0. -1.
         11   -1    0    0    0    0 -0.00000000000E+00 -0.00000000000E+00 -0.45593999997E+02  0.45594000000E+02  0.51100000000E-03 0.  1.
    9900012    2    1    2    0    0 -0.22899723743E+02  0.15516612421E+02 -0.33443401666E+02  0.47787265864E+02  0.19999976382E+02 0.  0.
         12    1    1    2    0    0  0.22899723743E+02 -0.15516612421E+02  0.33443401666E+02  0.43400734136E+02  0.00000000000E+00 0. -1.
         11    1    3    3    0    0  0.14324464513E+01  0.90551516196E+00  0.66735375632E+00  0.18213242000E+01  0.51100000000E-03 0. -1.
        -11    1    3    3    0    0 -0.20476983399E+02  0.62646637477E+01 -0.21354316184E+02  0.30241687799E+02  0.51100000000E-03 0.  1.
        -12    1    3    3    0    0 -0.38551867953E+01  0.83464335116E+01 -0.12756439238E+02  0.15724253866E+02  0.00000000000E+00 0.  1.
</event>
<event>
 7    1  0.2751796E-010  0.4778727E+02  0.7816164E-02  0.1312668E+00
        -11   -1    0    0    0    0  0.00000000000E+00  0.00000000000E+00  0.45593999997E+02  0.45594000000E+02  0.51100000000E-03 0. -1.
         11   -1    0    0    0    0 -0.00000000000E+00 -0.00000000000E+00 -0.45593999997E+02  0.45594000000E+02  0.51100000000E-03 0.  1.
    9900012    2    1    2    0    0  0.28476538069E+02  0.12655052843E+02 -0.30208603754E+02  0.47787270472E+02  0.19999997390E+02 0.  0.
         12    1    1    2    0    0 -0.28476538069E+02 -0.12655052843E+02  0.30208603754E+02  0.43400729528E+02  0.00000000000E+00 0. -1.
         11    1    3    3    0    0  0.13995561760E+02  0.14554381143E+02 -0.14791117674E+02  0.25029640863E+02  0.51100000000E-03 0. -1.
        -11    1    3    3    0    0  0.10242982483E+02 -0.26535261534E+01 -0.15104136178E+02  0.18441659934E+02  0.51100000000E-03 0.  1.
        -12    1    3    3    0    0  0.42379938258E+01  0.75419785311E+00 -0.31334990143E+00  0.43159696743E+01  0.00000000000E+00 0.  1.
</event>
<event>
 7    1  0.2751796E-010  0.4778726E+02  0.7816164E-02  0.1312668E+00
        -11   -1    0    0    0    0  0.00000000000E+00  0.00000000000E+00  0.45593999997E+02  0.45594000000E+02  0.51100000000E-03 0. -1.
         11   -1    0    0    0    0 -0.00000000000E+00 -0.00000000000E+00 -0.45593999997E+02  0.45594000000E+02  0.51100000000E-03 0.  1.
    9900012    2    1    2    0    0  0.26029507911E+02 -0.33466676940E+02 -0.92774147359E+01  0.47787260701E+02  0.19999952840E+02 0.  0.
         12    1    1    2    0    0 -0.26029507911E+02  0.33466676940E+02  0.92774147359E+01  0.43400739299E+02  0.00000000000E+00 0. -1.
         11    1    3    3    0    0  0.23288308122E+02 -0.20439652392E+02 -0.68403339619E+01  0.31731921689E+02  0.51100000000E-03 0. -1.
        -11    1    3    3    0    0 -0.67502348045E+00 -0.96939496119E+01  0.15449982050E+01  0.98394784156E+01  0.51100000000E-03 0.  1.
        -12    1    3    3    0    0  0.34162232698E+01 -0.33330749366E+01 -0.39820789790E+01  0.62158605966E+01  0.00000000000E+00 0.  1.
</event>
<event>
 7    1  0.2751796E-010  0.4778727E+02  0.7816164E-02  0.1312668E+00
        -11   -1    0    0    0    0  0.00000000000E+00  0.00000000000E+00  0.45593999997E+02  0.45594000000E+02  0.51100000000E-03 0.  1.
         11   -1    0    0    0    0 -0.00000000000E+00 -0.00000000000E+00 -0.45593999997E+02  0.45594000000E+02  0.51100000000E-03 0. -1.
    9900012    2    1    2    0    0 -0.33112076553E+02  0.25661489620E+02  0.11344671913E+02  0.47787271389E+02  0.20000001572E+02 0.  0.
         12    1    1    2    0    0  0.33112076553E+02 -0.25661489620E+02 -0.11344671913E+02  0.43400728611E+02  0.00000000000E+00 0. -1.
         11    1    3    3    0    0  0.94951898302E+00  0.85460040242E+00 -0.65479300179E+00  0.14355076744E+01  0.51100000000E-03 0. -1.
        -11    1    3    3    0    0 -0.11903919330E+02  0.17398898057E+02  0.84885043662E+01  0.22726188763E+02  0.51100000000E-03 0.  1.
        -12    1    3    3    0    0 -0.22157676205E+02  0.74079911601E+01  0.35109605489E+01  0.23625574952E+02  0.00000000000E+00 0.  1.
</event>
<event>
 7    1  0.2751796E-010  0.4778727E+02  0.7816164E-02  0.1312668E+00
        -11   -1    0    0    0    0  0.00000000000E+00  0.00000000000E+00  0.45593999997E+02  0.45594000000E+02  0.51100000000E-03 0. -1.
         11   -1    0    0    0    0 -0.00000000000E+00 -0.00000000000E+00 -0.45593999997E+02  0.45594000000E+02  0.51100000000E-03 0.  1.
    9900012    2    1    2    0    0  0.94205836637E+01  0.17109620138E+02 -0.38757406828E+02  0.47787273256E+02  0.20000010085E+02 0.  0.
         12    1    1    2    0    0 -0.94205836637E+01 -0.17109620138E+02  0.38757406828E+02  0.43400726744E+02  0.00000000000E+00 0. -1.
         11    1    3    3    0    0 -0.51836716341E+01  0.12520077591E+00 -0.60714099590E+01  0.79842436083E+01  0.51100000000E-03 0. -1.
        -11    1    3    3    0    0  0.10109066670E+02  0.12596342911E+02 -0.26164891661E+02  0.30748376211E+02  0.51100000000E-03 0.  1.
         12    1    3    3    0    0  0.44951886282E+01  0.43880764511E+01 -0.65211052076E+01  0.90546534375E+01  0.00000000000E+00 0. -1.
</event>
<event>
 7    1  0.2751796E-010  0.4778727E+02  0.7816164E-02  0.1312668E+00
        -11   -1    0    0    0    0  0.00000000000E+00  0.00000000000E+00  0.45593999997E+02  0.45594000000E+02  0.51100000000E-03 0.  1.
         11   -1    0    0    0    0 -0.00000000000E+00 -0.00000000000E+00 -0.45593999997E+02  0.45594000000E+02  0.51100000000E-03 0. -1.
    9900012    2    1    2    0    0 -0.39688496170E+02  0.15651429298E+01  0.17492758604E+02  0.47787274151E+02  0.20000014166E+02 0.  0.
         12    1    1    2    0    0  0.39688496170E+02 -0.15651429298E+01 -0.17492758604E+02  0.43400725849E+02  0.00000000000E+00 0. -1.
         11    1    3    3    0    0 -0.46083040060E+00  0.38967880374E+01  0.49964157418E+00  0.39556243035E+01  0.51100000000E-03 0. -1.
        -11    1    3    3    0    0 -0.32731640143E+02 -0.21157375360E+01  0.17738751275E+02  0.37289407462E+02  0.51100000000E-03 0.  1.
        -12    1    3    3    0    0 -0.64960256262E+01 -0.21590757168E+00 -0.74563424539E+00  0.65422423865E+01  0.00000000000E+00 0.  1.
</event>
<event>
 7    1  0.2751796E-010  0.4778727E+02  0.7816164E-02  0.1312668E+00
        -11   -1    0    0    0    0  0.00000000000E+00  0.00000000000E+00  0.45593999997E+02  0.45594000000E+02  0.51100000000E-03 0.  1.
         11   -1    0    0    0    0 -0.00000000000E+00 -0.00000000000E+00 -0.45593999997E+02  0.45594000000E+02  0.51100000000E-03 0. -1.
    9900012    2    1    2    0    0  0.11981989003E+02 -0.10888433582E+01  0.41699755298E+02  0.47787271524E+02  0.20000002185E+02 0.  0.
         12    1    1    2    0    0 -0.11981989003E+02  0.10888433582E+01 -0.41699755298E+02  0.43400728476E+02  0.00000000000E+00 0. -1.
         11    1    3    3    0    0  0.10345891768E+02 -0.66198626737E+01  0.36860687869E+02  0.38853189943E+02  0.51100000000E-03 0. -1.
        -11    1    3    3    0    0 -0.13356459170E+01  0.34860825089E+01  0.34027995494E+01  0.50513133252E+01  0.51100000000E-03 0.  1.
         12    1    3    3    0    0  0.29717431523E+01  0.20449368067E+01  0.14362678801E+01  0.38827682561E+01  0.00000000000E+00 0. -1.
</event>
<event>
 7    1  0.2751796E-010  0.4778726E+02  0.7816164E-02  0.1312668E+00
        -11   -1    0    0    0    0  0.00000000000E+00  0.00000000000E+00  0.45593999997E+02  0.45594000000E+02  0.51100000000E-03 0.  1.
         11   -1    0    0    0    0 -0.00000000000E+00 -0.00000000000E+00 -0.45593999997E+02  0.45594000000E+02  0.51100000000E-03 0. -1.
    9900012    2    1    2    0    0 -0.25331957886E+02  0.35146654666E+02  0.25745690637E+01  0.47787264633E+02  0.19999970769E+02 0.  0.
         12    1    1    2    0    0  0.25331957886E+02 -0.35146654666E+02 -0.25745690637E+01  0.43400735367E+02  0.00000000000E+00 0. -1.
         11    1    3    3    0    0 -0.18314385826E+02  0.14291869014E+02 -0.40264017514E+01  0.23577238163E+02  0.51100000000E-03 0. -1.
        -11    1    3    3    0    0 -0.66016800373E+01  0.78086872718E+01  0.33266667337E+01  0.10752882778E+02  0.51100000000E-03 0.  1.
         12    1    3    3    0    0 -0.41589202238E+00  0.13046098380E+02  0.32743040814E+01  0.13457143692E+02  0.00000000000E+00 0. -1.
</event>
<event>
 7    1  0.2751796E-010  0.4778727E+02  0.7816164E-02  0.1312668E+00
        -11   -1    0    0    0    0  0.00000000000E+00  0.00000000000E+00  0.45593999997E+02  0.45594000000E+02  0.51100000000E-03 0. -1.
         11   -1    0    0    0    0 -0.00000000000E+00 -0.00000000000E+00 -0.45593999997E+02  0.45594000000E+02  0.51100000000E-03 0.  1.
    9900012    2    1    2    0    0  0.13309863773E+02 -0.37625190503E+02  0.17053337879E+02  0.47787265365E+02  0.19999974107E+02 0.  0.
         12    1    1    2    0    0 -0.13309863773E+02  0.37625190503E+02 -0.17053337879E+02  0.43400734635E+02  0.00000000000E+00 0. -1.
         11    1    3    3    0    0  0.31270316555E+01  0.13715460492E+01 -0.17913883385E+00  0.34192918159E+01  0.51100000000E-03 0. -1.
        -11    1    3    3    0    0  0.25636738722E+01 -0.18301195309E+02  0.10760407017E+02  0.21384399288E+02  0.51100000000E-03 0.  1.
         12    1    3    3    0    0  0.76191582454E+01 -0.20695541243E+02  0.64720696950E+01  0.22983574261E+02  0.00000000000E+00 0. -1.
</event>
<event>
 7    1  0.2751796E-010  0.4778727E+02  0.7816164E-02  0.1312668E+00
        -11   -1    0    0    0    0  0.00000000000E+00  0.00000000000E+00  0.45593999997E+02  0.45594000000E+02  0.51100000000E-03 0. -1.
         11   -1    0    0    0    0 -0.00000000000E+00 -0.00000000000E+00 -0.45593999997E+02  0.45594000000E+02  0.51100000000E-03 0.  1.
    9900012    2    1    2    0    0 -0.13438534358E+02  0.29568898578E+02 -0.28787309403E+02  0.47787272454E+02  0.20000006429E+02 0.  0.
         12    1    1    2    0    0  0.13438534358E+02 -0.29568898578E+02  0.28787309403E+02  0.43400727546E+02  0.00000000000E+00 0. -1.
         11    1    3    3    0    0 -0.20695180866E+01  0.87598468492E+01 -0.14374182269E+01  0.91150421476E+01  0.51100000000E-03 0. -1.
        -11    1    3    3    0    0  0.10622013712E+01  0.10270786955E+02 -0.64696628026E+01  0.12184985576E+02  0.51100000000E-03 0.  1.
        -12    1    3    3    0    0 -0.12431217643E+02  0.10538264773E+02 -0.20880228374E+02  0.26487244731E+02  0.00000000000E+00 0.  1.
</event>
<event>
 7    1  0.2751796E-010  0.4778727E+02  0.7816164E-02  0.1312668E+00
        -11   -1    0    0    0    0  0.00000000000E+00  0.00000000000E+00  0.45593999997E+02  0.45594000000E+02  0.51100000000E-03 0. -1.
         11   -1    0    0    0    0 -0.00000000000E+00 -0.00000000000E+00 -0.45593999997E+02  0.45594000000E+02  0.51100000000E-03 0.  1.
    9900012    2    1    2    0    0  0.62188166859E+01 -0.19192151710E+02 -0.38426693023E+02  0.47787272991E+02  0.20000008874E+02 0.  0.
         12    1    1    2    0    0 -0.62188166859E+01  0.19192151710E+02  0.38426693023E+02  0.43400727009E+02  0.00000000000E+00 0. -1.
         11    1    3    3    0    0 -0.14588599187E+01 -0.80549765136E+00 -0.52564728135E+01  0.55143091525E+01  0.51100000000E-03 0. -1.
        -11    1    3    3    0    0  0.63921266797E+01  0.12439308689E+01 -0.89951912643E+01  0.11104958966E+02  0.51100000000E-03 0.  1.
        -12    1    3    3    0    0  0.12855499250E+01 -0.19630584927E+02 -0.24175028946E+02  0.31168004872E+02  0.00000000000E+00 0.  1.
</event>
<event>
 7    1  0.2751796E-010  0.4778727E+02  0.7816164E-02  0.1312668E+00
        -11   -1    0    0    0    0  0.00000000000E+00  0.00000000000E+00  0.45593999997E+02  0.45594000000E+02  0.51100000000E-03 0.  1.
         11   -1    0    0    0    0 -0.00000000000E+00 -0.00000000000E+00 -0.45593999997E+02  0.45594000000E+02  0.51100000000E-03 0. -1.
    9900012    2    1    2    0    0  0.29926760295E+02 -0.22364690750E+02  0.22086945421E+02  0.47787268069E+02  0.19999986435E+02 0.  0.
         12    1    1    2    0    0 -0.29926760295E+02  0.22364690750E+02 -0.22086945421E+02  0.43400731931E+02  0.00000000000E+00 0. -1.
         11    1    3    3    0    0  0.14304835910E+01 -0.10896127086E+01  0.50006293800E+00  0.18664410952E+01  0.51100000000E-03 0. -1.
        -11    1    3    3    0    0  0.20749833136E+02 -0.24194477602E+02  0.19564153033E+02  0.37398989368E+02  0.51100000000E-03 0.  1.
        -12    1    3    3    0    0  0.77464435685E+01  0.29193995604E+01  0.20227294493E+01  0.85218376057E+01  0.00000000000E+00 0.  1.
</event>
<event>
 7    1  0.2751796E-010  0.4778727E+02  0.7816164E-02  0.1312668E+00
        -11   -1    0    0    0    0  0.00000000000E+00  0.00000000000E+00  0.45593999997E+02  0.45594000000E+02  0.51100000000E-03 0.  1.
         11   -1    0    0    0    0 -0.00000000000E+00 -0.00000000000E+00 -0.45593999997E+02  0.45594000000E+02  0.51100000000E-03 0. -1.
    9900012    2    1    2    0    0 -0.27622226333E+02  0.77636246249E-01  0.33475810883E+02  0.47787270407E+02  0.19999997094E+02 0.  0.
         12    1    1    2    0    0  0.27622226333E+02 -0.77636246249E-01 -0.33475810883E+02  0.43400729593E+02  0.00000000000E+00 0. -1.
         11    1    3    3    0    0 -0.10933496100E+02  0.82979897605E+01  0.11039684797E+02  0.17614556813E+02  0.51100000000E-03 0. -1.
        -11    1    3    3    0    0 -0.62564355410E+01 -0.49940269258E+01  0.14869857177E+02  0.16887745360E+02  0.51100000000E-03 0.  1.
         12    1    3    3    0    0 -0.10432294692E+02 -0.32263265885E+01  0.75662689089E+01  0.13284968235E+02  0.00000000000E+00 0. -1.
</event>
<event>
 7    1  0.2751796E-010  0.4778728E+02  0.7816164E-02  0.1312668E+00
        -11   -1    0    0    0    0  0.00000000000E+00  0.00000000000E+00  0.45593999997E+02  0.45594000000E+02  0.51100000000E-03 0.  1.
         11   -1    0    0    0    0 -0.00000000000E+00 -0.00000000000E+00 -0.45593999997E+02  0.45594000000E+02  0.51100000000E-03 0. -1.
    9900012    2    1    2    0    0  0.11172546068E+02 -0.43667455991E+01  0.41710054322E+02  0.47787275532E+02  0.20000020460E+02 0.  0.
         12    1    1    2    0    0 -0.11172546068E+02  0.43667455991E+01 -0.41710054322E+02  0.43400724468E+02  0.00000000000E+00 0. -1.
         11    1    3    3    0    0 -0.16976006587E+01 -0.16219173864E+01  0.15160403243E+02  0.15341130687E+02  0.51100000000E-03 0.  1.
        -11    1    3    3    0    0  0.54697247338E+01  0.36234693033E+01  0.35496554051E+01  0.74597233335E+01  0.51100000000E-03 0. -1.
        -12    1    3    3    0    0  0.74004219931E+01 -0.63682975160E+01  0.22999995675E+02  0.24986421512E+02  0.00000000000E+00 0.  1.
</event>
<event>
 7    1  0.2751796E-010  0.4778727E+02  0.7816164E-02  0.1312668E+00
        -11   -1    0    0    0    0  0.00000000000E+00  0.00000000000E+00  0.45593999997E+02  0.45594000000E+02  0.51100000000E-03 0. -1.
         11   -1    0    0    0    0 -0.00000000000E+00 -0.00000000000E+00 -0.45593999997E+02  0.45594000000E+02  0.51100000000E-03 0.  1.
    9900012    2    1    2    0    0  0.33935915988E+02 -0.18091586127E+02 -0.20116447053E+02  0.47787270461E+02  0.19999997338E+02 0.  0.
         12    1    1    2    0    0 -0.33935915988E+02  0.18091586127E+02  0.20116447053E+02  0.43400729539E+02  0.00000000000E+00 0. -1.
         11    1    3    3    0    0  0.49242143918E+01 -0.10159585794E+02 -0.10717090588E+01  0.11340795009E+02  0.51100000000E-03 0. -1.
        -11    1    3    3    0    0  0.28426313033E+02 -0.62699493220E+01 -0.16859996709E+02  0.33639664482E+02  0.51100000000E-03 0.  1.
         12    1    3    3    0    0  0.58538856251E+00 -0.16620510109E+01 -0.21847412854E+01  0.28068109690E+01  0.00000000000E+00 0. -1.
</event>
<event>
 7    1  0.2751796E-010  0.4778727E+02  0.7816164E-02  0.1312668E+00
        -11   -1    0    0    0    0  0.00000000000E+00  0.00000000000E+00  0.45593999997E+02  0.45594000000E+02  0.51100000000E-03 0.  1.
         11   -1    0    0    0    0 -0.00000000000E+00 -0.00000000000E+00 -0.45593999997E+02  0.45594000000E+02  0.51100000000E-03 0. -1.
    9900012    2    1    2    0    0 -0.14850311862E+02  0.38101252760E+02  0.14539122924E+02  0.47787270517E+02  0.19999997595E+02 0.  0.
         12    1    1    2    0    0  0.14850311862E+02 -0.38101252760E+02 -0.14539122924E+02  0.43400729483E+02  0.00000000000E+00 0. -1.
         11    1    3    3    0    0 -0.93089742905E+01  0.12224950501E+02  0.29754507532E+01  0.15651189237E+02  0.51100000000E-03 0. -1.
        -11    1    3    3    0    0  0.41530612442E+01  0.10460337354E+02  0.73564787104E+01  0.13445607258E+02  0.51100000000E-03 0.  1.
        -12    1    3    3    0    0 -0.96943988156E+01  0.15415964905E+02  0.42071934608E+01  0.18690474022E+02  0.00000000000E+00 0.  1.
</event>
<event>
 7    1  0.2751796E-010  0.4778727E+02  0.7816164E-02  0.1312668E+00
        -11   -1    0    0    0    0  0.00000000000E+00  0.00000000000E+00  0.45593999997E+02  0.45594000000E+02  0.51100000000E-03 0.  1.
         11   -1    0    0    0    0 -0.00000000000E+00 -0.00000000000E+00 -0.45593999997E+02  0.45594000000E+02  0.51100000000E-03 0. -1.
    9900012    2    1    2    0    0 -0.25495003877E+02 -0.32120527895E+02  0.14209137571E+02  0.47787272754E+02  0.20000007796E+02 0.  0.
         12    1    1    2    0    0  0.25495003877E+02  0.32120527895E+02 -0.14209137571E+02  0.43400727246E+02  0.00000000000E+00 0. -1.
         11    1    3    3    0    0 -0.13168045206E+02 -0.50020952554E+01  0.61353529243E+01  0.15364274381E+02  0.51100000000E-03 0. -1.
        -11    1    3    3    0    0 -0.33081068312E+01 -0.18313145373E+02  0.30672469102E+01  0.18860616855E+02  0.51100000000E-03 0.  1.
        -12    1    3    3    0    0 -0.90188518400E+01 -0.88052872659E+01  0.50065377361E+01  0.13562381518E+02  0.00000000000E+00 0.  1.
</event>
<event>
 7    1  0.2751796E-010  0.4778727E+02  0.7816164E-02  0.1312668E+00
        -11   -1    0    0    0    0  0.00000000000E+00  0.00000000000E+00  0.45593999997E+02  0.45594000000E+02  0.51100000000E-03 0. -1.
         11   -1    0    0    0    0 -0.00000000000E+00 -0.00000000000E+00 -0.45593999997E+02  0.45594000000E+02  0.51100000000E-03 0.  1.
    9900012    2    1    2    0    0 -0.14048905669E+02  0.36723727021E+02 -0.18374417827E+02  0.47787272964E+02  0.20000008753E+02 0.  0.
         12    1    1    2    0    0  0.14048905669E+02 -0.36723727021E+02  0.18374417827E+02  0.43400727036E+02  0.00000000000E+00 0. -1.
         11    1    3    3    0    0 -0.26789480669E+01 -0.15944213348E+01 -0.28911801306E+01  0.42518072565E+01  0.51100000000E-03 0. -1.
        -11    1    3    3    0    0 -0.94784576407E+01  0.18556148187E+02 -0.79576216944E+01  0.22304608001E+02  0.51100000000E-03 0.  1.
         12    1    3    3    0    0 -0.18914999612E+01  0.19762000168E+02 -0.75256160016E+01  0.21230857706E+02  0.00000000000E+00 0. -1.
</event>
<event>
 7    1  0.2751796E-010  0.4778728E+02  0.7816164E-02  0.1312668E+00
        -11   -1    0    0    0    0  0.00000000000E+00  0.00000000000E+00  0.45593999997E+02  0.45594000000E+02  0.51100000000E-03 0.  1.
         11   -1    0    0    0    0 -0.00000000000E+00 -0.00000000000E+00 -0.45593999997E+02  0.45594000000E+02  0.51100000000E-03 0. -1.
    9900012    2    1    2    0    0  0.37475427550E+02  0.25885486592E+01  0.21737389906E+02  0.47787281410E+02  0.20000047261E+02 0.  0.
         12    1    1    2    0    0 -0.37475427550E+02 -0.25885486592E+01 -0.21737389906E+02  0.43400718590E+02  0.00000000000E+00 0. -1.
         11    1    3    3    0    0  0.13403336639E+01  0.58227015718E+01  0.46809641220E+01  0.75902419789E+01  0.51100000000E-03 0. -1.
        -11    1    3    3    0    0  0.18320393871E+02 -0.22190752178E+01  0.71748156426E+01  0.19799977428E+02  0.51100000000E-03 0.  1.
         12    1    3    3    0    0  0.17814700016E+02 -0.10150776949E+01  0.98816101411E+01  0.20397062003E+02  0.00000000000E+00 0. -1.
</event>
<event>
 7    1  0.2751796E-010  0.4778727E+02  0.7816164E-02  0.1312668E+00
        -11   -1    0    0    0    0  0.00000000000E+00  0.00000000000E+00  0.45593999997E+02  0.45594000000E+02  0.51100000000E-03 0.  1.
         11   -1    0    0    0    0 -0.00000000000E+00 -0.00000000000E+00 -0.45593999997E+02  0.45594000000E+02  0.51100000000E-03 0. -1.
    9900012    2    1    2    0    0 -0.23737112598E+02  0.21478438414E+02  0.29306133568E+02  0.47787270790E+02  0.19999998842E+02 0.  0.
         12    1    1    2    0    0  0.23737112598E+02 -0.21478438414E+02 -0.29306133568E+02  0.43400729210E+02  0.00000000000E+00 0. -1.
         11    1    3    3    0    0 -0.67935105925E+01  0.83662190053E+01  0.20718426631E+01  0.10974422030E+02  0.51100000000E-03 0. -1.
        -11    1    3    3    0    0 -0.13941535155E+02  0.15557164171E+02  0.23284367291E+02  0.31281840098E+02  0.51100000000E-03 0.  1.
        -12    1    3    3    0    0 -0.30020668506E+01 -0.24449447619E+01  0.39499236142E+01  0.55310086623E+01  0.00000000000E+00 0.  1.
</event>
<event>
 7    1  0.2751796E-010  0.4778727E+02  0.7816164E-02  0.1312668E+00
        -11   -1    0    0    0    0  0.00000000000E+00  0.00000000000E+00  0.45593999997E+02  0.45594000000E+02  0.51100000000E-03 0.  1.
         11   -1    0    0    0    0 -0.00000000000E+00 -0.00000000000E+00 -0.45593999997E+02  0.45594000000E+02  0.51100000000E-03 0. -1.
    9900012    2    1    2    0    0 -0.36252541821E+02  0.65759115234E+01  0.22937606475E+02  0.47787271991E+02  0.20000004318E+02 0.  0.
         12    1    1    2    0    0  0.36252541821E+02 -0.65759115234E+01 -0.22937606475E+02  0.43400728009E+02  0.00000000000E+00 0. -1.
         11    1    3    3    0    0 -0.63053043919E+01 -0.25813471236E+01  0.10770364530E+01  0.68978419980E+01  0.51100000000E-03 0. -1.
        -11    1    3    3    0    0 -0.20570796573E+02  0.15397663054E+01  0.19877784544E+02  0.28647074380E+02  0.51100000000E-03 0.  1.
        -12    1    3    3    0    0 -0.93764408567E+01  0.76174923416E+01  0.19827854783E+01  0.12242355613E+02  0.00000000000E+00 0.  1.
</event>
<event>
 7    1  0.2751796E-010  0.4778727E+02  0.7816164E-02  0.1312668E+00
        -11   -1    0    0    0    0  0.00000000000E+00  0.00000000000E+00  0.45593999997E+02  0.45594000000E+02  0.51100000000E-03 0. -1.
         11   -1    0    0    0    0 -0.00000000000E+00 -0.00000000000E+00 -0.45593999997E+02  0.45594000000E+02  0.51100000000E-03 0.  1.
    9900012    2    1    2    0    0 -0.14543350031E+01 -0.37619216729E+02 -0.21594044685E+02  0.47787270473E+02  0.19999997395E+02 0.  0.
         12    1    1    2    0    0  0.14543350031E+01  0.37619216729E+02  0.21594044685E+02  0.43400729527E+02  0.00000000000E+00 0. -1.
         11    1    3    3    0    0 -0.90758913685E+01 -0.19051979453E+02 -0.16817189285E+02  0.26984580429E+02  0.51100000000E-03 0. -1.
        -11    1    3    3    0    0  0.10552764423E+01 -0.55653661305E+01 -0.17152988704E+01  0.59185436564E+01  0.51100000000E-03 0.  1.
         12    1    3    3    0    0  0.65662799231E+01 -0.13001871146E+02 -0.30615565296E+01  0.14884146388E+02  0.00000000000E+00 0. -1.
</event>
<event>
 7    1  0.2751796E-010  0.4778727E+02  0.7816164E-02  0.1312668E+00
        -11   -1    0    0    0    0  0.00000000000E+00  0.00000000000E+00  0.45593999997E+02  0.45594000000E+02  0.51100000000E-03 0. -1.
         11   -1    0    0    0    0 -0.00000000000E+00 -0.00000000000E+00 -0.45593999997E+02  0.45594000000E+02  0.51100000000E-03 0.  1.
    9900012    2    1    2    0    0  0.18804376542E+02  0.13147384250E+01 -0.39093351825E+02  0.47787271076E+02  0.20000000143E+02 0.  0.
         12    1    1    2    0    0 -0.18804376542E+02 -0.13147384250E+01  0.39093351825E+02  0.43400728924E+02  0.00000000000E+00 0. -1.
         11    1    3    3    0    0  0.15554001893E+02 -0.26183639038E+01 -0.15434316458E+02  0.22068097544E+02  0.51100000000E-03 0. -1.
        -11    1    3    3    0    0  0.22194340475E+01 -0.24375646742E+01 -0.11375274494E+02  0.11843330575E+02  0.51100000000E-03 0.  1.
         12    1    3    3    0    0  0.10309406014E+01  0.63706670031E+01 -0.12283760872E+02  0.13875842956E+02  0.00000000000E+00 0. -1.
</event>
<event>
 7    1  0.2751796E-010  0.4778727E+02  0.7816164E-02  0.1312668E+00
        -11   -1    0    0    0    0  0.00000000000E+00  0.00000000000E+00  0.45593999997E+02  0.45594000000E+02  0.51100000000E-03 0.  1.
         11   -1    0    0    0    0 -0.00000000000E+00 -0.00000000000E+00 -0.45593999997E+02  0.45594000000E+02  0.51100000000E-03 0. -1.
    9900012    2    1    2    0    0  0.62996172611E+01  0.76092872980E+01  0.42261529082E+02  0.47787271076E+02  0.20000000144E+02 0.  0.
         12    1    1    2    0    0 -0.62996172611E+01 -0.76092872980E+01 -0.42261529082E+02  0.43400728924E+02  0.00000000000E+00 0. -1.
         11    1    3    3    0    0 -0.24045156099E+01  0.53590233228E+01  0.66459747294E+01  0.88696001408E+01  0.51100000000E-03 0. -1.
        -11    1    3    3    0    0 -0.23548253211E+01  0.11775411020E+01  0.17272067344E+02  0.17471580236E+02  0.51100000000E-03 0.  1.
        -12    1    3    3    0    0  0.11058958192E+02  0.10727228732E+01  0.18343487008E+02  0.21446090699E+02  0.00000000000E+00 0.  1.
</event>
<event>
 7    1  0.2751796E-010  0.4778726E+02  0.7816164E-02  0.1312668E+00
        -11   -1    0    0    0    0  0.00000000000E+00  0.00000000000E+00  0.45593999997E+02  0.45594000000E+02  0.51100000000E-03 0.  1.
         11   -1    0    0    0    0 -0.00000000000E+00 -0.00000000000E+00 -0.45593999997E+02  0.45594000000E+02  0.51100000000E-03 0. -1.
    9900012    2    1    2    0    0  0.26461529796E+01  0.40303156631E+02  0.15883255717E+02  0.47787258391E+02  0.19999942309E+02 0.  0.
         12    1    1    2    0    0 -0.26461529796E+01 -0.40303156631E+02 -0.15883255717E+02  0.43400741609E+02  0.00000000000E+00 0. -1.
         11    1    3    3    0    0  0.64873811467E+01  0.14833949096E+02  0.62988530816E+00  0.16202744079E+02  0.51100000000E-03 0. -1.
        -11    1    3    3    0    0 -0.29186776597E+01  0.25673162433E+02  0.15990393004E+02  0.30386224137E+02  0.51100000000E-03 0.  1.
         12    1    3    3    0    0 -0.92255050732E+00 -0.20395489880E+00 -0.73702259440E+00  0.11982901752E+01  0.00000000000E+00 0. -1.
</event>
<event>
 7    1  0.2751796E-010  0.4778728E+02  0.7816164E-02  0.1312668E+00
        -11   -1    0    0    0    0  0.00000000000E+00  0.00000000000E+00  0.45593999997E+02  0.45594000000E+02  0.51100000000E-03 0.  1.
         11   -1    0    0    0    0 -0.00000000000E+00 -0.00000000000E+00 -0.45593999997E+02  0.45594000000E+02  0.51100000000E-03 0. -1.
    9900012    2    1    2    0    0  0.28306844639E+02 -0.31350203407E+02 -0.99754694049E+01  0.47787277692E+02  0.20000030308E+02 0.  0.
         12    1    1    2    0    0 -0.28306844639E+02  0.31350203407E+02  0.99754694049E+01  0.43400722308E+02  0.00000000000E+00 0. -1.
         11    1    3    3    0    0  0.33999998590E+01  0.13413158492E+01 -0.32091314022E+01  0.48639132256E+01  0.51100000000E-03 0. -1.
        -11    1    3    3    0    0  0.92673508661E+01 -0.50655667324E+01 -0.55674910877E+00  0.10576092295E+02  0.51100000000E-03 0.  1.
         12    1    3    3    0    0  0.15639493913E+02 -0.27625952523E+02 -0.62095888939E+01  0.32347272171E+02  0.00000000000E+00 0. -1.
</event>
<event>
 7    1  0.2751796E-010  0.4778727E+02  0.7816164E-02  0.1312668E+00
        -11   -1    0    0    0    0  0.00000000000E+00  0.00000000000E+00  0.45593999997E+02  0.45594000000E+02  0.51100000000E-03 0.  1.
         11   -1    0    0    0    0 -0.00000000000E+00 -0.00000000000E+00 -0.45593999997E+02  0.45594000000E+02  0.51100000000E-03 0. -1.
    9900012    2    1    2    0    0  0.31543031865E+02 -0.43737524489E+01  0.29487805952E+02  0.47787271093E+02  0.20000000223E+02 0.  0.
         12    1    1    2    0    0 -0.31543031865E+02  0.43737524489E+01 -0.29487805952E+02  0.43400728907E+02  0.00000000000E+00 0. -1.
         11    1    3    3    0    0  0.57287176350E+00  0.28712257024E+01 -0.15513684090E+00  0.29319254411E+01  0.51100000000E-03 0. -1.
        -11    1    3    3    0    0  0.30268372125E+02 -0.57416522320E+01  0.24232844443E+02  0.39196577293E+02  0.51100000000E-03 0.  1.
         12    1    3    3    0    0  0.70178797691E+00 -0.15033259192E+01  0.54100983500E+01  0.56587683590E+01  0.00000000000E+00 0. -1.
</event>
<event>
 7    1  0.2751796E-010  0.4778727E+02  0.7816164E-02  0.1312668E+00
        -11   -1    0    0    0    0  0.00000000000E+00  0.00000000000E+00  0.45593999997E+02  0.45594000000E+02  0.51100000000E-03 0.  1.
         11   -1    0    0    0    0 -0.00000000000E+00 -0.00000000000E+00 -0.45593999997E+02  0.45594000000E+02  0.51100000000E-03 0. -1.
    9900012    2    1    2    0    0  0.27728100521E+02 -0.26508969989E+02  0.20299014893E+02  0.47787273577E+02  0.20000011547E+02 0.  0.
         12    1    1    2    0    0 -0.27728100521E+02  0.26508969989E+02 -0.20299014893E+02  0.43400726423E+02  0.00000000000E+00 0. -1.
         11    1    3    3    0    0  0.60448891476E+01 -0.23814661135E+01 -0.31703190309E+01  0.72293145370E+01  0.51100000000E-03 0. -1.
        -11    1    3    3    0    0  0.14204958866E+02 -0.17958002794E+02  0.13173471903E+02  0.26416114078E+02  0.51100000000E-03 0.  1.
        -12    1    3    3    0    0  0.74782525080E+01 -0.61695010814E+01  0.10295862021E+02  0.14141844962E+02  0.00000000000E+00 0.  1.
</event>
<event>
 7    1  0.2751796E-010  0.4778728E+02  0.7816164E-02  0.1312668E+00
        -11   -1    0    0    0    0  0.00000000000E+00  0.00000000000E+00  0.45593999997E+02  0.45594000000E+02  0.51100000000E-03 0. -1.
         11   -1    0    0    0    0 -0.00000000000E+00 -0.00000000000E+00 -0.45593999997E+02  0.45594000000E+02  0.51100000000E-03 0.  1.
    9900012    2    1    2    0    0  0.24437412793E+02 -0.35314770000E+02  0.62691790648E+01  0.47787277306E+02  0.20000028550E+02 0.  0.
         12    1    1    2    0    0 -0.24437412793E+02  0.35314770000E+02 -0.62691790648E+01  0.43400722694E+02  0.00000000000E+00 0. -1.
         11    1    3    3    0    0 -0.60819182828E+00  0.11218743871E+01 -0.67433164063E+00  0.14433374044E+01  0.51100000000E-03 0. -1.
        -11    1    3    3    0    0  0.12882145009E+02 -0.25814993626E+02  0.86145298229E+01  0.30109362004E+02  0.51100000000E-03 0.  1.
        -12    1    3    3    0    0  0.12163459612E+02 -0.10621650761E+02 -0.16710191175E+01  0.16234577898E+02  0.00000000000E+00 0.  1.
</event>
<event>
 7    1  0.2751796E-010  0.4778727E+02  0.7816164E-02  0.1312668E+00
        -11   -1    0    0    0    0  0.00000000000E+00  0.00000000000E+00  0.45593999997E+02  0.45594000000E+02  0.51100000000E-03 0.  1.
         11   -1    0    0    0    0 -0.00000000000E+00 -0.00000000000E+00 -0.45593999997E+02  0.45594000000E+02  0.51100000000E-03 0. -1.
    9900012    2    1    2    0    0  0.10600021694E+02  0.27192808427E+02  0.32121861844E+02  0.47787270762E+02  0.19999998712E+02 0.  0.
         12    1    1    2    0    0 -0.10600021694E+02 -0.27192808427E+02 -0.32121861844E+02  0.43400729238E+02  0.00000000000E+00 0. -1.
         11    1    3    3    0    0  0.55899888127E+01 -0.60805682375E-01  0.12316249770E+02  0.13525593552E+02  0.51100000000E-03 0. -1.
        -11    1    3    3    0    0  0.38413699268E+01  0.18672704501E+02  0.15606846917E+02  0.24637363642E+02  0.51100000000E-03 0.  1.
         12    1    3    3    0    0  0.11686629550E+01  0.85809096087E+01  0.41987651565E+01  0.96243135680E+01  0.00000000000E+00 0. -1.
</event>
<event>
 7    1  0.2751796E-010  0.4778728E+02  0.7816164E-02  0.1312668E+00
        -11   -1    0    0    0    0  0.00000000000E+00  0.00000000000E+00  0.45593999997E+02  0.45594000000E+02  0.51100000000E-03 0. -1.
         11   -1    0    0    0    0 -0.00000000000E+00 -0.00000000000E+00 -0.45593999997E+02  0.45594000000E+02  0.51100000000E-03 0.  1.
    9900012    2    1    2    0    0  0.58992944323E+01  0.32262656110E+02 -0.28424323745E+02  0.47787276107E+02  0.20000023084E+02 0.  0.
         12    1    1    2    0    0 -0.58992944323E+01 -0.32262656110E+02  0.28424323745E+02  0.43400723893E+02  0.00000000000E+00 0. -1.
         11    1    3    3    0    0  0.21540782591E+01  0.45711725280E+00 -0.28024668506E+00  0.22198080536E+01  0.51100000000E-03 0. -1.
        -11    1    3    3    0    0  0.16130144439E+01 -0.28023672655E+00  0.12036728587E+01  0.20320376057E+01  0.51100000000E-03 0.  1.
        -12    1    3    3    0    0  0.21322017293E+01  0.32085775584E+02 -0.29347749918E+02  0.43535430448E+02  0.00000000000E+00 0.  1.
</event>
<event>
 7    1  0.2751796E-010  0.4778727E+02  0.7816164E-02  0.1312668E+00
        -11   -1    0    0    0    0  0.00000000000E+00  0.00000000000E+00  0.45593999997E+02  0.45594000000E+02  0.51100000000E-03 0.  1.
         11   -1    0    0    0    0 -0.00000000000E+00 -0.00000000000E+00 -0.45593999997E+02  0.45594000000E+02  0.51100000000E-03 0. -1.
    9900012    2    1    2    0    0  0.13408636941E+02  0.74688431999E+01  0.40596160838E+02  0.47787269152E+02  0.19999991371E+02 0.  0.
         12    1    1    2    0    0 -0.13408636941E+02 -0.74688431999E+01 -0.40596160838E+02  0.43400730848E+02  0.00000000000E+00 0. -1.
         11    1    3    3    0    0  0.15877245438E+02  0.48192274948E+01  0.20463258744E+02  0.26344958437E+02  0.51100000000E-03 0. -1.
        -11    1    3    3    0    0 -0.11702942725E+01 -0.17014871370E+01  0.11541583646E+02  0.11724879551E+02  0.51100000000E-03 0.  1.
         12    1    3    3    0    0 -0.12983142239E+01  0.43511028421E+01  0.85913184477E+01  0.97174311645E+01  0.00000000000E+00 0. -1.
</event>
<event>
 7    1  0.2751796E-010  0.4778726E+02  0.7816164E-02  0.1312668E+00
        -11   -1    0    0    0    0  0.00000000000E+00  0.00000000000E+00  0.45593999997E+02  0.45594000000E+02  0.51100000000E-03 0. -1.
         11   -1    0    0    0    0 -0.00000000000E+00 -0.00000000000E+00 -0.45593999997E+02  0.45594000000E+02  0.51100000000E-03 0.  1.
    9900012    2    1    2    0    0  0.15095722167E+02 -0.36020161074E+02 -0.18928580557E+02  0.47787262754E+02  0.19999962202E+02 0.  0.
         12    1    1    2    0    0 -0.15095722167E+02  0.36020161074E+02  0.18928580557E+02  0.43400737246E+02  0.00000000000E+00 0. -1.
         11    1    3    3    0    0 -0.17242215211E+01 -0.13813392285E+02 -0.74205161542E+01  0.15774878970E+02  0.51100000000E-03 0. -1.
        -11    1    3    3    0    0  0.74025954049E+01 -0.33249158673E+01 -0.63151826207E+01  0.10282753330E+02  0.51100000000E-03 0.  1.
        -12    1    3    3    0    0  0.94173482831E+01 -0.18881852922E+02 -0.51928817821E+01  0.21729630454E+02  0.00000000000E+00 0.  1.
</event>
<event>
 7    1  0.2751796E-010  0.4778727E+02  0.7816164E-02  0.1312668E+00
        -11   -1    0    0    0    0  0.00000000000E+00  0.00000000000E+00  0.45593999997E+02  0.45594000000E+02  0.51100000000E-03 0. -1.
         11   -1    0    0    0    0 -0.00000000000E+00 -0.00000000000E+00 -0.45593999997E+02  0.45594000000E+02  0.51100000000E-03 0.  1.
    9900012    2    1    2    0    0 -0.26126451336E+02  0.21362938550E+02 -0.27288401878E+02  0.47787268670E+02  0.19999989176E+02 0.  0.
         12    1    1    2    0    0  0.26126451336E+02 -0.21362938550E+02  0.27288401878E+02  0.43400731330E+02  0.00000000000E+00 0. -1.
         11    1    3    3    0    0 -0.10448079736E+02  0.17997461820E+02 -0.88763309597E+01  0.22624328801E+02  0.51100000000E-03 0. -1.
        -11    1    3    3    0    0 -0.96706952416E+01  0.33567002598E+01 -0.15268472759E+02  0.18382492860E+02  0.51100000000E-03 0.  1.
        -12    1    3    3    0    0 -0.60076763585E+01  0.87764694998E-02 -0.31435981586E+01  0.67804470087E+01  0.00000000000E+00 0.  1.
</event>
<event>
 7    1  0.2751796E-010  0.4778726E+02  0.7816164E-02  0.1312668E+00
        -11   -1    0    0    0    0  0.00000000000E+00  0.00000000000E+00  0.45593999997E+02  0.45594000000E+02  0.51100000000E-03 0.  1.
         11   -1    0    0    0    0 -0.00000000000E+00 -0.00000000000E+00 -0.45593999997E+02  0.45594000000E+02  0.51100000000E-03 0. -1.
    9900012    2    1    2    0    0 -0.14286184334E+02 -0.38034328026E+02  0.15261676512E+02  0.47787263357E+02  0.19999964949E+02 0.  0.
         12    1    1    2    0    0  0.14286184334E+02  0.38034328026E+02 -0.15261676512E+02  0.43400736643E+02  0.00000000000E+00 0. -1.
         11    1    3    3    0    0 -0.54825343569E+01 -0.72217260343E+01 -0.12980381763E+01  0.91594985265E+01  0.51100000000E-03 0. -1.
        -11    1    3    3    0    0 -0.50647195730E+01 -0.30533687348E+02  0.15983852295E+02  0.34834479784E+02  0.51100000000E-03 0.  1.
        -12    1    3    3    0    0 -0.37389304041E+01 -0.27891464426E+00  0.57586239309E+00  0.37932850461E+01  0.00000000000E+00 0.  1.
</event>
<event>
 7    1  0.2751796E-010  0.4778727E+02  0.7816164E-02  0.1312668E+00
        -11   -1    0    0    0    0  0.00000000000E+00  0.00000000000E+00  0.45593999997E+02  0.45594000000E+02  0.51100000000E-03 0.  1.
         11   -1    0    0    0    0 -0.00000000000E+00 -0.00000000000E+00 -0.45593999997E+02  0.45594000000E+02  0.51100000000E-03 0. -1.
    9900012    2    1    2    0    0  0.18051421835E+02  0.32872697392E+02  0.21843880401E+02  0.47787272183E+02  0.20000005191E+02 0.  0.
         12    1    1    2    0    0 -0.18051421835E+02 -0.32872697392E+02 -0.21843880401E+02  0.43400727817E+02  0.00000000000E+00 0. -1.
         11    1    3    3    0    0  0.10407389096E+02  0.21439911362E+02  0.19008707600E+02  0.30484660272E+02  0.51100000000E-03 0.  1.
        -11    1    3    3    0    0  0.49598408099E+01  0.10942930414E+02  0.57417676362E+01  0.13315991993E+02  0.51100000000E-03 0. -1.
         12    1    3    3    0    0  0.26841919290E+01  0.48985561593E+00 -0.29065948351E+01  0.39866199182E+01  0.00000000000E+00 0. -1.
</event>
<event>
 7    1  0.2751796E-010  0.4778727E+02  0.7816164E-02  0.1312668E+00
        -11   -1    0    0    0    0  0.00000000000E+00  0.00000000000E+00  0.45593999997E+02  0.45594000000E+02  0.51100000000E-03 0.  1.
         11   -1    0    0    0    0 -0.00000000000E+00 -0.00000000000E+00 -0.45593999997E+02  0.45594000000E+02  0.51100000000E-03 0. -1.
    9900012    2    1    2    0    0 -0.33788212792E+02  0.98347960975E+01  0.25401903131E+02  0.47787271658E+02  0.20000002797E+02 0.  0.
         12    1    1    2    0    0  0.33788212792E+02 -0.98347960975E+01 -0.25401903131E+02  0.43400728342E+02  0.00000000000E+00 0. -1.
         11    1    3    3    0    0 -0.20386608425E+01 -0.29511482486E+01 -0.67274139783E+00  0.36493828609E+01  0.51100000000E-03 0. -1.
        -11    1    3    3    0    0 -0.28487379299E+02  0.14444903761E+02  0.23743594401E+02  0.39798797712E+02  0.51100000000E-03 0.  1.
        -12    1    3    3    0    0 -0.32621726504E+01 -0.16589594153E+01  0.23310501278E+01  0.43390910847E+01  0.00000000000E+00 0.  1.
</event>
<event>
 7    1  0.2751796E-010  0.4778727E+02  0.7816164E-02  0.1312668E+00
        -11   -1    0    0    0    0  0.00000000000E+00  0.00000000000E+00  0.45593999997E+02  0.45594000000E+02  0.51100000000E-03 0.  1.
         11   -1    0    0    0    0 -0.00000000000E+00 -0.00000000000E+00 -0.45593999997E+02  0.45594000000E+02  0.51100000000E-03 0. -1.
    9900012    2    1    2    0    0  0.65491877961E+01  0.22664064077E+02  0.36428996842E+02  0.47787268760E+02  0.19999989586E+02 0.  0.
         12    1    1    2    0    0 -0.65491877961E+01 -0.22664064077E+02 -0.36428996842E+02  0.43400731240E+02  0.00000000000E+00 0. -1.
         11    1    3    3    0    0 -0.11376581650E+01 -0.14087011511E+01 -0.30354332644E+00  0.18359857967E+01  0.51100000000E-03 0. -1.
        -11    1    3    3    0    0  0.57260007338E+01  0.24183271569E+02  0.30097844517E+02  0.39032011900E+02  0.51100000000E-03 0.  1.
         12    1    3    3    0    0  0.19608452273E+01 -0.11050634163E+00  0.66346956515E+01  0.69192710631E+01  0.00000000000E+00 0. -1.
</event>
<event>
 7    1  0.2751796E-010  0.4778722E+02  0.7816164E-02  0.1312668E+00
        -11   -1    0    0    0    0  0.00000000000E+00  0.00000000000E+00  0.45593999997E+02  0.45594000000E+02  0.51100000000E-03 0. -1.
         11   -1    0    0    0    0 -0.00000000000E+00 -0.00000000000E+00 -0.45593999997E+02  0.45594000000E+02  0.51100000000E-03 0.  1.
    9900012    2    1    2    0    0  0.17539222029E+02  0.46983337732E+01 -0.39419901876E+02  0.47787224505E+02  0.19999787809E+02 0.  0.
         12    1    1    2    0    0 -0.17539222029E+02 -0.46983337732E+01  0.39419901876E+02  0.43400775495E+02  0.00000000000E+00 0. -1.
         11    1    3    3    0    0  0.16094409204E+01  0.57220969351E+01 -0.29928691413E+01  0.66550702002E+01  0.51100000000E-03 0. -1.
        -11    1    3    3    0    0  0.13323769831E+02 -0.34802626078E+01 -0.19762620570E+02  0.24087263073E+02  0.51100000000E-03 0.  1.
         12    1    3    3    0    0  0.26060112777E+01  0.24564994460E+01 -0.16664412165E+02  0.17044891232E+02  0.00000000000E+00 0. -1.
</event>
<event>
 7    1  0.2751796E-010  0.4778727E+02  0.7816164E-02  0.1312668E+00
        -11   -1    0    0    0    0  0.00000000000E+00  0.00000000000E+00  0.45593999997E+02  0.45594000000E+02  0.51100000000E-03 0. -1.
         11   -1    0    0    0    0 -0.00000000000E+00 -0.00000000000E+00 -0.45593999997E+02  0.45594000000E+02  0.51100000000E-03 0.  1.
    9900012    2    1    2    0    0  0.22061934375E+02 -0.32872645925E+02  0.17784360327E+02  0.47787271081E+02  0.20000000166E+02 0.  0.
         12    1    1    2    0    0 -0.22061934375E+02  0.32872645925E+02 -0.17784360327E+02  0.43400728919E+02  0.00000000000E+00 0. -1.
         11    1    3    3    0    0  0.72539079322E+01 -0.18250752051E+02  0.17755088850E+02  0.26475503981E+02  0.51100000000E-03 0. -1.
        -11    1    3    3    0    0  0.13544639234E+02 -0.11350808921E+02 -0.86442710262E+00  0.17693087622E+02  0.51100000000E-03 0.  1.
         12    1    3    3    0    0  0.12633872089E+01 -0.32710849527E+01  0.89369857959E+00  0.36186794772E+01  0.00000000000E+00 0. -1.
</event>
<event>
 7    1  0.2751796E-010  0.4778726E+02  0.7816164E-02  0.1312668E+00
        -11   -1    0    0    0    0  0.00000000000E+00  0.00000000000E+00  0.45593999997E+02  0.45594000000E+02  0.51100000000E-03 0.  1.
         11   -1    0    0    0    0 -0.00000000000E+00 -0.00000000000E+00 -0.45593999997E+02  0.45594000000E+02  0.51100000000E-03 0. -1.
    9900012    2    1    2    0    0 -0.36701090722E+02 -0.15549920402E+02  0.17171307746E+02  0.47787263895E+02  0.19999967404E+02 0.  0.
         12    1    1    2    0    0  0.36701090722E+02  0.15549920402E+02 -0.17171307746E+02  0.43400736105E+02  0.00000000000E+00 0. -1.
         11    1    3    3    0    0 -0.11378521086E+02 -0.11901920811E+02 -0.64981829111E+00  0.16478735545E+02  0.51100000000E-03 0. -1.
        -11    1    3    3    0    0 -0.17198927458E+02 -0.31075994529E+01  0.10704635029E+02  0.20495108964E+02  0.51100000000E-03 0.  1.
         12    1    3    3    0    0 -0.81236421784E+01 -0.54040013732E+00  0.71164910080E+01  0.10813419386E+02  0.00000000000E+00 0. -1.
</event>
<event>
 7    1  0.2751796E-010  0.4778727E+02  0.7816164E-02  0.1312668E+00
        -11   -1    0    0    0    0  0.00000000000E+00  0.00000000000E+00  0.45593999997E+02  0.45594000000E+02  0.51100000000E-03 0. -1.
         11   -1    0    0    0    0 -0.00000000000E+00 -0.00000000000E+00 -0.45593999997E+02  0.45594000000E+02  0.51100000000E-03 0.  1.
    9900012    2    1    2    0    0 -0.41283169470E+02 -0.15859035863E+01  0.13296920752E+02  0.47787271053E+02  0.20000000037E+02 0.  0.
         12    1    1    2    0    0  0.41283169470E+02  0.15859035863E+01 -0.13296920752E+02  0.43400728947E+02  0.00000000000E+00 0. -1.
         11    1    3    3    0    0 -0.22042414579E+02  0.61481699493E+01  0.47370048353E+00  0.22888696481E+02  0.51100000000E-03 0. -1.
        -11    1    3    3    0    0 -0.15197076459E+02 -0.37611208328E+01  0.89558708085E+01  0.18036207612E+02  0.51100000000E-03 0.  1.
         12    1    3    3    0    0 -0.40436784321E+01 -0.39729527028E+01  0.38673494599E+01  0.68623669594E+01  0.00000000000E+00 0. -1.
</event>
<event>
 7    1  0.2751796E-010  0.4778727E+02  0.7816164E-02  0.1312668E+00
        -11   -1    0    0    0    0  0.00000000000E+00  0.00000000000E+00  0.45593999997E+02  0.45594000000E+02  0.51100000000E-03 0.  1.
         11   -1    0    0    0    0 -0.00000000000E+00 -0.00000000000E+00 -0.45593999997E+02  0.45594000000E+02  0.51100000000E-03 0. -1.
    9900012    2    1    2    0    0  0.11455326189E+02 -0.16281137080E+02  0.38565828893E+02  0.47787273268E+02  0.20000010137E+02 0.  0.
         12    1    1    2    0    0 -0.11455326189E+02  0.16281137080E+02 -0.38565828893E+02  0.43400726732E+02  0.00000000000E+00 0. -1.
         11    1    3    3    0    0  0.24414459030E+01 -0.11817886833E+01  0.20054724796E+02  0.20237323675E+02  0.51100000000E-03 0. -1.
        -11    1    3    3    0    0  0.30947018080E+01 -0.13570697413E+02  0.15150621921E+02  0.20573826878E+02  0.51100000000E-03 0.  1.
        -12    1    3    3    0    0  0.59191784780E+01 -0.15286509835E+01  0.33604821751E+01  0.69761227149E+01  0.00000000000E+00 0.  1.
</event>
<event>
 7    1  0.2751796E-010  0.4778727E+02  0.7816164E-02  0.1312668E+00
        -11   -1    0    0    0    0  0.00000000000E+00  0.00000000000E+00  0.45593999997E+02  0.45594000000E+02  0.51100000000E-03 0.  1.
         11   -1    0    0    0    0 -0.00000000000E+00 -0.00000000000E+00 -0.45593999997E+02  0.45594000000E+02  0.51100000000E-03 0. -1.
    9900012    2    1    2    0    0  0.11117355252E+02 -0.17046459309E+02  0.38333349314E+02  0.47787273826E+02  0.20000012682E+02 0.  0.
         12    1    1    2    0    0 -0.11117355252E+02  0.17046459309E+02 -0.38333349314E+02  0.43400726174E+02  0.00000000000E+00 0. -1.
         11    1    3    3    0    0 -0.31697643761E+01  0.21342401762E+01  0.38422635526E+01  0.54189830040E+01  0.51100000000E-03 0. -1.
        -11    1    3    3    0    0  0.94467716314E+01 -0.79157454091E+01  0.18144273772E+02  0.21934338162E+02  0.51100000000E-03 0.  1.
         12    1    3    3    0    0  0.48403479969E+01 -0.11264954076E+02  0.16346811990E+02  0.20433952660E+02  0.00000000000E+00 0. -1.
</event>
<event>
 7    1  0.2751796E-010  0.4778727E+02  0.7816164E-02  0.1312668E+00
        -11   -1    0    0    0    0  0.00000000000E+00  0.00000000000E+00  0.45593999997E+02  0.45594000000E+02  0.51100000000E-03 0.  1.
         11   -1    0    0    0    0 -0.00000000000E+00 -0.00000000000E+00 -0.45593999997E+02  0.45594000000E+02  0.51100000000E-03 0. -1.
    9900012    2    1    2    0    0 -0.28467739702E+02  0.21637469594E+01  0.32688360886E+02  0.47787274867E+02  0.20000017430E+02 0.  0.
         12    1    1    2    0    0  0.28467739702E+02 -0.21637469594E+01 -0.32688360886E+02  0.43400725133E+02  0.00000000000E+00 0. -1.
         11    1    3    3    0    0 -0.13769574111E+02 -0.54886050736E+00  0.39035806137E+01  0.14322721841E+02  0.51100000000E-03 0. -1.
        -11    1    3    3    0    0 -0.15166458857E+02  0.33653973337E+01  0.23841144236E+02  0.28456063189E+02  0.51100000000E-03 0.  1.
        -12    1    3    3    0    0  0.46829326626E+00 -0.65278986698E+00  0.49436360363E+01  0.50084898376E+01  0.00000000000E+00 0.  1.
</event>
<event>
 7    1  0.2751796E-010  0.4778726E+02  0.7816164E-02  0.1312668E+00
        -11   -1    0    0    0    0  0.00000000000E+00  0.00000000000E+00  0.45593999997E+02  0.45594000000E+02  0.51100000000E-03 0.  1.
         11   -1    0    0    0    0 -0.00000000000E+00 -0.00000000000E+00 -0.45593999997E+02  0.45594000000E+02  0.51100000000E-03 0. -1.
    9900012    2    1    2    0    0  0.29042654238E+02 -0.29228356838E+02  0.13632725918E+02  0.47787264699E+02  0.19999971070E+02 0.  0.
         12    1    1    2    0    0 -0.29042654238E+02  0.29228356838E+02 -0.13632725918E+02  0.43400735301E+02  0.00000000000E+00 0. -1.
         11    1    3    3    0    0  0.26902878452E+02 -0.25165983094E+02  0.70133746655E+01  0.37500386645E+02  0.51100000000E-03 0. -1.
        -11    1    3    3    0    0  0.18021126361E+01 -0.31265287131E+01  0.78882089281E+01  0.86744816618E+01  0.51100000000E-03 0.  1.
         12    1    3    3    0    0  0.33766315065E+00 -0.93584503074E+00 -0.12688576752E+01  0.16123963920E+01  0.00000000000E+00 0. -1.
</event>
<event>
 7    1  0.2751796E-010  0.4778727E+02  0.7816164E-02  0.1312668E+00
        -11   -1    0    0    0    0  0.00000000000E+00  0.00000000000E+00  0.45593999997E+02  0.45594000000E+02  0.51100000000E-03 0. -1.
         11   -1    0    0    0    0 -0.00000000000E+00 -0.00000000000E+00 -0.45593999997E+02  0.45594000000E+02  0.51100000000E-03 0.  1.
    9900012    2    1    2    0    0 -0.34834177647E+02 -0.23701886721E+02 -0.10412671116E+02  0.47787273206E+02  0.20000009855E+02 0.  0.
         12    1    1    2    0    0  0.34834177647E+02  0.23701886721E+02  0.10412671116E+02  0.43400726794E+02  0.00000000000E+00 0. -1.
         11    1    3    3    0    0 -0.13843592009E+01 -0.60785392299E+01 -0.53539866339E+01  0.82176798856E+01  0.51100000000E-03 0. -1.
        -11    1    3    3    0    0 -0.19012831954E+02 -0.13229192456E+02 -0.73612163514E+01  0.24304049424E+02  0.51100000000E-03 0.  1.
         12    1    3    3    0    0 -0.14436986492E+02 -0.43941550349E+01  0.23025318691E+01  0.15265543896E+02  0.00000000000E+00 0. -1.
</event>
<event>
 7    1  0.2751796E-010  0.4778727E+02  0.7816164E-02  0.1312668E+00
        -11   -1    0    0    0    0  0.00000000000E+00  0.00000000000E+00  0.45593999997E+02  0.45594000000E+02  0.51100000000E-03 0. -1.
         11   -1    0    0    0    0 -0.00000000000E+00 -0.00000000000E+00 -0.45593999997E+02  0.45594000000E+02  0.51100000000E-03 0.  1.
    9900012    2    1    2    0    0  0.29168450250E+02  0.31402799784E+02 -0.68329305479E+01  0.47787271156E+02  0.20000000509E+02 0.  0.
         12    1    1    2    0    0 -0.29168450250E+02 -0.31402799784E+02  0.68329305479E+01  0.43400728844E+02  0.00000000000E+00 0. -1.
         11    1    3    3    0    0 -0.26350884975E+01  0.35773820277E+01 -0.43587418165E+00  0.44644529481E+01  0.51100000000E-03 0. -1.
        -11    1    3    3    0    0  0.19461345390E+02  0.16011596781E+02 -0.72283712027E+01  0.26217638078E+02  0.51100000000E-03 0.  1.
         12    1    3    3    0    0  0.12342193358E+02  0.11813820975E+02  0.83131483648E+00  0.17105180130E+02  0.00000000000E+00 0. -1.
</event>
<event>
 7    1  0.2751796E-010  0.4778727E+02  0.7816164E-02  0.1312668E+00
        -11   -1    0    0    0    0  0.00000000000E+00  0.00000000000E+00  0.45593999997E+02  0.45594000000E+02  0.51100000000E-03 0.  1.
         11   -1    0    0    0    0 -0.00000000000E+00 -0.00000000000E+00 -0.45593999997E+02  0.45594000000E+02  0.51100000000E-03 0. -1.
    9900012    2    1    2    0    0 -0.13397878031E+02  0.19713731727E+02  0.36269670291E+02  0.47787270313E+02  0.19999996666E+02 0.  0.
         12    1    1    2    0    0  0.13397878031E+02 -0.19713731727E+02 -0.36269670291E+02  0.43400729687E+02  0.00000000000E+00 0. -1.
         11    1    3    3    0    0 -0.11209283024E+02  0.57430527659E+01  0.96497573682E+01  0.15866584337E+02  0.51100000000E-03 0. -1.
        -11    1    3    3    0    0 -0.23141709666E+01  0.15683888794E+02  0.24637608902E+02  0.29297636895E+02  0.51100000000E-03 0.  1.
        -12    1    3    3    0    0  0.12557595916E+00 -0.17132098333E+01  0.19823040202E+01  0.26230490813E+01  0.00000000000E+00 0.  1.
</event>
<event>
 7    1  0.2751796E-010  0.4778727E+02  0.7816164E-02  0.1312668E+00
        -11   -1    0    0    0    0  0.00000000000E+00  0.00000000000E+00  0.45593999997E+02  0.45594000000E+02  0.51100000000E-03 0. -1.
         11   -1    0    0    0    0 -0.00000000000E+00 -0.00000000000E+00 -0.45593999997E+02  0.45594000000E+02  0.51100000000E-03 0.  1.
    9900012    2    1    2    0    0  0.29208579617E+02 -0.30375989969E+02 -0.10381775952E+02  0.47787272336E+02  0.20000005889E+02 0.  0.
         12    1    1    2    0    0 -0.29208579617E+02  0.30375989969E+02  0.10381775952E+02  0.43400727664E+02  0.00000000000E+00 0. -1.
         11    1    3    3    0    0  0.25172958828E+02 -0.29177264146E+02 -0.43805517819E+01  0.38783757340E+02  0.51100000000E-03 0. -1.
        -11    1    3    3    0    0  0.15055523355E+01 -0.34815713248E+00 -0.61392411759E+01  0.63307332672E+01  0.51100000000E-03 0.  1.
        -12    1    3    3    0    0  0.25300684537E+01 -0.85056868995E+00  0.13801700597E+00  0.26727817289E+01  0.00000000000E+00 0.  1.
</event>
<event>
 7    1  0.2751796E-010  0.4778727E+02  0.7816164E-02  0.1312668E+00
        -11   -1    0    0    0    0  0.00000000000E+00  0.00000000000E+00  0.45593999997E+02  0.45594000000E+02  0.51100000000E-03 0. -1.
         11   -1    0    0    0    0 -0.00000000000E+00 -0.00000000000E+00 -0.45593999997E+02  0.45594000000E+02  0.51100000000E-03 0.  1.
    9900012    2    1    2    0    0  0.39326205965E+02 -0.13444795525E+02 -0.12502410595E+02  0.47787271055E+02  0.20000000047E+02 0.  0.
         12    1    1    2    0    0 -0.39326205965E+02  0.13444795525E+02  0.12502410595E+02  0.43400728945E+02  0.00000000000E+00 0. -1.
         11    1    3    3    0    0  0.11743285484E+02  0.43663382414E+00  0.31583944613E+01  0.12168436994E+02  0.51100000000E-03 0. -1.
        -11    1    3    3    0    0  0.11081634216E+02 -0.88569966201E+01 -0.10383712195E+02  0.17580400599E+02  0.51100000000E-03 0.  1.
        -12    1    3    3    0    0  0.16501286265E+02 -0.50244327295E+01 -0.52770928611E+01  0.18038433461E+02  0.00000000000E+00 0.  1.
</event>
<event>
 7    1  0.2751796E-010  0.4778727E+02  0.7816164E-02  0.1312668E+00
        -11   -1    0    0    0    0  0.00000000000E+00  0.00000000000E+00  0.45593999997E+02  0.45594000000E+02  0.51100000000E-03 0.  1.
         11   -1    0    0    0    0 -0.00000000000E+00 -0.00000000000E+00 -0.45593999997E+02  0.45594000000E+02  0.51100000000E-03 0. -1.
    9900012    2    1    2    0    0 -0.41061854234E+02 -0.39326792340E+01  0.13493752233E+02  0.47787272029E+02  0.20000004489E+02 0.  0.
         12    1    1    2    0    0  0.41061854234E+02  0.39326792340E+01 -0.13493752233E+02  0.43400727971E+02  0.00000000000E+00 0. -1.
         11    1    3    3    0    0 -0.14702593052E+02 -0.85962750834E+01  0.38025288732E+01  0.17450541936E+02  0.51100000000E-03 0. -1.
        -11    1    3    3    0    0 -0.13397730062E+02  0.39690589581E+01  0.10273560665E+02  0.17343547758E+02  0.51100000000E-03 0.  1.
         12    1    3    3    0    0 -0.12961531120E+02  0.69453689127E+00 -0.58233730546E+00  0.12993182335E+02  0.00000000000E+00 0. -1.
</event>
<event>
 7    1  0.2751796E-010  0.4778728E+02  0.7816164E-02  0.1312668E+00
        -11   -1    0    0    0    0  0.00000000000E+00  0.00000000000E+00  0.45593999997E+02  0.45594000000E+02  0.51100000000E-03 0.  1.
         11   -1    0    0    0    0 -0.00000000000E+00 -0.00000000000E+00 -0.45593999997E+02  0.45594000000E+02  0.51100000000E-03 0. -1.
    9900012    2    1    2    0    0  0.11346063368E+02 -0.35347259477E+02  0.22482455475E+02  0.47787277533E+02  0.20000029584E+02 0.  0.
         12    1    1    2    0    0 -0.11346063368E+02  0.35347259477E+02 -0.22482455475E+02  0.43400722467E+02  0.00000000000E+00 0. -1.
         11    1    3    3    0    0  0.12324002766E+01 -0.16448818905E+01  0.97083515132E+01  0.99235344631E+01  0.51100000000E-03 0. -1.
        -11    1    3    3    0    0  0.98279899871E+01 -0.31707839867E+02  0.13331818504E+02  0.35773088784E+02  0.51100000000E-03 0.  1.
         12    1    3    3    0    0  0.28567310410E+00 -0.19945377190E+01 -0.55771454202E+00  0.20906542864E+01  0.00000000000E+00 0. -1.
</event>
<event>
 7    1  0.2751796E-010  0.4778727E+02  0.7816164E-02  0.1312668E+00
        -11   -1    0    0    0    0  0.00000000000E+00  0.00000000000E+00  0.45593999997E+02  0.45594000000E+02  0.51100000000E-03 0.  1.
         11   -1    0    0    0    0 -0.00000000000E+00 -0.00000000000E+00 -0.45593999997E+02  0.45594000000E+02  0.51100000000E-03 0. -1.
    9900012    2    1    2    0    0  0.39110147468E+02 -0.13969235400E+02  0.12604765305E+02  0.47787270962E+02  0.19999999625E+02 0.  0.
         12    1    1    2    0    0 -0.39110147468E+02  0.13969235400E+02 -0.12604765305E+02  0.43400729038E+02  0.00000000000E+00 0. -1.
         11    1    3    3    0    0  0.25820129017E+02 -0.11259364318E+02  0.15490900881E+02  0.32146856109E+02  0.51100000000E-03 0. -1.
        -11    1    3    3    0    0  0.92875944547E+01  0.16357025564E+01 -0.12717004154E+01  0.95158896492E+01  0.51100000000E-03 0.  1.
         12    1    3    3    0    0  0.40024239963E+01 -0.43455736384E+01 -0.16144351607E+01  0.61245252045E+01  0.00000000000E+00 0. -1.
</event>
<event>
 7    1  0.2751796E-010  0.4778727E+02  0.7816164E-02  0.1312668E+00
        -11   -1    0    0    0    0  0.00000000000E+00  0.00000000000E+00  0.45593999997E+02  0.45594000000E+02  0.51100000000E-03 0.  1.
         11   -1    0    0    0    0 -0.00000000000E+00 -0.00000000000E+00 -0.45593999997E+02  0.45594000000E+02  0.51100000000E-03 0. -1.
    9900012    2    1    2    0    0 -0.25306642871E+02 -0.32850501265E+02  0.12807872319E+02  0.47787271895E+02  0.20000003878E+02 0.  0.
         12    1    1    2    0    0  0.25306642871E+02  0.32850501265E+02 -0.12807872319E+02  0.43400728105E+02  0.00000000000E+00 0. -1.
         11    1    3    3    0    0 -0.10897326608E+02 -0.15145463156E+02  0.13187988694E+02  0.22848628569E+02  0.51100000000E-03 0. -1.
        -11    1    3    3    0    0 -0.63926208801E+01 -0.13483987344E+02  0.30857520308E+01  0.15238286723E+02  0.51100000000E-03 0.  1.
         12    1    3    3    0    0 -0.80166953822E+01 -0.42210507649E+01 -0.34658684062E+01  0.97003566027E+01  0.00000000000E+00 0. -1.
</event>
<event>
 7    1  0.2751796E-010  0.4778727E+02  0.7816164E-02  0.1312668E+00
        -11   -1    0    0    0    0  0.00000000000E+00  0.00000000000E+00  0.45593999997E+02  0.45594000000E+02  0.51100000000E-03 0.  1.
         11   -1    0    0    0    0 -0.00000000000E+00 -0.00000000000E+00 -0.45593999997E+02  0.45594000000E+02  0.51100000000E-03 0. -1.
    9900012    2    1    2    0    0  0.29331100169E+02  0.17833394110E+02  0.26557102244E+02  0.47787273483E+02  0.20000011119E+02 0.  0.
         12    1    1    2    0    0 -0.29331100169E+02 -0.17833394110E+02 -0.26557102244E+02  0.43400726517E+02  0.00000000000E+00 0. -1.
         11    1    3    3    0    0  0.79771831100E+01 -0.11111531588E+01  0.73643772887E+01  0.10913485457E+02  0.51100000000E-03 0. -1.
        -11    1    3    3    0    0  0.18616986751E+02  0.19291244577E+02  0.12392065887E+02  0.29534854159E+02  0.51100000000E-03 0.  1.
        -12    1    3    3    0    0  0.27369303083E+01 -0.34669730841E+00  0.68006590681E+01  0.73389338665E+01  0.00000000000E+00 0.  1.
</event>
<event>
 7    1 -0.2751796E-010  0.4778725E+02  0.7816164E-02  0.1312668E+00
        -11   -1    0    0    0    0  0.00000000000E+00  0.00000000000E+00  0.45593999997E+02  0.45594000000E+02  0.51100000000E-03 0. -1.
         11   -1    0    0    0    0 -0.00000000000E+00 -0.00000000000E+00 -0.45593999997E+02  0.45594000000E+02  0.51100000000E-03 0.  1.
    9900012    2    1    2    0    0 -0.14524139593E+01  0.41739367654E+02 -0.11804257055E+02  0.47787253427E+02  0.19999919673E+02 0.  0.
         12    1    1    2    0    0  0.14524139593E+01 -0.41739367654E+02  0.11804257055E+02  0.43400746573E+02  0.00000000000E+00 0. -1.
         11    1    3    3    0    0 -0.70662554744E+00 -0.86134097001E+00  0.69312178277E+00  0.13121150856E+01  0.51100000000E-03 0. -1.
        -11    1    3    3    0    0 -0.42760605484E+01  0.21665631942E+02 -0.50022161206E+00  0.22089239987E+02  0.51100000000E-03 0.  1.
        -12    1    3    3    0    0  0.35302721366E+01  0.20935076682E+02 -0.11997157226E+02  0.24385898354E+02  0.00000000000E+00 0.  1.
</event>
<event>
 7    1  0.2751796E-010  0.4778727E+02  0.7816164E-02  0.1312668E+00
        -11   -1    0    0    0    0  0.00000000000E+00  0.00000000000E+00  0.45593999997E+02  0.45594000000E+02  0.51100000000E-03 0. -1.
         11   -1    0    0    0    0 -0.00000000000E+00 -0.00000000000E+00 -0.45593999997E+02  0.45594000000E+02  0.51100000000E-03 0.  1.
    9900012    2    1    2    0    0 -0.29390009140E+02 -0.29951135793E+02 -0.11080614376E+02  0.47787272040E+02  0.20000004537E+02 0.  0.
         12    1    1    2    0    0  0.29390009140E+02  0.29951135793E+02  0.11080614376E+02  0.43400727960E+02  0.00000000000E+00 0. -1.
         11    1    3    3    0    0 -0.14601181307E+02 -0.57798869114E+01 -0.97483348835E+01  0.18483279513E+02  0.51100000000E-03 0. -1.
        -11    1    3    3    0    0 -0.15548245487E+02 -0.22213276994E+02 -0.74938775384E+00  0.27124512803E+02  0.51100000000E-03 0.  1.
        -12    1    3    3    0    0  0.75941765458E+00 -0.19579718877E+01 -0.58289173888E+00  0.21794797238E+01  0.00000000000E+00 0.  1.
</event>
<event>
 7    1  0.2751796E-010  0.4778727E+02  0.7816164E-02  0.1312668E+00
        -11   -1    0    0    0    0  0.00000000000E+00  0.00000000000E+00  0.45593999997E+02  0.45594000000E+02  0.51100000000E-03 0. -1.
         11   -1    0    0    0    0 -0.00000000000E+00 -0.00000000000E+00 -0.45593999997E+02  0.45594000000E+02  0.51100000000E-03 0.  1.
    9900012    2    1    2    0    0  0.21637538247E+02 -0.28017307915E+02  0.25109170115E+02  0.47787273877E+02  0.20000012914E+02 0.  0.
         12    1    1    2    0    0 -0.21637538247E+02  0.28017307915E+02 -0.25109170115E+02  0.43400726123E+02  0.00000000000E+00 0. -1.
         11    1    3    3    0    0 -0.46042178545E+00  0.19168655183E+00  0.13758265245E+01  0.14634311878E+01  0.51100000000E-03 0. -1.
        -11    1    3    3    0    0  0.62925103083E+01 -0.17875650637E+02  0.47270466691E+01  0.19531501277E+02  0.51100000000E-03 0.  1.
        -12    1    3    3    0    0  0.15805449724E+02 -0.10333343830E+02  0.19006296921E+02  0.26792341412E+02  0.00000000000E+00 0.  1.
</event>
<event>
 7    1  0.2751796E-010  0.4778727E+02  0.7816164E-02  0.1312668E+00
        -11   -1    0    0    0    0  0.00000000000E+00  0.00000000000E+00  0.45593999997E+02  0.45594000000E+02  0.51100000000E-03 0. -1.
         11   -1    0    0    0    0 -0.00000000000E+00 -0.00000000000E+00 -0.45593999997E+02  0.45594000000E+02  0.51100000000E-03 0.  1.
    9900012    2    1    2    0    0 -0.34992100871E+02 -0.25574976170E+02  0.22575353214E+01  0.47787274255E+02  0.20000014640E+02 0.  0.
         12    1    1    2    0    0  0.34992100871E+02  0.25574976170E+02 -0.22575353214E+01  0.43400725745E+02  0.00000000000E+00 0. -1.
         11    1    3    3    0    0 -0.84791816994E+00 -0.88215369840E+01  0.31028022199E+01  0.93896678248E+01  0.51100000000E-03 0. -1.
        -11    1    3    3    0    0 -0.20389431752E+02 -0.10891573339E+02  0.19070203611E+01  0.23194655071E+02  0.51100000000E-03 0.  1.
         12    1    3    3    0    0 -0.13754750949E+02 -0.58618658471E+01 -0.27522872597E+01  0.15202951359E+02  0.00000000000E+00 0. -1.
</event>
<event>
 7    1  0.2751796E-010  0.4778727E+02  0.7816164E-02  0.1312668E+00
        -11   -1    0    0    0    0  0.00000000000E+00  0.00000000000E+00  0.45593999997E+02  0.45594000000E+02  0.51100000000E-03 0.  1.
         11   -1    0    0    0    0 -0.00000000000E+00 -0.00000000000E+00 -0.45593999997E+02  0.45594000000E+02  0.51100000000E-03 0. -1.
    9900012    2    1    2    0    0 -0.47439542089E+01  0.41164844377E+02  0.12906333786E+02  0.47787274593E+02  0.20000016177E+02 0.  0.
         12    1    1    2    0    0  0.47439542089E+01 -0.41164844377E+02 -0.12906333786E+02  0.43400725407E+02  0.00000000000E+00 0. -1.
         11    1    3    3    0    0  0.32575810877E+01  0.72644901190E+00  0.22789961322E+00  0.33453701147E+01  0.51100000000E-03 0. -1.
        -11    1    3    3    0    0 -0.37843183541E+01  0.21840543556E+02  0.12338949172E+02  0.25368880053E+02  0.51100000000E-03 0.  1.
         12    1    3    3    0    0 -0.42172169425E+01  0.18597851809E+02  0.33948500116E+00  0.19073024425E+02  0.00000000000E+00 0. -1.
</event>
<event>
 7    1  0.2751796E-010  0.4778728E+02  0.7816164E-02  0.1312668E+00
        -11   -1    0    0    0    0  0.00000000000E+00  0.00000000000E+00  0.45593999997E+02  0.45594000000E+02  0.51100000000E-03 0.  1.
         11   -1    0    0    0    0 -0.00000000000E+00 -0.00000000000E+00 -0.45593999997E+02  0.45594000000E+02  0.51100000000E-03 0. -1.
    9900012    2    1    2    0    0 -0.20798781665E+02  0.25965515095E+02  0.27871585161E+02  0.47787279358E+02  0.20000037903E+02 0.  0.
         12    1    1    2    0    0  0.20798781665E+02 -0.25965515095E+02 -0.27871585161E+02  0.43400720642E+02  0.00000000000E+00 0. -1.
         11    1    3    3    0    0 -0.23348281732E+01  0.11636215862E+02  0.14267890945E+02  0.18558708319E+02  0.51100000000E-03 0. -1.
        -11    1    3    3    0    0 -0.13947012513E+02  0.42572507268E+01  0.97284536462E+01  0.17529579356E+02  0.51100000000E-03 0.  1.
        -12    1    3    3    0    0 -0.45169409786E+01  0.10072048506E+02  0.38752405693E+01  0.11698991682E+02  0.00000000000E+00 0.  1.
</event>
<event>
 7    1  0.2751796E-010  0.4778733E+02  0.7816164E-02  0.1312667E+00
        -11   -1    0    0    0    0  0.00000000000E+00  0.00000000000E+00  0.45593999997E+02  0.45594000000E+02  0.51100000000E-03 0.  1.
         11   -1    0    0    0    0 -0.00000000000E+00 -0.00000000000E+00 -0.45593999997E+02  0.45594000000E+02  0.51100000000E-03 0. -1.
    9900012    2    1    2    0    0  0.25066433423E+02  0.25038231225E+02  0.25067481481E+02  0.47787334853E+02  0.20000290925E+02 0.  0.
         12    1    1    2    0    0 -0.25066433423E+02 -0.25038231225E+02 -0.25067481481E+02  0.43400665147E+02  0.00000000000E+00 0. -1.
         11    1    3    3    0    0  0.82552178635E+01  0.24338959981E+01  0.67198596488E+01  0.10919202611E+02  0.51100000000E-03 0. -1.
        -11    1    3    3    0    0 -0.27428755160E+01  0.26784660634E+01  0.37560572635E+01  0.53670767627E+01  0.51100000000E-03 0.  1.
        -12    1    3    3    0    0  0.19554091075E+02  0.19925869164E+02  0.14591564569E+02  0.31501055479E+02  0.00000000000E+00 0.  1.
</event>
<event>
 7    1  0.2751796E-010  0.4778727E+02  0.7816164E-02  0.1312668E+00
        -11   -1    0    0    0    0  0.00000000000E+00  0.00000000000E+00  0.45593999997E+02  0.45594000000E+02  0.51100000000E-03 0.  1.
         11   -1    0    0    0    0 -0.00000000000E+00 -0.00000000000E+00 -0.45593999997E+02  0.45594000000E+02  0.51100000000E-03 0. -1.
    9900012    2    1    2    0    0 -0.36270689025E+01  0.58378242502E+01  0.42853093617E+02  0.47787268977E+02  0.19999990573E+02 0.  0.
         12    1    1    2    0    0  0.36270689025E+01 -0.58378242502E+01 -0.42853093617E+02  0.43400731023E+02  0.00000000000E+00 0. -1.
         11    1    3    3    0    0 -0.68801030386E+01  0.91550760552E+01  0.23041088992E+02  0.25730196610E+02  0.51100000000E-03 0. -1.
        -11    1    3    3    0    0 -0.53115258816E-02 -0.60924214548E+00  0.16911739315E+02  0.16922710514E+02  0.51100000000E-03 0.  1.
         12    1    3    3    0    0  0.32583456619E+01 -0.27080096596E+01  0.29002653097E+01  0.51343618528E+01  0.00000000000E+00 0. -1.
</event>
<event>
 7    1  0.2751796E-010  0.4778727E+02  0.7816164E-02  0.1312668E+00
        -11   -1    0    0    0    0  0.00000000000E+00  0.00000000000E+00  0.45593999997E+02  0.45594000000E+02  0.51100000000E-03 0.  1.
         11   -1    0    0    0    0 -0.00000000000E+00 -0.00000000000E+00 -0.45593999997E+02  0.45594000000E+02  0.51100000000E-03 0. -1.
    9900012    2    1    2    0    0 -0.35138875290E+02 -0.52978865452E+01  0.24916162419E+02  0.47787270649E+02  0.19999998197E+02 0.  0.
         12    1    1    2    0    0  0.35138875290E+02  0.52978865452E+01 -0.24916162419E+02  0.43400729351E+02  0.00000000000E+00 0. -1.
         11    1    3    3    0    0 -0.13194883660E+02 -0.11398608139E+02  0.12489441206E+02  0.21448062015E+02  0.51100000000E-03 0. -1.
        -11    1    3    3    0    0 -0.98390147938E+01  0.46752079547E+01  0.73186149184E+01  0.13123486812E+02  0.51100000000E-03 0.  1.
         12    1    3    3    0    0 -0.12104976837E+02  0.14255136388E+01  0.51081062949E+01  0.13215721822E+02  0.00000000000E+00 0. -1.
</event>
<event>
 7    1  0.2751796E-010  0.4778727E+02  0.7816164E-02  0.1312668E+00
        -11   -1    0    0    0    0  0.00000000000E+00  0.00000000000E+00  0.45593999997E+02  0.45594000000E+02  0.51100000000E-03 0. -1.
         11   -1    0    0    0    0 -0.00000000000E+00 -0.00000000000E+00 -0.45593999997E+02  0.45594000000E+02  0.51100000000E-03 0.  1.
    9900012    2    1    2    0    0  0.19551952008E+02  0.95042738189E+01 -0.37563452802E+02  0.47787273801E+02  0.20000012570E+02 0.  0.
         12    1    1    2    0    0 -0.19551952008E+02 -0.95042738189E+01  0.37563452802E+02  0.43400726199E+02  0.00000000000E+00 0. -1.
         11    1    3    3    0    0  0.85815911932E+01  0.12849983302E+02 -0.13747070745E+02  0.20682063064E+02  0.51100000000E-03 0. -1.
        -11    1    3    3    0    0  0.84109381829E+01 -0.93388962592E-01 -0.18842116264E+02  0.20634387517E+02  0.51100000000E-03 0.  1.
         12    1    3    3    0    0  0.25594226322E+01 -0.32523205201E+01 -0.49742657929E+01  0.64708232207E+01  0.00000000000E+00 0. -1.
</event>
<event>
 7    1  0.2751796E-010  0.4778728E+02  0.7816164E-02  0.1312668E+00
        -11   -1    0    0    0    0  0.00000000000E+00  0.00000000000E+00  0.45593999997E+02  0.45594000000E+02  0.51100000000E-03 0. -1.
         11   -1    0    0    0    0 -0.00000000000E+00 -0.00000000000E+00 -0.45593999997E+02  0.45594000000E+02  0.51100000000E-03 0.  1.
    9900012    2    1    2    0    0  0.36298657541E+02  0.21627872563E+02 -0.99128929857E+01  0.47787275833E+02  0.20000021832E+02 0.  0.
         12    1    1    2    0    0 -0.36298657541E+02 -0.21627872563E+02  0.99128929857E+01  0.43400724167E+02  0.00000000000E+00 0. -1.
         11    1    3    3    0    0  0.99709624371E+01 -0.24637046218E+01 -0.20771266389E+01  0.10478758883E+02  0.51100000000E-03 0. -1.
        -11    1    3    3    0    0  0.84423459071E+01  0.11627933930E+02 -0.54916669909E+01  0.15383122521E+02  0.51100000000E-03 0.  1.
        -12    1    3    3    0    0  0.17885349197E+02  0.12463643255E+02 -0.23440993559E+01  0.21925394429E+02  0.00000000000E+00 0.  1.
</event>
<event>
 7    1  0.2751796E-010  0.4778728E+02  0.7816164E-02  0.1312668E+00
        -11   -1    0    0    0    0  0.00000000000E+00  0.00000000000E+00  0.45593999997E+02  0.45594000000E+02  0.51100000000E-03 0.  1.
         11   -1    0    0    0    0 -0.00000000000E+00 -0.00000000000E+00 -0.45593999997E+02  0.45594000000E+02  0.51100000000E-03 0. -1.
    9900012    2    1    2    0    0 -0.19581853687E+02  0.26240461129E+02  0.28488803557E+02  0.47787277400E+02  0.20000028979E+02 0.  0.
         12    1    1    2    0    0  0.19581853687E+02 -0.26240461129E+02 -0.28488803557E+02  0.43400722600E+02  0.00000000000E+00 0. -1.
         11    1    3    3    0    0 -0.11959085261E+02  0.23547414122E+01  0.90739439236E+01  0.15195426483E+02  0.51100000000E-03 0. -1.
        -11    1    3    3    0    0 -0.66540151585E+01  0.19807648524E+02  0.19228150977E+02  0.28396137907E+02  0.51100000000E-03 0.  1.
         12    1    3    3    0    0 -0.96875326746E+00  0.40780711925E+01  0.18670865604E+00  0.41957130105E+01  0.00000000000E+00 0. -1.
</event>
<event>
 7    1  0.2751796E-010  0.4778728E+02  0.7816164E-02  0.1312668E+00
        -11   -1    0    0    0    0  0.00000000000E+00  0.00000000000E+00  0.45593999997E+02  0.45594000000E+02  0.51100000000E-03 0.  1.
         11   -1    0    0    0    0 -0.00000000000E+00 -0.00000000000E+00 -0.45593999997E+02  0.45594000000E+02  0.51100000000E-03 0. -1.
    9900012    2    1    2    0    0 -0.12807731232E+02  0.80464368946E+01  0.40679717509E+02  0.47787279469E+02  0.20000038411E+02 0.  0.
         12    1    1    2    0    0  0.12807731232E+02 -0.80464368946E+01 -0.40679717509E+02  0.43400720531E+02  0.00000000000E+00 0. -1.
         11    1    3    3    0    0  0.20542009981E+01 -0.25952377613E+01  0.10140680461E+02  0.10667164630E+02  0.51100000000E-03 0. -1.
        -11    1    3    3    0    0 -0.11199766607E+02  0.22436583632E+01  0.12804034675E+02  0.17158440463E+02  0.51100000000E-03 0.  1.
        -12    1    3    3    0    0 -0.36621656224E+01  0.83980162928E+01  0.17735002373E+02  0.19961674376E+02  0.00000000000E+00 0.  1.
</event>
<event>
 7    1  0.2751796E-010  0.4778728E+02  0.7816164E-02  0.1312668E+00
        -11   -1    0    0    0    0  0.00000000000E+00  0.00000000000E+00  0.45593999997E+02  0.45594000000E+02  0.51100000000E-03 0.  1.
         11   -1    0    0    0    0 -0.00000000000E+00 -0.00000000000E+00 -0.45593999997E+02  0.45594000000E+02  0.51100000000E-03 0. -1.
    9900012    2    1    2    0    0  0.37748930990E+02 -0.11578219571E+02 -0.18016249018E+02  0.47787283554E+02  0.20000057038E+02 0.  0.
         12    1    1    2    0    0 -0.37748930990E+02  0.11578219571E+02  0.18016249018E+02  0.43400716446E+02  0.00000000000E+00 0. -1.
         11    1    3    3    0    0  0.25537576255E+02  0.15022160921E+00 -0.93287941857E+01  0.27188541129E+02  0.51100000000E-03 0. -1.
        -11    1    3    3    0    0  0.97712404530E+00 -0.45421047609E+01  0.66005839670E-01  0.46464872851E+01  0.51100000000E-03 0.  1.
         12    1    3    3    0    0  0.11234230689E+02 -0.71863364198E+01 -0.87534606716E+01  0.15952255140E+02  0.00000000000E+00 0. -1.
</event>
<event>
 7    1  0.2751796E-010  0.4778726E+02  0.7816164E-02  0.1312668E+00
        -11   -1    0    0    0    0  0.00000000000E+00  0.00000000000E+00  0.45593999997E+02  0.45594000000E+02  0.51100000000E-03 0.  1.
         11   -1    0    0    0    0 -0.00000000000E+00 -0.00000000000E+00 -0.45593999997E+02  0.45594000000E+02  0.51100000000E-03 0. -1.
    9900012    2    1    2    0    0  0.31739411551E+02  0.76281478442E+01  0.28601489707E+02  0.47787261543E+02  0.19999956680E+02 0.  0.
         12    1    1    2    0    0 -0.31739411551E+02 -0.76281478442E+01 -0.28601489707E+02  0.43400738457E+02  0.00000000000E+00 0. -1.
         11    1    3    3    0    0  0.15095526275E+02 -0.53783999614E+01  0.12088087416E+02  0.20072965832E+02  0.51100000000E-03 0. -1.
        -11    1    3    3    0    0  0.14918639267E+02  0.83556974396E+01  0.14264002066E+02  0.22267582547E+02  0.51100000000E-03 0.  1.
         12    1    3    3    0    0  0.17252460091E+01  0.46508503659E+01  0.22494002250E+01  0.54467131639E+01  0.00000000000E+00 0. -1.
</event>
<event>
 7    1  0.2751796E-010  0.4778727E+02  0.7816164E-02  0.1312668E+00
        -11   -1    0    0    0    0  0.00000000000E+00  0.00000000000E+00  0.45593999997E+02  0.45594000000E+02  0.51100000000E-03 0.  1.
         11   -1    0    0    0    0 -0.00000000000E+00 -0.00000000000E+00 -0.45593999997E+02  0.45594000000E+02  0.51100000000E-03 0. -1.
    9900012    2    1    2    0    0  0.14274618207E+02 -0.45951319372E+01  0.40727676339E+02  0.47787267490E+02  0.19999983793E+02 0.  0.
         12    1    1    2    0    0 -0.14274618207E+02  0.45951319372E+01 -0.40727676339E+02  0.43400732510E+02  0.00000000000E+00 0. -1.
         11    1    3    3    0    0  0.80691669782E+01  0.11406894244E+01  0.16992143531E+02  0.18845306316E+02  0.51100000000E-03 0. -1.
        -11    1    3    3    0    0  0.57856015753E+01 -0.10269551478E+02  0.14865263219E+02  0.18971371168E+02  0.51100000000E-03 0.  1.
        -12    1    3    3    0    0  0.41984965336E+00  0.45337301167E+01  0.88702695885E+01  0.99705900063E+01  0.00000000000E+00 0.  1.
</event>
<event>
 7    1  0.2751796E-010  0.4778727E+02  0.7816164E-02  0.1312668E+00
        -11   -1    0    0    0    0  0.00000000000E+00  0.00000000000E+00  0.45593999997E+02  0.45594000000E+02  0.51100000000E-03 0. -1.
         11   -1    0    0    0    0 -0.00000000000E+00 -0.00000000000E+00 -0.45593999997E+02  0.45594000000E+02  0.51100000000E-03 0.  1.
    9900012    2    1    2    0    0  0.33600096585E+02  0.25988196454E+02  0.89034006581E+01  0.47787269722E+02  0.19999993968E+02 0.  0.
         12    1    1    2    0    0 -0.33600096585E+02 -0.25988196454E+02 -0.89034006581E+01  0.43400730278E+02  0.00000000000E+00 0. -1.
         11    1    3    3    0    0  0.20227804588E+02  0.11288648410E+02  0.11664029507E+02  0.25935443818E+02  0.51100000000E-03 0. -1.
        -11    1    3    3    0    0  0.10224988630E+02  0.68684914487E+01  0.14803294715E+01  0.12406367030E+02  0.51100000000E-03 0.  1.
         12    1    3    3    0    0  0.31473033659E+01  0.78310565948E+01 -0.42409583207E+01  0.94454588743E+01  0.00000000000E+00 0. -1.
</event>
<event>
 7    1  0.2751796E-010  0.4778728E+02  0.7816164E-02  0.1312668E+00
        -11   -1    0    0    0    0  0.00000000000E+00  0.00000000000E+00  0.45593999997E+02  0.45594000000E+02  0.51100000000E-03 0.  1.
         11   -1    0    0    0    0 -0.00000000000E+00 -0.00000000000E+00 -0.45593999997E+02  0.45594000000E+02  0.51100000000E-03 0. -1.
    9900012    2    1    2    0    0 -0.27922089229E+02  0.34244832418E+01  0.33049247627E+02  0.47787275108E+02  0.20000018528E+02 0.  0.
         12    1    1    2    0    0  0.27922089229E+02 -0.34244832418E+01 -0.33049247627E+02  0.43400724892E+02  0.00000000000E+00 0. -1.
         11    1    3    3    0    0 -0.35365101027E+01  0.29867171461E+01  0.10101172142E+02  0.11111303340E+02  0.51100000000E-03 0. -1.
        -11    1    3    3    0    0  0.18579376160E+01  0.13643322470E+01  0.24422830161E+01  0.33582854639E+01  0.51100000000E-03 0.  1.
        -12    1    3    3    0    0 -0.26243516743E+02 -0.92656615118E+00  0.20505792469E+02  0.33317686304E+02  0.00000000000E+00 0.  1.
</event>
<event>
 7    1  0.2751796E-010  0.4778727E+02  0.7816164E-02  0.1312668E+00
        -11   -1    0    0    0    0  0.00000000000E+00  0.00000000000E+00  0.45593999997E+02  0.45594000000E+02  0.51100000000E-03 0.  1.
         11   -1    0    0    0    0 -0.00000000000E+00 -0.00000000000E+00 -0.45593999997E+02  0.45594000000E+02  0.51100000000E-03 0. -1.
    9900012    2    1    2    0    0 -0.45691789767E+01  0.35436536001E+02  0.24637319871E+02  0.47787274076E+02  0.20000013822E+02 0.  0.
         12    1    1    2    0    0  0.45691789767E+01 -0.35436536001E+02 -0.24637319871E+02  0.43400725924E+02  0.00000000000E+00 0. -1.
         11    1    3    3    0    0  0.32032271816E+01  0.12238579784E+02  0.65262207879E+01  0.14234994118E+02  0.51100000000E-03 0. -1.
        -11    1    3    3    0    0 -0.98237047386E+01  0.95151064075E+01  0.12800933381E+02  0.18732493706E+02  0.51100000000E-03 0.  1.
        -12    1    3    3    0    0  0.20512985803E+01  0.13682849810E+02  0.53101657020E+01  0.14819786253E+02  0.00000000000E+00 0.  1.
</event>
<event>
 7    1  0.2751796E-010  0.4778727E+02  0.7816164E-02  0.1312668E+00
        -11   -1    0    0    0    0  0.00000000000E+00  0.00000000000E+00  0.45593999997E+02  0.45594000000E+02  0.51100000000E-03 0.  1.
         11   -1    0    0    0    0 -0.00000000000E+00 -0.00000000000E+00 -0.45593999997E+02  0.45594000000E+02  0.51100000000E-03 0. -1.
    9900012    2    1    2    0    0  0.22446287299E+01  0.83815007071E+01  0.42524522588E+02  0.47787274964E+02  0.20000017873E+02 0.  0.
         12    1    1    2    0    0 -0.22446287299E+01 -0.83815007071E+01 -0.42524522588E+02  0.43400725036E+02  0.00000000000E+00 0. -1.
         11    1    3    3    0    0 -0.17966296507E+00 -0.79192212956E-01  0.10309423432E+02  0.10311292932E+02  0.51100000000E-03 0. -1.
        -11    1    3    3    0    0 -0.57402087455E+01 -0.89367420849E+00  0.54252097372E+01  0.79486823428E+01  0.51100000000E-03 0.  1.
        -12    1    3    3    0    0  0.81645004405E+01  0.93543671286E+01  0.26789889420E+02  0.29527299689E+02  0.00000000000E+00 0.  1.
</event>
<event>
 7    1  0.2751796E-010  0.4778729E+02  0.7816164E-02  0.1312668E+00
        -11   -1    0    0    0    0  0.00000000000E+00  0.00000000000E+00  0.45593999997E+02  0.45594000000E+02  0.51100000000E-03 0.  1.
         11   -1    0    0    0    0 -0.00000000000E+00 -0.00000000000E+00 -0.45593999997E+02  0.45594000000E+02  0.51100000000E-03 0. -1.
    9900012    2    1    2    0    0  0.37170154862E+02  0.34222146619E+01  0.22142493422E+02  0.47787285943E+02  0.20000067929E+02 0.  0.
         12    1    1    2    0    0 -0.37170154862E+02 -0.34222146619E+01 -0.22142493422E+02  0.43400714057E+02  0.00000000000E+00 0. -1.
         11    1    3    3    0    0  0.21280595655E+01 -0.32772237023E+01 -0.83503355675E+00  0.39957620063E+01  0.51100000000E-03 0. -1.
        -11    1    3    3    0    0  0.28250763485E+02  0.31751434437E+01  0.22259828497E+02  0.36106607960E+02  0.51100000000E-03 0.  1.
         12    1    3    3    0    0  0.67913318117E+01  0.35242949205E+01  0.71769848190E+00  0.76849159770E+01  0.00000000000E+00 0. -1.
</event>
<event>
 7    1  0.2751796E-010  0.4778727E+02  0.7816164E-02  0.1312668E+00
        -11   -1    0    0    0    0  0.00000000000E+00  0.00000000000E+00  0.45593999997E+02  0.45594000000E+02  0.51100000000E-03 0. -1.
         11   -1    0    0    0    0 -0.00000000000E+00 -0.00000000000E+00 -0.45593999997E+02  0.45594000000E+02  0.51100000000E-03 0.  1.
    9900012    2    1    2    0    0  0.33965400977E+01  0.36389471925E+02  0.23407122360E+02  0.47787268108E+02  0.19999986612E+02 0.  0.
         12    1    1    2    0    0 -0.33965400977E+01 -0.36389471925E+02 -0.23407122360E+02  0.43400731892E+02  0.00000000000E+00 0. -1.
         11    1    3    3    0    0 -0.55506153344E+01  0.14195453476E+02  0.10843187013E+02  0.18705478738E+02  0.51100000000E-03 0. -1.
        -11    1    3    3    0    0  0.73998553152E+01  0.50320760599E+01  0.34714339495E+01  0.95984635273E+01  0.51100000000E-03 0.  1.
        -12    1    3    3    0    0  0.15473001168E+01  0.17161942389E+02  0.90925013979E+01  0.19483325843E+02  0.00000000000E+00 0.  1.
</event>
<event>
 7    1  0.2751796E-010  0.4778727E+02  0.7816164E-02  0.1312668E+00
        -11   -1    0    0    0    0  0.00000000000E+00  0.00000000000E+00  0.45593999997E+02  0.45594000000E+02  0.51100000000E-03 0. -1.
         11   -1    0    0    0    0 -0.00000000000E+00 -0.00000000000E+00 -0.45593999997E+02  0.45594000000E+02  0.51100000000E-03 0.  1.
    9900012    2    1    2    0    0 -0.29447693130E+02  0.17662683163E+02 -0.26542159532E+02  0.47787271437E+02  0.20000001789E+02 0.  0.
         12    1    1    2    0    0  0.29447693130E+02 -0.17662683163E+02  0.26542159532E+02  0.43400728563E+02  0.00000000000E+00 0. -1.
         11    1    3    3    0    0 -0.80980526552E+01  0.69755700951E+01 -0.31181112035E+01  0.11133716931E+02  0.51100000000E-03 0. -1.
        -11    1    3    3    0    0 -0.16260334589E+02  0.21764392835E+01 -0.20617053508E+02  0.26347642485E+02  0.51100000000E-03 0.  1.
        -12    1    3    3    0    0 -0.50893058851E+01  0.85106737846E+01 -0.28069948210E+01  0.10305912021E+02  0.00000000000E+00 0.  1.
</event>
<event>
 7    1  0.2751796E-010  0.4778727E+02  0.7816164E-02  0.1312668E+00
        -11   -1    0    0    0    0  0.00000000000E+00  0.00000000000E+00  0.45593999997E+02  0.45594000000E+02  0.51100000000E-03 0. -1.
         11   -1    0    0    0    0 -0.00000000000E+00 -0.00000000000E+00 -0.45593999997E+02  0.45594000000E+02  0.51100000000E-03 0.  1.
    9900012    2    1    2    0    0 -0.27413424350E+02  0.74896941963E+01 -0.32802926403E+02  0.47787270348E+02  0.19999996824E+02 0.  0.
         12    1    1    2    0    0  0.27413424350E+02 -0.74896941963E+01  0.32802926403E+02  0.43400729652E+02  0.00000000000E+00 0. -1.
         11    1    3    3    0    0 -0.35639798464E+01 -0.10496177329E+01 -0.42330938552E+01  0.56322938115E+01  0.51100000000E-03 0. -1.
        -11    1    3    3    0    0 -0.18636533554E+02  0.20930004624E+01 -0.28187165545E+02  0.33855831633E+02  0.51100000000E-03 0.  1.
        -12    1    3    3    0    0 -0.52129109493E+01  0.64463114667E+01 -0.38266700274E+00  0.82991449033E+01  0.00000000000E+00 0.  1.
</event>
<event>
 7    1  0.2751796E-010  0.4778728E+02  0.7816164E-02  0.1312668E+00
        -11   -1    0    0    0    0  0.00000000000E+00  0.00000000000E+00  0.45593999997E+02  0.45594000000E+02  0.51100000000E-03 0.  1.
         11   -1    0    0    0    0 -0.00000000000E+00 -0.00000000000E+00 -0.45593999997E+02  0.45594000000E+02  0.51100000000E-03 0. -1.
    9900012    2    1    2    0    0  0.50500300394E+01  0.16343658095E+02  0.39887403103E+02  0.47787275471E+02  0.20000020184E+02 0.  0.
         12    1    1    2    0    0 -0.50500300394E+01 -0.16343658095E+02 -0.39887403103E+02  0.43400724529E+02  0.00000000000E+00 0. -1.
         11    1    3    3    0    0  0.35854483969E+01  0.26066944172E+01  0.80080347890E+01  0.91530824007E+01  0.51100000000E-03 0. -1.
        -11    1    3    3    0    0  0.14001110223E+01  0.13119944453E+01  0.23657299635E+02  0.23734984023E+02  0.51100000000E-03 0.  1.
        -12    1    3    3    0    0  0.64470620202E-01  0.12424969232E+02  0.82220686795E+01  0.14899209048E+02  0.00000000000E+00 0.  1.
</event>
<event>
 7    1  0.2751796E-010  0.4778727E+02  0.7816164E-02  0.1312668E+00
        -11   -1    0    0    0    0  0.00000000000E+00  0.00000000000E+00  0.45593999997E+02  0.45594000000E+02  0.51100000000E-03 0. -1.
         11   -1    0    0    0    0 -0.00000000000E+00 -0.00000000000E+00 -0.45593999997E+02  0.45594000000E+02  0.51100000000E-03 0.  1.
    9900012    2    1    2    0    0 -0.35866518868E+02  0.10282256528E+02 -0.22169601280E+02  0.47787271943E+02  0.20000004095E+02 0.  0.
         12    1    1    2    0    0  0.35866518868E+02 -0.10282256528E+02  0.22169601280E+02  0.43400728057E+02  0.00000000000E+00 0. -1.
         11    1    3    3    0    0 -0.22049686407E+02 -0.95762300216E+00 -0.78230475970E+01  0.23415930185E+02  0.51100000000E-03 0. -1.
        -11    1    3    3    0    0 -0.78410021913E+01  0.30834356392E+01 -0.24835944029E+01  0.87839132580E+01  0.51100000000E-03 0.  1.
         12    1    3    3    0    0 -0.59758302700E+01  0.81564438911E+01 -0.11862959280E+02  0.15587428500E+02  0.00000000000E+00 0. -1.
</event>
<event>
 7    1  0.2751796E-010  0.4778729E+02  0.7816164E-02  0.1312668E+00
        -11   -1    0    0    0    0  0.00000000000E+00  0.00000000000E+00  0.45593999997E+02  0.45594000000E+02  0.51100000000E-03 0.  1.
         11   -1    0    0    0    0 -0.00000000000E+00 -0.00000000000E+00 -0.45593999997E+02  0.45594000000E+02  0.51100000000E-03 0. -1.
    9900012    2    1    2    0    0 -0.20389072089E+02  0.29621228754E+02  0.24300007307E+02  0.47787287924E+02  0.20000076962E+02 0.  0.
         12    1    1    2    0    0  0.20389072089E+02 -0.29621228754E+02 -0.24300007307E+02  0.43400712076E+02  0.00000000000E+00 0. -1.
         11    1    3    3    0    0 -0.60312858453E+01  0.15944756802E+02  0.19929850370E+02  0.26226143721E+02  0.51100000000E-03 0. -1.
        -11    1    3    3    0    0 -0.86134532089E+01  0.12540073951E+02  0.37795206161E+01  0.15675771344E+02  0.51100000000E-03 0.  1.
         12    1    3    3    0    0 -0.57443330349E+01  0.11363980012E+01  0.59063632088E+00  0.58853728596E+01  0.00000000000E+00 0. -1.
</event>
<event>
 7    1  0.2751796E-010  0.4778727E+02  0.7816164E-02  0.1312668E+00
        -11   -1    0    0    0    0  0.00000000000E+00  0.00000000000E+00  0.45593999997E+02  0.45594000000E+02  0.51100000000E-03 0. -1.
         11   -1    0    0    0    0 -0.00000000000E+00 -0.00000000000E+00 -0.45593999997E+02  0.45594000000E+02  0.51100000000E-03 0.  1.
    9900012    2    1    2    0    0 -0.10831819429E+02 -0.23287507664E+02 -0.34985532181E+02  0.47787265129E+02  0.19999973030E+02 0.  0.
         12    1    1    2    0    0  0.10831819429E+02  0.23287507664E+02  0.34985532181E+02  0.43400734871E+02  0.00000000000E+00 0. -1.
         11    1    3    3    0    0 -0.97114512285E+00 -0.81195844589E+00 -0.15880081310E+02  0.15930454546E+02  0.51100000000E-03 0. -1.
        -11    1    3    3    0    0 -0.85892652310E+01 -0.11137846133E+02 -0.11143527537E+02  0.17944506121E+02  0.51100000000E-03 0.  1.
         12    1    3    3    0    0 -0.12714090754E+01 -0.11337703085E+02 -0.79619233335E+01  0.13912304462E+02  0.00000000000E+00 0. -1.
</event>
<event>
 7    1  0.2751796E-010  0.4778727E+02  0.7816164E-02  0.1312668E+00
        -11   -1    0    0    0    0  0.00000000000E+00  0.00000000000E+00  0.45593999997E+02  0.45594000000E+02  0.51100000000E-03 0.  1.
         11   -1    0    0    0    0 -0.00000000000E+00 -0.00000000000E+00 -0.45593999997E+02  0.45594000000E+02  0.51100000000E-03 0. -1.
    9900012    2    1    2    0    0 -0.78953957602E+01  0.36367097206E+02  0.22332038559E+02  0.47787274435E+02  0.20000015458E+02 0.  0.
         12    1    1    2    0    0  0.78953957602E+01 -0.36367097206E+02 -0.22332038559E+02  0.43400725565E+02  0.00000000000E+00 0. -1.
         11    1    3    3    0    0 -0.18259143289E+01  0.10472818043E-01 -0.76988534206E+00  0.19816146238E+01  0.51100000000E-03 0. -1.
        -11    1    3    3    0    0 -0.78298941670E+01  0.32473982303E+02  0.24379910533E+02  0.41355130360E+02  0.51100000000E-03 0.  1.
        -12    1    3    3    0    0  0.17604127357E+01  0.38826420852E+01 -0.12779866318E+01  0.44505294509E+01  0.00000000000E+00 0.  1.
</event>
<event>
 7    1  0.2751796E-010  0.4778727E+02  0.7816164E-02  0.1312668E+00
        -11   -1    0    0    0    0  0.00000000000E+00  0.00000000000E+00  0.45593999997E+02  0.45594000000E+02  0.51100000000E-03 0. -1.
         11   -1    0    0    0    0 -0.00000000000E+00 -0.00000000000E+00 -0.45593999997E+02  0.45594000000E+02  0.51100000000E-03 0.  1.
    9900012    2    1    2    0    0 -0.16551005925E+02 -0.33512186232E+02 -0.22059483515E+02  0.47787271479E+02  0.20000001982E+02 0.  0.
         12    1    1    2    0    0  0.16551005925E+02  0.33512186232E+02  0.22059483515E+02  0.43400728521E+02  0.00000000000E+00 0. -1.
         11    1    3    3    0    0 -0.16023261620E+01 -0.13696070630E+02 -0.12728837509E+02  0.18766275720E+02  0.51100000000E-03 0. -1.
        -11    1    3    3    0    0 -0.11177620214E+02 -0.13649841723E+02 -0.55404242732E+00  0.17651185115E+02  0.51100000000E-03 0.  1.
        -12    1    3    3    0    0 -0.37710595493E+01 -0.61662738795E+01 -0.87766035793E+01  0.11369810644E+02  0.00000000000E+00 0.  1.
</event>
<event>
 7    1  0.2751796E-010  0.4778727E+02  0.7816164E-02  0.1312668E+00
        -11   -1    0    0    0    0  0.00000000000E+00  0.00000000000E+00  0.45593999997E+02  0.45594000000E+02  0.51100000000E-03 0.  1.
         11   -1    0    0    0    0 -0.00000000000E+00 -0.00000000000E+00 -0.45593999997E+02  0.45594000000E+02  0.51100000000E-03 0. -1.
    9900012    2    1    2    0    0  0.24742744353E+02 -0.75868298458E+01  0.34840489031E+02  0.47787273495E+02  0.20000011175E+02 0.  0.
         12    1    1    2    0    0 -0.24742744353E+02  0.75868298458E+01 -0.34840489031E+02  0.43400726505E+02  0.00000000000E+00 0. -1.
         11    1    3    3    0    0  0.19082592508E+02  0.23779336398E+01  0.28396255960E+02  0.34295003397E+02  0.51100000000E-03 0. -1.
        -11    1    3    3    0    0  0.41607449957E+01 -0.45630420169E+01  0.26309621131E+01  0.67123105760E+01  0.51100000000E-03 0.  1.
         12    1    3    3    0    0  0.14994068491E+01 -0.54017214686E+01  0.38132709578E+01  0.67799595221E+01  0.00000000000E+00 0. -1.
</event>
<event>
 7    1  0.2751796E-010  0.4778727E+02  0.7816164E-02  0.1312668E+00
        -11   -1    0    0    0    0  0.00000000000E+00  0.00000000000E+00  0.45593999997E+02  0.45594000000E+02  0.51100000000E-03 0.  1.
         11   -1    0    0    0    0 -0.00000000000E+00 -0.00000000000E+00 -0.45593999997E+02  0.45594000000E+02  0.51100000000E-03 0. -1.
    9900012    2    1    2    0    0  0.23827043842E+01 -0.10024900116E+02  0.42159783838E+02  0.47787271022E+02  0.19999999898E+02 0.  0.
         12    1    1    2    0    0 -0.23827043842E+01  0.10024900116E+02 -0.42159783838E+02  0.43400728978E+02  0.00000000000E+00 0. -1.
         11    1    3    3    0    0  0.40942168784E+01 -0.10470328387E+02  0.22149548371E+02  0.24839341410E+02  0.51100000000E-03 0.  1.
        -11    1    3    3    0    0 -0.59678525291E+01 -0.20351643501E+01  0.11449044633E+02  0.13070492761E+02  0.51100000000E-03 0. -1.
         12    1    3    3    0    0  0.42563400348E+01  0.24805926213E+01  0.85611908340E+01  0.98774368508E+01  0.00000000000E+00 0. -1.
</event>
<event>
 7    1  0.2751796E-010  0.4778727E+02  0.7816164E-02  0.1312668E+00
        -11   -1    0    0    0    0  0.00000000000E+00  0.00000000000E+00  0.45593999997E+02  0.45594000000E+02  0.51100000000E-03 0.  1.
         11   -1    0    0    0    0 -0.00000000000E+00 -0.00000000000E+00 -0.45593999997E+02  0.45594000000E+02  0.51100000000E-03 0. -1.
    9900012    2    1    2    0    0 -0.14893504824E+02 -0.18173551340E+02  0.36490119427E+02  0.47787271088E+02  0.20000000200E+02 0.  0.
         12    1    1    2    0    0  0.14893504824E+02  0.18173551340E+02 -0.36490119427E+02  0.43400728912E+02  0.00000000000E+00 0. -1.
         11    1    3    3    0    0 -0.48416874465E+01  0.37300522660E+01  0.47480174607E+01  0.77394377900E+01  0.51100000000E-03 0. -1.
        -11    1    3    3    0    0 -0.10041490145E+02 -0.21917520979E+02  0.31846184740E+02  0.39942317571E+02  0.51100000000E-03 0.  1.
         12    1    3    3    0    0 -0.10327232856E-01  0.13917372565E-01 -0.10408277357E+00  0.10551572751E+00  0.00000000000E+00 0. -1.
</event>
<event>
 7    1  0.2751796E-010  0.4778727E+02  0.7816164E-02  0.1312668E+00
        -11   -1    0    0    0    0  0.00000000000E+00  0.00000000000E+00  0.45593999997E+02  0.45594000000E+02  0.51100000000E-03 0.  1.
         11   -1    0    0    0    0 -0.00000000000E+00 -0.00000000000E+00 -0.45593999997E+02  0.45594000000E+02  0.51100000000E-03 0. -1.
    9900012    2    1    2    0    0  0.13822872126E+02  0.23536239055E+02  0.33743107141E+02  0.47787267031E+02  0.19999981702E+02 0.  0.
         12    1    1    2    0    0 -0.13822872126E+02 -0.23536239055E+02 -0.33743107141E+02  0.43400732969E+02  0.00000000000E+00 0. -1.
         11    1    3    3    0    0  0.12629369968E+02  0.15672268356E+02  0.31640527076E+02  0.37499919135E+02  0.51100000000E-03 0. -1.
        -11    1    3    3    0    0  0.36451133702E+01  0.57610644867E+01  0.11013700285E+01  0.69057752427E+01  0.51100000000E-03 0.  1.
         12    1    3    3    0    0 -0.24516112119E+01  0.21029062129E+01  0.10012100368E+01  0.33815726537E+01  0.00000000000E+00 0. -1.
</event>
<event>
 7    1  0.2751796E-010  0.4778727E+02  0.7816164E-02  0.1312668E+00
        -11   -1    0    0    0    0  0.00000000000E+00  0.00000000000E+00  0.45593999997E+02  0.45594000000E+02  0.51100000000E-03 0. -1.
         11   -1    0    0    0    0 -0.00000000000E+00 -0.00000000000E+00 -0.45593999997E+02  0.45594000000E+02  0.51100000000E-03 0.  1.
    9900012    2    1    2    0    0  0.32155417685E+02 -0.24351849916E+02  0.16019975036E+02  0.47787273267E+02  0.20000010134E+02 0.  0.
         12    1    1    2    0    0 -0.32155417685E+02  0.24351849916E+02 -0.16019975036E+02  0.43400726733E+02  0.00000000000E+00 0. -1.
         11    1    3    3    0    0  0.16974131980E+02 -0.59424793264E+01  0.10840061324E+02  0.20998598687E+02  0.51100000000E-03 0. -1.
        -11    1    3    3    0    0  0.34017585871E+01 -0.42919526347E+01 -0.34552992534E+01  0.64754854717E+01  0.51100000000E-03 0.  1.
        -12    1    3    3    0    0  0.11779527117E+02 -0.14117417955E+02  0.86352129648E+01  0.20313189109E+02  0.00000000000E+00 0.  1.
</event>
<event>
 7    1  0.2751796E-010  0.4778727E+02  0.7816164E-02  0.1312668E+00
        -11   -1    0    0    0    0  0.00000000000E+00  0.00000000000E+00  0.45593999997E+02  0.45594000000E+02  0.51100000000E-03 0. -1.
         11   -1    0    0    0    0 -0.00000000000E+00 -0.00000000000E+00 -0.45593999997E+02  0.45594000000E+02  0.51100000000E-03 0.  1.
    9900012    2    1    2    0    0 -0.38425596002E+02  0.91522683262E+01 -0.17981463436E+02  0.47787268774E+02  0.19999989650E+02 0.  0.
         12    1    1    2    0    0  0.38425596002E+02 -0.91522683262E+01  0.17981463436E+02  0.43400731226E+02  0.00000000000E+00 0. -1.
         11    1    3    3    0    0 -0.28500466747E+01 -0.47523864011E+01 -0.29962188489E+01  0.62996246082E+01  0.51100000000E-03 0. -1.
        -11    1    3    3    0    0 -0.29683172311E+02  0.91124584761E+01 -0.12792472853E+02  0.33582361142E+02  0.51100000000E-03 0.  1.
        -12    1    3    3    0    0 -0.58923770166E+01  0.47921962512E+01 -0.21927717350E+01  0.79052830245E+01  0.00000000000E+00 0.  1.
</event>
<event>
 7    1  0.2751796E-010  0.4778727E+02  0.7816164E-02  0.1312668E+00
        -11   -1    0    0    0    0  0.00000000000E+00  0.00000000000E+00  0.45593999997E+02  0.45594000000E+02  0.51100000000E-03 0.  1.
         11   -1    0    0    0    0 -0.00000000000E+00 -0.00000000000E+00 -0.45593999997E+02  0.45594000000E+02  0.51100000000E-03 0. -1.
    9900012    2    1    2    0    0  0.11362424425E+02  0.99317035757E+00  0.41875203485E+02  0.47787265639E+02  0.19999975356E+02 0.  0.
         12    1    1    2    0    0 -0.11362424425E+02 -0.99317035757E+00 -0.41875203485E+02  0.43400734361E+02  0.00000000000E+00 0. -1.
         11    1    3    3    0    0 -0.39191741014E+01 -0.11926930519E+01  0.36244224922E+01  0.54698154463E+01  0.51100000000E-03 0. -1.
        -11    1    3    3    0    0  0.17893491222E+01 -0.26485976001E+01  0.11892808868E+02  0.12314858609E+02  0.51100000000E-03 0.  1.
        -12    1    3    3    0    0  0.13492249405E+02  0.48344610095E+01  0.26357972125E+02  0.30002591584E+02  0.00000000000E+00 0.  1.
</event>
<event>
 7    1  0.2751796E-010  0.4778727E+02  0.7816164E-02  0.1312668E+00
        -11   -1    0    0    0    0  0.00000000000E+00  0.00000000000E+00  0.45593999997E+02  0.45594000000E+02  0.51100000000E-03 0.  1.
         11   -1    0    0    0    0 -0.00000000000E+00 -0.00000000000E+00 -0.45593999997E+02  0.45594000000E+02  0.51100000000E-03 0. -1.
    9900012    2    1    2    0    0  0.20294505375E+02  0.20987027683E+02  0.32113877322E+02  0.47787269637E+02  0.19999993582E+02 0.  0.
         12    1    1    2    0    0 -0.20294505375E+02 -0.20987027683E+02 -0.32113877322E+02  0.43400730363E+02  0.00000000000E+00 0. -1.
         11    1    3    3    0    0 -0.30863057847E+01  0.99463869447E+00  0.10107460200E+01  0.33964978002E+01  0.51100000000E-03 0. -1.
        -11    1    3    3    0    0  0.10109381667E+02  0.41069171682E+01  0.94471002188E+01  0.14433089382E+02  0.51100000000E-03 0.  1.
         12    1    3    3    0    0  0.13271429493E+02  0.15885471821E+02  0.21656031083E+02  0.29957682454E+02  0.00000000000E+00 0. -1.
</event>
<event>
 7    1  0.2751796E-010  0.4778725E+02  0.7816164E-02  0.1312668E+00
        -11   -1    0    0    0    0  0.00000000000E+00  0.00000000000E+00  0.45593999997E+02  0.45594000000E+02  0.51100000000E-03 0.  1.
         11   -1    0    0    0    0 -0.00000000000E+00 -0.00000000000E+00 -0.45593999997E+02  0.45594000000E+02  0.51100000000E-03 0. -1.
    9900012    2    1    2    0    0 -0.40192003043E+01  0.16761283224E+02  0.39831273103E+02  0.47787252271E+02  0.19999914406E+02 0.  0.
         12    1    1    2    0    0  0.40192003043E+01 -0.16761283224E+02 -0.39831273103E+02  0.43400747729E+02  0.00000000000E+00 0. -1.
         11    1    3    3    0    0 -0.30271836015E+00  0.34198807555E+01  0.37600630567E+01  0.50916890360E+01  0.51100000000E-03 0. -1.
        -11    1    3    3    0    0 -0.41000579238E+01  0.13826144919E+02  0.38013601140E+02  0.40657184238E+02  0.51100000000E-03 0.  1.
        -12    1    3    3    0    0  0.38357597961E+00 -0.48474245061E+00 -0.19423910935E+01  0.20383789971E+01  0.00000000000E+00 0.  1.
</event>
<event>
 7    1  0.2751796E-010  0.4778727E+02  0.7816164E-02  0.1312668E+00
        -11   -1    0    0    0    0  0.00000000000E+00  0.00000000000E+00  0.45593999997E+02  0.45594000000E+02  0.51100000000E-03 0.  1.
         11   -1    0    0    0    0 -0.00000000000E+00 -0.00000000000E+00 -0.45593999997E+02  0.45594000000E+02  0.51100000000E-03 0. -1.
    9900012    2    1    2    0    0  0.14858879523E+02  0.61999180014E+01  0.40303821024E+02  0.47787271054E+02  0.20000000045E+02 0.  0.
         12    1    1    2    0    0 -0.14858879523E+02 -0.61999180014E+01 -0.40303821024E+02  0.43400728946E+02  0.00000000000E+00 0. -1.
         11    1    3    3    0    0 -0.19158092095E+01  0.84479431447E+01  0.11870437519E+02  0.14695079294E+02  0.51100000000E-03 0. -1.
        -11    1    3    3    0    0  0.87482920247E+01 -0.13904423484E+01  0.14944446565E+02  0.17372461733E+02  0.51100000000E-03 0.  1.
         12    1    3    3    0    0  0.80263967079E+01 -0.85758279491E+00  0.13488936940E+02  0.15719730027E+02  0.00000000000E+00 0. -1.
</event>
<event>
 7    1  0.2751796E-010  0.4778729E+02  0.7816164E-02  0.1312668E+00
        -11   -1    0    0    0    0  0.00000000000E+00  0.00000000000E+00  0.45593999997E+02  0.45594000000E+02  0.51100000000E-03 0.  1.
         11   -1    0    0    0    0 -0.00000000000E+00 -0.00000000000E+00 -0.45593999997E+02  0.45594000000E+02  0.51100000000E-03 0. -1.
    9900012    2    1    2    0    0 -0.11498595945E+02  0.52153187462E+01  0.41523543445E+02  0.47787286658E+02  0.20000071190E+02 0.  0.
         12    1    1    2    0    0  0.11498595945E+02 -0.52153187462E+01 -0.41523543445E+02  0.43400713342E+02  0.00000000000E+00 0. -1.
         11    1    3    3    0    0 -0.88759258539E+01  0.21660454130E+01  0.38242283867E+02  0.39318520930E+02  0.51100000000E-03 0.  1.
        -11    1    3    3    0    0 -0.41640801165E+01  0.25675872908E+00  0.43642172506E+00  0.41947529659E+01  0.51100000000E-03 0. -1.
        -12    1    3    3    0    0  0.15414100257E+01  0.27925146041E+01  0.28448378528E+01  0.42740127620E+01  0.00000000000E+00 0.  1.
</event>
<event>
 7    1  0.2751796E-010  0.4778726E+02  0.7816164E-02  0.1312668E+00
        -11   -1    0    0    0    0  0.00000000000E+00  0.00000000000E+00  0.45593999997E+02  0.45594000000E+02  0.51100000000E-03 0.  1.
         11   -1    0    0    0    0 -0.00000000000E+00 -0.00000000000E+00 -0.45593999997E+02  0.45594000000E+02  0.51100000000E-03 0. -1.
    9900012    2    1    2    0    0  0.25205286216E+02 -0.33474902391E+02 -0.11302584938E+02  0.47787263030E+02  0.19999963457E+02 0.  0.
         12    1    1    2    0    0 -0.25205286216E+02  0.33474902391E+02  0.11302584938E+02  0.43400736970E+02  0.00000000000E+00 0. -1.
         11    1    3    3    0    0  0.30047345986E+01 -0.69572483089E+01  0.45581874210E+01  0.88435743264E+01  0.51100000000E-03 0. -1.
        -11    1    3    3    0    0  0.15167788891E+02 -0.22311459516E+02 -0.96181741372E+01  0.28642142371E+02  0.51100000000E-03 0.  1.
        -12    1    3    3    0    0  0.70327627257E+01 -0.42061945658E+01 -0.62425982217E+01  0.10301546332E+02  0.00000000000E+00 0.  1.
</event>
<event>
 7    1  0.2751796E-010  0.4778726E+02  0.7816164E-02  0.1312668E+00
        -11   -1    0    0    0    0  0.00000000000E+00  0.00000000000E+00  0.45593999997E+02  0.45594000000E+02  0.51100000000E-03 0.  1.
         11   -1    0    0    0    0 -0.00000000000E+00 -0.00000000000E+00 -0.45593999997E+02  0.45594000000E+02  0.51100000000E-03 0. -1.
    9900012    2    1    2    0    0  0.73195325219E+01 -0.25490780962E+02  0.34355040931E+02  0.47787259133E+02  0.19999945691E+02 0.  0.
         12    1    1    2    0    0 -0.73195325219E+01  0.25490780962E+02 -0.34355040931E+02  0.43400740867E+02  0.00000000000E+00 0. -1.
         11    1    3    3    0    0  0.25311644787E+01  0.19075602934E+01  0.19818463580E+01  0.37380870963E+01  0.51100000000E-03 0. -1.
        -11    1    3    3    0    0  0.67050529300E+01 -0.24911863444E+02  0.24521191481E+02  0.35592801336E+02  0.51100000000E-03 0.  1.
        -12    1    3    3    0    0 -0.19166848868E+01 -0.24864778118E+01  0.78520030922E+01  0.84563707004E+01  0.00000000000E+00 0.  1.
</event>
<event>
 7    1  0.2751796E-010  0.4778727E+02  0.7816164E-02  0.1312668E+00
        -11   -1    0    0    0    0  0.00000000000E+00  0.00000000000E+00  0.45593999997E+02  0.45594000000E+02  0.51100000000E-03 0.  1.
         11   -1    0    0    0    0 -0.00000000000E+00 -0.00000000000E+00 -0.45593999997E+02  0.45594000000E+02  0.51100000000E-03 0. -1.
    9900012    2    1    2    0    0  0.37610555647E+02 -0.19329842580E+02 -0.97686739735E+01  0.47787266118E+02  0.19999977539E+02 0.  0.
         12    1    1    2    0    0 -0.37610555647E+02  0.19329842580E+02  0.97686739735E+01  0.43400733882E+02  0.00000000000E+00 0. -1.
         11    1    3    3    0    0  0.20495496581E+01  0.35769336538E+01 -0.17669913579E+01  0.44852387768E+01  0.51100000000E-03 0. -1.
        -11    1    3    3    0    0  0.26195176303E+02 -0.17040431050E+02 -0.38056873312E+01  0.31480895925E+02  0.51100000000E-03 0.  1.
         12    1    3    3    0    0  0.93658296864E+01 -0.58663451844E+01 -0.41959952844E+01  0.11821131416E+02  0.00000000000E+00 0. -1.
</event>
<event>
 7    1  0.2751796E-010  0.4778727E+02  0.7816164E-02  0.1312668E+00
        -11   -1    0    0    0    0  0.00000000000E+00  0.00000000000E+00  0.45593999997E+02  0.45594000000E+02  0.51100000000E-03 0. -1.
         11   -1    0    0    0    0 -0.00000000000E+00 -0.00000000000E+00 -0.45593999997E+02  0.45594000000E+02  0.51100000000E-03 0.  1.
    9900012    2    1    2    0    0  0.15994645052E+02 -0.69815460083E+01 -0.39737297482E+02  0.47787268829E+02  0.19999989898E+02 0.  0.
         12    1    1    2    0    0 -0.15994645052E+02  0.69815460083E+01  0.39737297482E+02  0.43400731171E+02  0.00000000000E+00 0. -1.
         11    1    3    3    0    0  0.11616981638E+02 -0.14415158872E+01 -0.16152186157E+02  0.19948066281E+02  0.51100000000E-03 0.  1.
        -11    1    3    3    0    0  0.70526741612E+01 -0.71277363223E+01 -0.11039096706E+02  0.14913299241E+02  0.51100000000E-03 0. -1.
        -12    1    3    3    0    0 -0.26750107469E+01  0.15877062013E+01 -0.12546014619E+02  0.12925903307E+02  0.00000000000E+00 0.  1.
</event>
<event>
 7    1  0.2751796E-010  0.4778727E+02  0.7816164E-02  0.1312668E+00
        -11   -1    0    0    0    0  0.00000000000E+00  0.00000000000E+00  0.45593999997E+02  0.45594000000E+02  0.51100000000E-03 0.  1.
         11   -1    0    0    0    0 -0.00000000000E+00 -0.00000000000E+00 -0.45593999997E+02  0.45594000000E+02  0.51100000000E-03 0. -1.
    9900012    2    1    2    0    0 -0.19036543070E+02 -0.41310276688E+01  0.38783602620E+02  0.47787271966E+02  0.20000004203E+02 0.  0.
         12    1    1    2    0    0  0.19036543070E+02  0.41310276688E+01 -0.38783602620E+02  0.43400728034E+02  0.00000000000E+00 0. -1.
         11    1    3    3    0    0 -0.68986328792E+00 -0.70905239232E+01  0.10721848667E+02  0.12872819426E+02  0.51100000000E-03 0. -1.
        -11    1    3    3    0    0 -0.13380486041E+02  0.48923403848E+01  0.24983613831E+02  0.28760274015E+02  0.51100000000E-03 0.  1.
        -12    1    3    3    0    0 -0.49661937419E+01 -0.19328441304E+01  0.30781401222E+01  0.61541785257E+01  0.00000000000E+00 0.  1.
</event>
<event>
 7    1  0.2751796E-010  0.4778727E+02  0.7816164E-02  0.1312668E+00
        -11   -1    0    0    0    0  0.00000000000E+00  0.00000000000E+00  0.45593999997E+02  0.45594000000E+02  0.51100000000E-03 0. -1.
         11   -1    0    0    0    0 -0.00000000000E+00 -0.00000000000E+00 -0.45593999997E+02  0.45594000000E+02  0.51100000000E-03 0.  1.
    9900012    2    1    2    0    0  0.34158706054E+02 -0.12161885276E+02 -0.23851506105E+02  0.47787274243E+02  0.20000014584E+02 0.  0.
         12    1    1    2    0    0 -0.34158706054E+02  0.12161885276E+02  0.23851506105E+02  0.43400725757E+02  0.00000000000E+00 0. -1.
         11    1    3    3    0    0  0.26687800337E+01 -0.32315860467E+01  0.30965492302E+01  0.52109646556E+01  0.51100000000E-03 0. -1.
        -11    1    3    3    0    0  0.24375099867E+02 -0.58540843022E+01 -0.22208252157E+02  0.33490629446E+02  0.51100000000E-03 0.  1.
         12    1    3    3    0    0  0.71148261532E+01 -0.30762149269E+01 -0.47398031787E+01  0.90856801418E+01  0.00000000000E+00 0. -1.
</event>
<event>
 7    1  0.2751796E-010  0.4778727E+02  0.7816164E-02  0.1312668E+00
        -11   -1    0    0    0    0  0.00000000000E+00  0.00000000000E+00  0.45593999997E+02  0.45594000000E+02  0.51100000000E-03 0.  1.
         11   -1    0    0    0    0 -0.00000000000E+00 -0.00000000000E+00 -0.45593999997E+02  0.45594000000E+02  0.51100000000E-03 0. -1.
    9900012    2    1    2    0    0 -0.31103351918E+02 -0.25756731136E+02 -0.15899552062E+02  0.47787268957E+02  0.19999990482E+02 0.  0.
         12    1    1    2    0    0  0.31103351918E+02  0.25756731136E+02  0.15899552062E+02  0.43400731043E+02  0.00000000000E+00 0. -1.
         11    1    3    3    0    0 -0.62280725631E+01 -0.50486343929E-01 -0.87084265012E+01  0.10706452686E+02  0.51100000000E-03 0. -1.
        -11    1    3    3    0    0 -0.23712246164E+02 -0.21622867209E+02 -0.69060081515E+01  0.32825477199E+02  0.51100000000E-03 0.  1.
        -12    1    3    3    0    0 -0.11630331910E+01 -0.40833775826E+01 -0.28511740885E+00  0.42553390726E+01  0.00000000000E+00 0.  1.
</event>
<event>
 7    1  0.2751796E-010  0.4778725E+02  0.7816164E-02  0.1312668E+00
        -11   -1    0    0    0    0  0.00000000000E+00  0.00000000000E+00  0.45593999997E+02  0.45594000000E+02  0.51100000000E-03 0.  1.
         11   -1    0    0    0    0 -0.00000000000E+00 -0.00000000000E+00 -0.45593999997E+02  0.45594000000E+02  0.51100000000E-03 0. -1.
    9900012    2    1    2    0    0  0.19504253618E+02  0.12844151666E+02  0.36581916811E+02  0.47787253707E+02  0.19999920953E+02 0.  0.
         12    1    1    2    0    0 -0.19504253618E+02 -0.12844151666E+02 -0.36581916811E+02  0.43400746293E+02  0.00000000000E+00 0. -1.
         11    1    3    3    0    0  0.12404310614E+00 -0.10704308274E+01  0.18332181176E+01  0.21264754351E+01  0.51100000000E-03 0. -1.
        -11    1    3    3    0    0  0.13288785310E+02 -0.11729913165E+01  0.15059264216E+02  0.20118378728E+02  0.51100000000E-03 0.  1.
        -12    1    3    3    0    0  0.60914252010E+01  0.15087573810E+02  0.19689434478E+02  0.25542399545E+02  0.00000000000E+00 0.  1.
</event>
<event>
 7    1  0.2751796E-010  0.4778731E+02  0.7816164E-02  0.1312668E+00
        -11   -1    0    0    0    0  0.00000000000E+00  0.00000000000E+00  0.45593999997E+02  0.45594000000E+02  0.51100000000E-03 0. -1.
         11   -1    0    0    0    0 -0.00000000000E+00 -0.00000000000E+00 -0.45593999997E+02  0.45594000000E+02  0.51100000000E-03 0.  1.
    9900012    2    1    2    0    0 -0.44828302293E+01  0.34460449192E+02 -0.26000026918E+02  0.47787311929E+02  0.20000186406E+02 0.  0.
         12    1    1    2    0    0  0.44828302293E+01 -0.34460449192E+02  0.26000026918E+02  0.43400688071E+02  0.00000000000E+00 0. -1.
         11    1    3    3    0    0 -0.32372867194E+01 -0.78553260127E+00 -0.64229449636E+01  0.72354204465E+01  0.51100000000E-03 0. -1.
        -11    1    3    3    0    0 -0.24400462524E+01  0.21679673169E+02 -0.13349467183E+02  0.25576753679E+02  0.51100000000E-03 0.  1.
         12    1    3    3    0    0  0.11945027425E+01  0.13566308624E+02 -0.62276147718E+01  0.14975137803E+02  0.00000000000E+00 0. -1.
</event>
<event>
 7    1  0.2751796E-010  0.4778727E+02  0.7816164E-02  0.1312668E+00
        -11   -1    0    0    0    0  0.00000000000E+00  0.00000000000E+00  0.45593999997E+02  0.45594000000E+02  0.51100000000E-03 0. -1.
         11   -1    0    0    0    0 -0.00000000000E+00 -0.00000000000E+00 -0.45593999997E+02  0.45594000000E+02  0.51100000000E-03 0.  1.
    9900012    2    1    2    0    0  0.54036574954E+01  0.40717032501E+02 -0.14019535597E+02  0.47787266960E+02  0.19999981379E+02 0.  0.
         12    1    1    2    0    0 -0.54036574954E+01 -0.40717032501E+02  0.14019535597E+02  0.43400733040E+02  0.00000000000E+00 0. -1.
         11    1    3    3    0    0 -0.38006046694E+01  0.90058591285E+01  0.20794064053E+01  0.99936993028E+01  0.51100000000E-03 0. -1.
        -11    1    3    3    0    0  0.78523547364E+01  0.11617226167E+02 -0.74119273289E+01  0.15860519718E+02  0.51100000000E-03 0.  1.
         12    1    3    3    0    0  0.13519074284E+01  0.20093947206E+02 -0.86870146732E+01  0.21933047940E+02  0.00000000000E+00 0. -1.
</event>
<event>
 7    1  0.2751796E-010  0.4778727E+02  0.7816164E-02  0.1312668E+00
        -11   -1    0    0    0    0  0.00000000000E+00  0.00000000000E+00  0.45593999997E+02  0.45594000000E+02  0.51100000000E-03 0.  1.
         11   -1    0    0    0    0 -0.00000000000E+00 -0.00000000000E+00 -0.45593999997E+02  0.45594000000E+02  0.51100000000E-03 0. -1.
    9900012    2    1    2    0    0 -0.31381750010E+02  0.26148410566E+02  0.14665253057E+02  0.47787271250E+02  0.20000000935E+02 0.  0.
         12    1    1    2    0    0  0.31381750010E+02 -0.26148410566E+02 -0.14665253057E+02  0.43400728750E+02  0.00000000000E+00 0. -1.
         11    1    3    3    0    0 -0.11025222492E+02  0.34969064478E+01  0.42274136953E+00  0.11574221193E+02  0.51100000000E-03 0. -1.
        -11    1    3    3    0    0 -0.10425533432E+02  0.19678392879E+02  0.62698175563E+01  0.23135287033E+02  0.51100000000E-03 0.  1.
        -12    1    3    3    0    0 -0.99309940858E+01  0.29731112394E+01  0.79726941316E+01  0.13077763023E+02  0.00000000000E+00 0.  1.
</event>
<event>
 7    1  0.2751796E-010  0.4778727E+02  0.7816164E-02  0.1312668E+00
        -11   -1    0    0    0    0  0.00000000000E+00  0.00000000000E+00  0.45593999997E+02  0.45594000000E+02  0.51100000000E-03 0.  1.
         11   -1    0    0    0    0 -0.00000000000E+00 -0.00000000000E+00 -0.45593999997E+02  0.45594000000E+02  0.51100000000E-03 0. -1.
    9900012    2    1    2    0    0  0.12476888947E+02  0.23759991567E+02  0.34108840965E+02  0.47787274325E+02  0.20000014960E+02 0.  0.
         12    1    1    2    0    0 -0.12476888947E+02 -0.23759991567E+02 -0.34108840965E+02  0.43400725675E+02  0.00000000000E+00 0. -1.
         11    1    3    3    0    0  0.83195879788E+01  0.12001395085E+02  0.65306844419E+01  0.15996839302E+02  0.51100000000E-03 0. -1.
        -11    1    3    3    0    0 -0.60407354956E+00 -0.89709882286E+00  0.75376445459E+01  0.76148392440E+01  0.51100000000E-03 0.  1.
        -12    1    3    3    0    0  0.47613745182E+01  0.12655695305E+02  0.20040511977E+02  0.24175595779E+02  0.00000000000E+00 0.  1.
</event>
<event>
 7    1  0.2751796E-010  0.4778727E+02  0.7816164E-02  0.1312668E+00
        -11   -1    0    0    0    0  0.00000000000E+00  0.00000000000E+00  0.45593999997E+02  0.45594000000E+02  0.51100000000E-03 0. -1.
         11   -1    0    0    0    0 -0.00000000000E+00 -0.00000000000E+00 -0.45593999997E+02  0.45594000000E+02  0.51100000000E-03 0.  1.
    9900012    2    1    2    0    0  0.36256471699E+02 -0.23854612144E+02 -0.22110757153E+00  0.47787272481E+02  0.20000006551E+02 0.  0.
         12    1    1    2    0    0 -0.36256471699E+02  0.23854612144E+02  0.22110757153E+00  0.43400727519E+02  0.00000000000E+00 0. -1.
         11    1    3    3    0    0  0.13306744384E+02 -0.18574860942E+02 -0.55131554319E+01  0.23505101323E+02  0.51100000000E-03 0. -1.
        -11    1    3    3    0    0  0.20329891315E+02 -0.40354104974E+01  0.52518697489E+01  0.21381561096E+02  0.51100000000E-03 0.  1.
         12    1    3    3    0    0  0.26198359998E+01 -0.12443407047E+01  0.40178111475E-01  0.29006100627E+01  0.00000000000E+00 0. -1.
</event>
<event>
 7    1  0.2751796E-010  0.4778727E+02  0.7816164E-02  0.1312668E+00
        -11   -1    0    0    0    0  0.00000000000E+00  0.00000000000E+00  0.45593999997E+02  0.45594000000E+02  0.51100000000E-03 0. -1.
         11   -1    0    0    0    0 -0.00000000000E+00 -0.00000000000E+00 -0.45593999997E+02  0.45594000000E+02  0.51100000000E-03 0.  1.
    9900012    2    1    2    0    0 -0.36156087979E+02 -0.20695694857E+02 -0.12167527098E+02  0.47787271905E+02  0.20000003921E+02 0.  0.
         12    1    1    2    0    0  0.36156087979E+02  0.20695694857E+02  0.12167527098E+02  0.43400728095E+02  0.00000000000E+00 0. -1.
         11    1    3    3    0    0 -0.53822008490E+01 -0.99164437841E+01 -0.60414968619E+01  0.12798579136E+02  0.51100000000E-03 0. -1.
        -11    1    3    3    0    0 -0.29420753861E+02 -0.12421622261E+02 -0.43768327712E+01  0.32234052223E+02  0.51100000000E-03 0.  1.
         12    1    3    3    0    0 -0.13531332691E+01  0.16423711888E+01 -0.17491974647E+01  0.27546405457E+01  0.00000000000E+00 0. -1.
</event>
<event>
 7    1  0.2751796E-010  0.4778727E+02  0.7816164E-02  0.1312668E+00
        -11   -1    0    0    0    0  0.00000000000E+00  0.00000000000E+00  0.45593999997E+02  0.45594000000E+02  0.51100000000E-03 0.  1.
         11   -1    0    0    0    0 -0.00000000000E+00 -0.00000000000E+00 -0.45593999997E+02  0.45594000000E+02  0.51100000000E-03 0. -1.
    9900012    2    1    2    0    0 -0.18783444147E+02 -0.37143310917E+02  0.12295521527E+02  0.47787272246E+02  0.20000005480E+02 0.  0.
         12    1    1    2    0    0  0.18783444147E+02  0.37143310917E+02 -0.12295521527E+02  0.43400727754E+02  0.00000000000E+00 0. -1.
         11    1    3    3    0    0 -0.12061721840E+01 -0.20087783750E+02  0.76780756910E+01  0.21538958979E+02  0.51100000000E-03 0. -1.
        -11    1    3    3    0    0 -0.43581261919E+01 -0.32965746435E+01  0.46390510329E+01  0.71680864275E+01  0.51100000000E-03 0.  1.
         12    1    3    3    0    0 -0.13219145771E+02 -0.13758952524E+02 -0.21605197091E-01  0.19080226840E+02  0.00000000000E+00 0. -1.
</event>
<event>
 7    1  0.2751796E-010  0.4778727E+02  0.7816164E-02  0.1312668E+00
        -11   -1    0    0    0    0  0.00000000000E+00  0.00000000000E+00  0.45593999997E+02  0.45594000000E+02  0.51100000000E-03 0.  1.
         11   -1    0    0    0    0 -0.00000000000E+00 -0.00000000000E+00 -0.45593999997E+02  0.45594000000E+02  0.51100000000E-03 0. -1.
    9900012    2    1    2    0    0  0.28167374599E+02 -0.80425378213E+01  0.32024054330E+02  0.47787268875E+02  0.19999990111E+02 0.  0.
         12    1    1    2    0    0 -0.28167374599E+02  0.80425378213E+01 -0.32024054330E+02  0.43400731125E+02  0.00000000000E+00 0. -1.
         11    1    3    3    0    0 -0.26823678786E+01 -0.31389896595E+01  0.34368928174E+01  0.53722049493E+01  0.51100000000E-03 0. -1.
        -11    1    3    3    0    0  0.14997173255E+02 -0.33319803385E+01  0.12954098196E+02  0.20095421343E+02  0.51100000000E-03 0.  1.
         12    1    3    3    0    0  0.15852569222E+02 -0.15715678234E+01  0.15633063317E+02  0.22319642583E+02  0.00000000000E+00 0. -1.
</event>
<event>
 7    1  0.2751796E-010  0.4778727E+02  0.7816164E-02  0.1312668E+00
        -11   -1    0    0    0    0  0.00000000000E+00  0.00000000000E+00  0.45593999997E+02  0.45594000000E+02  0.51100000000E-03 0.  1.
         11   -1    0    0    0    0 -0.00000000000E+00 -0.00000000000E+00 -0.45593999997E+02  0.45594000000E+02  0.51100000000E-03 0. -1.
    9900012    2    1    2    0    0 -0.30315205375E+02 -0.81862989965E+01  0.29959909984E+02  0.47787269886E+02  0.19999994720E+02 0.  0.
         12    1    1    2    0    0  0.30315205375E+02  0.81862989965E+01 -0.29959909984E+02  0.43400730114E+02  0.00000000000E+00 0. -1.
         11    1    3    3    0    0 -0.11432390654E+02  0.12329539384E+01  0.16217567690E+02  0.19880373073E+02  0.51100000000E-03 0. -1.
        -11    1    3    3    0    0 -0.12572455549E+02 -0.51704972549E+01  0.17515927699E+01  0.13706522457E+02  0.51100000000E-03 0.  1.
         12    1    3    3    0    0 -0.63103591726E+01 -0.42487556800E+01  0.11990749523E+02  0.14200374356E+02  0.00000000000E+00 0. -1.
</event>
<event>
 7    1  0.2751796E-010  0.4778727E+02  0.7816164E-02  0.1312668E+00
        -11   -1    0    0    0    0  0.00000000000E+00  0.00000000000E+00  0.45593999997E+02  0.45594000000E+02  0.51100000000E-03 0.  1.
         11   -1    0    0    0    0 -0.00000000000E+00 -0.00000000000E+00 -0.45593999997E+02  0.45594000000E+02  0.51100000000E-03 0. -1.
    9900012    2    1    2    0    0  0.37476639708E+02 -0.18537078564E+02 -0.11640507862E+02  0.47787271564E+02  0.20000002369E+02 0.  0.
         12    1    1    2    0    0 -0.37476639708E+02  0.18537078564E+02  0.11640507862E+02  0.43400728436E+02  0.00000000000E+00 0. -1.
         11    1    3    3    0    0  0.10966117542E+02 -0.13010908068E+02 -0.88835701587E+01  0.19195241122E+02  0.51100000000E-03 0. -1.
        -11    1    3    3    0    0  0.86539718538E+01  0.22511068542E+01 -0.15738876352E+01  0.90794181236E+01  0.51100000000E-03 0.  1.
        -12    1    3    3    0    0  0.17856550312E+02 -0.77772773501E+01 -0.11830500681E+01  0.19512612319E+02  0.00000000000E+00 0.  1.
</event>
<event>
 7    1  0.2751796E-010  0.4778727E+02  0.7816164E-02  0.1312668E+00
        -11   -1    0    0    0    0  0.00000000000E+00  0.00000000000E+00  0.45593999997E+02  0.45594000000E+02  0.51100000000E-03 0.  1.
         11   -1    0    0    0    0 -0.00000000000E+00 -0.00000000000E+00 -0.45593999997E+02  0.45594000000E+02  0.51100000000E-03 0. -1.
    9900012    2    1    2    0    0 -0.12126853441E+02 -0.93029624225E+01  0.40620406851E+02  0.47787272622E+02  0.20000007191E+02 0.  0.
         12    1    1    2    0    0  0.12126853441E+02  0.93029624225E+01 -0.40620406851E+02  0.43400727378E+02  0.00000000000E+00 0. -1.
         11    1    3    3    0    0 -0.73702613183E+01 -0.14139996336E+02  0.29235391467E+02  0.33301176598E+02  0.51100000000E-03 0. -1.
        -11    1    3    3    0    0 -0.42973931314E+01  0.35484854783E+01  0.11805625564E+02  0.13054965804E+02  0.51100000000E-03 0.  1.
         12    1    3    3    0    0 -0.45919899142E+00  0.12885484356E+01 -0.42061017975E+00  0.14311302205E+01  0.00000000000E+00 0. -1.
</event>
<event>
 7    1  0.2751796E-010  0.4778727E+02  0.7816164E-02  0.1312668E+00
        -11   -1    0    0    0    0  0.00000000000E+00  0.00000000000E+00  0.45593999997E+02  0.45594000000E+02  0.51100000000E-03 0.  1.
         11   -1    0    0    0    0 -0.00000000000E+00 -0.00000000000E+00 -0.45593999997E+02  0.45594000000E+02  0.51100000000E-03 0. -1.
    9900012    2    1    2    0    0  0.22965443662E+02  0.21548343293E+01  0.36763683357E+02  0.47787270426E+02  0.19999997181E+02 0.  0.
         12    1    1    2    0    0 -0.22965443662E+02 -0.21548343293E+01 -0.36763683357E+02  0.43400729574E+02  0.00000000000E+00 0. -1.
         11    1    3    3    0    0 -0.12362381080E+01  0.54149502147E+01  0.42888336731E+01  0.70174115616E+01  0.51100000000E-03 0. -1.
        -11    1    3    3    0    0  0.91611121508E+01 -0.26182541700E+01  0.14066909937E+02  0.16989973107E+02  0.51100000000E-03 0.  1.
         12    1    3    3    0    0  0.15040569619E+02 -0.64186171540E+00  0.18407939747E+02  0.23779885758E+02  0.00000000000E+00 0. -1.
</event>
<event>
 7    1  0.2751796E-010  0.4778727E+02  0.7816164E-02  0.1312668E+00
        -11   -1    0    0    0    0  0.00000000000E+00  0.00000000000E+00  0.45593999997E+02  0.45594000000E+02  0.51100000000E-03 0.  1.
         11   -1    0    0    0    0 -0.00000000000E+00 -0.00000000000E+00 -0.45593999997E+02  0.45594000000E+02  0.51100000000E-03 0. -1.
    9900012    2    1    2    0    0  0.43184067537E+02 -0.11822764359E+01 -0.41667944343E+01  0.47787266798E+02  0.19999980640E+02 0.  0.
         12    1    1    2    0    0 -0.43184067537E+02  0.11822764359E+01  0.41667944343E+01  0.43400733202E+02  0.00000000000E+00 0. -1.
         11    1    3    3    0    0  0.28029244393E+02  0.26936739970E+01 -0.59871619584E+01  0.28787853853E+02  0.51100000000E-03 0. -1.
        -11    1    3    3    0    0  0.14993322328E+02 -0.57119090688E+01  0.35934171598E+01  0.16441966634E+02  0.51100000000E-03 0.  1.
         12    1    3    3    0    0  0.16150081497E+00  0.18359586359E+01 -0.17730496357E+01  0.25574463115E+01  0.00000000000E+00 0. -1.
</event>
<event>
 7    1  0.2751796E-010  0.4778727E+02  0.7816164E-02  0.1312668E+00
        -11   -1    0    0    0    0  0.00000000000E+00  0.00000000000E+00  0.45593999997E+02  0.45594000000E+02  0.51100000000E-03 0. -1.
         11   -1    0    0    0    0 -0.00000000000E+00 -0.00000000000E+00 -0.45593999997E+02  0.45594000000E+02  0.51100000000E-03 0.  1.
    9900012    2    1    2    0    0  0.28837294223E+01  0.34652553881E+02 -0.25971291762E+02  0.47787269803E+02  0.19999994340E+02 0.  0.
         12    1    1    2    0    0 -0.28837294223E+01 -0.34652553881E+02  0.25971291762E+02  0.43400730197E+02  0.00000000000E+00 0. -1.
         11    1    3    3    0    0 -0.93915210836E+00  0.14007910870E+02 -0.75243950374E+00  0.14059507071E+02  0.51100000000E-03 0. -1.
        -11    1    3    3    0    0  0.47090263314E+01  0.20498648595E+02 -0.22213095144E+02  0.30590703152E+02  0.51100000000E-03 0.  1.
         12    1    3    3    0    0 -0.88614480073E+00  0.14599441642E+00 -0.30057571138E+01  0.31370595794E+01  0.00000000000E+00 0. -1.
</event>
<event>
 7    1  0.2751796E-010  0.4778727E+02  0.7816164E-02  0.1312668E+00
        -11   -1    0    0    0    0  0.00000000000E+00  0.00000000000E+00  0.45593999997E+02  0.45594000000E+02  0.51100000000E-03 0.  1.
         11   -1    0    0    0    0 -0.00000000000E+00 -0.00000000000E+00 -0.45593999997E+02  0.45594000000E+02  0.51100000000E-03 0. -1.
    9900012    2    1    2    0    0 -0.35534376946E+02  0.23937058097E+02  0.69244887814E+01  0.47787271432E+02  0.20000001768E+02 0.  0.
         12    1    1    2    0    0  0.35534376946E+02 -0.23937058097E+02 -0.69244887814E+01  0.43400728568E+02  0.00000000000E+00 0. -1.
         11    1    3    3    0    0 -0.14305878474E+02  0.16027244084E+02  0.30833911449E+01  0.21703410171E+02  0.51100000000E-03 0. -1.
        -11    1    3    3    0    0 -0.10614174583E+02  0.11730029178E+00  0.67758626432E+01  0.12593124166E+02  0.51100000000E-03 0.  1.
        -12    1    3    3    0    0 -0.10614323889E+02  0.77925137216E+01 -0.29347650067E+01  0.13490737095E+02  0.00000000000E+00 0.  1.
</event>
<event>
 7    1  0.2751796E-010  0.4778728E+02  0.7816164E-02  0.1312668E+00
        -11   -1    0    0    0    0  0.00000000000E+00  0.00000000000E+00  0.45593999997E+02  0.45594000000E+02  0.51100000000E-03 0.  1.
         11   -1    0    0    0    0 -0.00000000000E+00 -0.00000000000E+00 -0.45593999997E+02  0.45594000000E+02  0.51100000000E-03 0. -1.
    9900012    2    1    2    0    0  0.88999010627E+01  0.29388428539E+02  0.30671400271E+02  0.47787276901E+02  0.20000026704E+02 0.  0.
         12    1    1    2    0    0 -0.88999010627E+01 -0.29388428539E+02 -0.30671400271E+02  0.43400723099E+02  0.00000000000E+00 0. -1.
         11    1    3    3    0    0  0.54996311645E+00  0.22377811338E+02  0.19342575597E+02  0.29583849152E+02  0.51100000000E-03 0. -1.
        -11    1    3    3    0    0  0.10047560617E+02  0.52760974248E+01  0.72800836124E+01  0.13482963178E+02  0.51100000000E-03 0.  1.
         12    1    3    3    0    0 -0.16976226704E+01  0.17345197763E+01  0.40487410617E+01  0.47204645714E+01  0.00000000000E+00 0. -1.
</event>
<event>
 7    1  0.2751796E-010  0.4778727E+02  0.7816164E-02  0.1312668E+00
        -11   -1    0    0    0    0  0.00000000000E+00  0.00000000000E+00  0.45593999997E+02  0.45594000000E+02  0.51100000000E-03 0.  1.
         11   -1    0    0    0    0 -0.00000000000E+00 -0.00000000000E+00 -0.45593999997E+02  0.45594000000E+02  0.51100000000E-03 0. -1.
    9900012    2    1    2    0    0 -0.36671496270E+01 -0.26146341768E+01  0.43166410320E+02  0.47787270995E+02  0.19999999773E+02 0.  0.
         12    1    1    2    0    0  0.36671496270E+01  0.26146341768E+01 -0.43166410320E+02  0.43400729005E+02  0.00000000000E+00 0. -1.
         11    1    3    3    0    0  0.50925287317E+01 -0.29420036862E+01  0.59745283297E+01  0.83835686671E+01  0.51100000000E-03 0. -1.
        -11    1    3    3    0    0 -0.54569065270E+01 -0.22269145306E+01  0.32870801658E+02  0.33395008296E+02  0.51100000000E-03 0.  1.
         12    1    3    3    0    0 -0.33027718317E+01  0.25542840400E+01  0.43210803326E+01  0.60086940320E+01  0.00000000000E+00 0. -1.
</event>
<event>
 7    1  0.2751796E-010  0.4778727E+02  0.7816164E-02  0.1312668E+00
        -11   -1    0    0    0    0  0.00000000000E+00  0.00000000000E+00  0.45593999997E+02  0.45594000000E+02  0.51100000000E-03 0.  1.
         11   -1    0    0    0    0 -0.00000000000E+00 -0.00000000000E+00 -0.45593999997E+02  0.45594000000E+02  0.51100000000E-03 0. -1.
    9900012    2    1    2    0    0  0.75979099672E+01 -0.11169619853E+02  0.41244813384E+02  0.47787271036E+02  0.19999999963E+02 0.  0.
         12    1    1    2    0    0 -0.75979099672E+01  0.11169619853E+02 -0.41244813384E+02  0.43400728964E+02  0.00000000000E+00 0. -1.
         11    1    3    3    0    0  0.29468369114E+01 -0.17252292448E+01  0.34118574904E+01  0.48271146170E+01  0.51100000000E-03 0.  1.
        -11    1    3    3    0    0  0.68365195920E+01 -0.32606052658E+01  0.41341784304E+01  0.86290774934E+01  0.51100000000E-03 0. -1.
        -12    1    3    3    0    0 -0.21854465363E+01 -0.61837853422E+01  0.33698777463E+02  0.34331078926E+02  0.00000000000E+00 0.  1.
</event>
<event>
 7    1  0.2751796E-010  0.4778727E+02  0.7816164E-02  0.1312668E+00
        -11   -1    0    0    0    0  0.00000000000E+00  0.00000000000E+00  0.45593999997E+02  0.45594000000E+02  0.51100000000E-03 0.  1.
         11   -1    0    0    0    0 -0.00000000000E+00 -0.00000000000E+00 -0.45593999997E+02  0.45594000000E+02  0.51100000000E-03 0. -1.
    9900012    2    1    2    0    0  0.52319550268E+01  0.24165453567E+02  0.35669044732E+02  0.47787271301E+02  0.20000001170E+02 0.  0.
         12    1    1    2    0    0 -0.52319550268E+01 -0.24165453567E+02 -0.35669044732E+02  0.43400728699E+02  0.00000000000E+00 0. -1.
         11    1    3    3    0    0 -0.62605036822E+01  0.83566557576E+01  0.14936215654E+02  0.18224108761E+02  0.51100000000E-03 0. -1.
        -11    1    3    3    0    0  0.14699339955E+01  0.19060446328E+01  0.75977878828E+01  0.79699493766E+01  0.51100000000E-03 0.  1.
         12    1    3    3    0    0  0.10022524713E+02  0.13902753177E+02  0.13135041196E+02  0.21593213164E+02  0.00000000000E+00 0. -1.
</event>
<event>
 7    1  0.2751796E-010  0.4778727E+02  0.7816164E-02  0.1312668E+00
        -11   -1    0    0    0    0  0.00000000000E+00  0.00000000000E+00  0.45593999997E+02  0.45594000000E+02  0.51100000000E-03 0.  1.
         11   -1    0    0    0    0 -0.00000000000E+00 -0.00000000000E+00 -0.45593999997E+02  0.45594000000E+02  0.51100000000E-03 0. -1.
    9900012    2    1    2    0    0 -0.38147376227E+02  0.14087652005E+02 -0.15163739423E+02  0.47787271374E+02  0.20000001501E+02 0.  0.
         12    1    1    2    0    0  0.38147376227E+02 -0.14087652005E+02  0.15163739423E+02  0.43400728626E+02  0.00000000000E+00 0. -1.
         11    1    3    3    0    0 -0.79407333896E+01 -0.19587102413E+01  0.33982726060E+01  0.88566387270E+01  0.51100000000E-03 0. -1.
        -11    1    3    3    0    0 -0.19320086610E+02  0.99527040424E+01 -0.12278813290E+02  0.24961797220E+02  0.51100000000E-03 0.  1.
         12    1    3    3    0    0 -0.10886556228E+02  0.60936582035E+01 -0.62831987384E+01  0.13968835427E+02  0.00000000000E+00 0. -1.
</event>
<event>
 7    1  0.2751796E-010  0.4778727E+02  0.7816164E-02  0.1312668E+00
        -11   -1    0    0    0    0  0.00000000000E+00  0.00000000000E+00  0.45593999997E+02  0.45594000000E+02  0.51100000000E-03 0. -1.
         11   -1    0    0    0    0 -0.00000000000E+00 -0.00000000000E+00 -0.45593999997E+02  0.45594000000E+02  0.51100000000E-03 0.  1.
    9900012    2    1    2    0    0 -0.40926887307E+02 -0.89332662691E+01  0.11349442193E+02  0.47787272023E+02  0.20000004460E+02 0.  0.
         12    1    1    2    0    0  0.40926887307E+02  0.89332662691E+01 -0.11349442193E+02  0.43400727977E+02  0.00000000000E+00 0. -1.
         11    1    3    3    0    0 -0.15567553943E+02 -0.61094340531E+01 -0.39333068947E+01  0.17179779498E+02  0.51100000000E-03 0. -1.
        -11    1    3    3    0    0 -0.23277836413E+02 -0.13650265438E+01  0.11371450482E+02  0.25942838162E+02  0.51100000000E-03 0.  1.
         12    1    3    3    0    0 -0.20814969508E+01 -0.14588056722E+01  0.39112986054E+01  0.46646543629E+01  0.00000000000E+00 0. -1.
</event>
<event>
 7    1  0.2751796E-010  0.4778727E+02  0.7816164E-02  0.1312668E+00
        -11   -1    0    0    0    0  0.00000000000E+00  0.00000000000E+00  0.45593999997E+02  0.45594000000E+02  0.51100000000E-03 0. -1.
         11   -1    0    0    0    0 -0.00000000000E+00 -0.00000000000E+00 -0.45593999997E+02  0.45594000000E+02  0.51100000000E-03 0.  1.
    9900012    2    1    2    0    0 -0.16420255046E+01  0.31778108546E+02  0.29514043464E+02  0.47787271986E+02  0.20000004294E+02 0.  0.
         12    1    1    2    0    0  0.16420255046E+01 -0.31778108546E+02 -0.29514043464E+02  0.43400728014E+02  0.00000000000E+00 0. -1.
         11    1    3    3    0    0  0.20660884956E+01  0.21634588873E+02  0.82055337963E+01  0.23230474436E+02  0.51100000000E-03 0. -1.
        -11    1    3    3    0    0 -0.18178451702E+01  0.93952904008E+01  0.19906666920E+02  0.22087359075E+02  0.51100000000E-03 0.  1.
         12    1    3    3    0    0 -0.18902688300E+01  0.74822927194E+00  0.14018427479E+01  0.24694384752E+01  0.00000000000E+00 0. -1.
</event>
<event>
 7    1  0.2751796E-010  0.4778726E+02  0.7816164E-02  0.1312668E+00
        -11   -1    0    0    0    0  0.00000000000E+00  0.00000000000E+00  0.45593999997E+02  0.45594000000E+02  0.51100000000E-03 0. -1.
         11   -1    0    0    0    0 -0.00000000000E+00 -0.00000000000E+00 -0.45593999997E+02  0.45594000000E+02  0.51100000000E-03 0.  1.
    9900012    2    1    2    0    0  0.33503182371E+02 -0.37597641377E+00 -0.27586587602E+02  0.47787258039E+02  0.19999940701E+02 0.  0.
         12    1    1    2    0    0 -0.33503182371E+02  0.37597641377E+00  0.27586587602E+02  0.43400741961E+02  0.00000000000E+00 0. -1.
         11    1    3    3    0    0  0.16620099983E+02 -0.87555901132E+00 -0.14253129013E+02  0.21912234344E+02  0.51100000000E-03 0. -1.
        -11    1    3    3    0    0  0.92043678705E+01  0.35857097803E+00 -0.15379610832E+02  0.17927113282E+02  0.51100000000E-03 0.  1.
         12    1    3    3    0    0  0.76787145180E+01  0.14101161952E+00  0.20461522424E+01  0.79479104125E+01  0.00000000000E+00 0. -1.
</event>
<event>
 7    1  0.2751796E-010  0.4778727E+02  0.7816164E-02  0.1312668E+00
        -11   -1    0    0    0    0  0.00000000000E+00  0.00000000000E+00  0.45593999997E+02  0.45594000000E+02  0.51100000000E-03 0.  1.
         11   -1    0    0    0    0 -0.00000000000E+00 -0.00000000000E+00 -0.45593999997E+02  0.45594000000E+02  0.51100000000E-03 0. -1.
    9900012    2    1    2    0    0  0.17215987589E+02  0.35570667689E+02  0.17943263008E+02  0.47787270560E+02  0.19999997792E+02 0.  0.
         12    1    1    2    0    0 -0.17215987589E+02 -0.35570667689E+02 -0.17943263008E+02  0.43400729440E+02  0.00000000000E+00 0. -1.
         11    1    3    3    0    0 -0.26037569197E+01  0.90826202981E+00  0.13989490865E+01  0.30921754186E+01  0.51100000000E-03 0.  1.
        -11    1    3    3    0    0  0.10875509832E+02  0.13137135548E+02  0.18836351247E+01  0.17158354410E+02  0.51100000000E-03 0. -1.
        -12    1    3    3    0    0  0.89442346769E+01  0.21525270112E+02  0.14660678797E+02  0.27536740732E+02  0.00000000000E+00 0.  1.
</event>
<event>
 7    1  0.2751796E-010  0.4778727E+02  0.7816164E-02  0.1312668E+00
        -11   -1    0    0    0    0  0.00000000000E+00  0.00000000000E+00  0.45593999997E+02  0.45594000000E+02  0.51100000000E-03 0. -1.
         11   -1    0    0    0    0 -0.00000000000E+00 -0.00000000000E+00 -0.45593999997E+02  0.45594000000E+02  0.51100000000E-03 0.  1.
    9900012    2    1    2    0    0 -0.20905361226E+02 -0.26437612497E+02 -0.27343037759E+02  0.47787271937E+02  0.20000004069E+02 0.  0.
         12    1    1    2    0    0  0.20905361226E+02  0.26437612497E+02  0.27343037759E+02  0.43400728063E+02  0.00000000000E+00 0. -1.
         11    1    3    3    0    0  0.27985983892E+01 -0.36293110109E+01 -0.29058806360E+01  0.54266190109E+01  0.51100000000E-03 0.  1.
        -11    1    3    3    0    0 -0.12912256921E+02 -0.59715008921E+01 -0.71295973714E+01  0.15912773505E+02  0.51100000000E-03 0. -1.
        -12    1    3    3    0    0 -0.10791702694E+02 -0.16836800594E+02 -0.17307559751E+02  0.26447879420E+02  0.00000000000E+00 0.  1.
</event>
<event>
 7    1  0.2751796E-010  0.4778726E+02  0.7816164E-02  0.1312668E+00
        -11   -1    0    0    0    0  0.00000000000E+00  0.00000000000E+00  0.45593999997E+02  0.45594000000E+02  0.51100000000E-03 0.  1.
         11   -1    0    0    0    0 -0.00000000000E+00 -0.00000000000E+00 -0.45593999997E+02  0.45594000000E+02  0.51100000000E-03 0. -1.
    9900012    2    1    2    0    0 -0.41367265009E+01  0.42532793892E+02  0.75810798793E+01  0.47787264586E+02  0.19999970552E+02 0.  0.
         12    1    1    2    0    0  0.41367265009E+01 -0.42532793892E+02 -0.75810798793E+01  0.43400735414E+02  0.00000000000E+00 0. -1.
         11    1    3    3    0    0  0.13044311406E+01 -0.71696379705E+00 -0.23225077867E-01  0.14886629411E+01  0.51100000000E-03 0. -1.
        -11    1    3    3    0    0 -0.35165279831E+01  0.37220382429E+02  0.13648119237E+01  0.37411035124E+02  0.51100000000E-03 0.  1.
        -12    1    3    3    0    0 -0.19246296583E+01  0.60293752599E+01  0.62394930335E+01  0.88875665208E+01  0.00000000000E+00 0.  1.
</event>
<event>
 7    1  0.2751796E-010  0.4778727E+02  0.7816164E-02  0.1312668E+00
        -11   -1    0    0    0    0  0.00000000000E+00  0.00000000000E+00  0.45593999997E+02  0.45594000000E+02  0.51100000000E-03 0.  1.
         11   -1    0    0    0    0 -0.00000000000E+00 -0.00000000000E+00 -0.45593999997E+02  0.45594000000E+02  0.51100000000E-03 0. -1.
    9900012    2    1    2    0    0  0.24826367056E+01 -0.28998116859E+02  0.32195794577E+02  0.47787268959E+02  0.19999990493E+02 0.  0.
         12    1    1    2    0    0 -0.24826367056E+01  0.28998116859E+02 -0.32195794577E+02  0.43400731041E+02  0.00000000000E+00 0. -1.
         11    1    3    3    0    0  0.41013911884E+00  0.48172964123E+00  0.94761793791E+01  0.94972761059E+01  0.51100000000E-03 0. -1.
        -11    1    3    3    0    0 -0.27561866896E+01 -0.61016375954E+01  0.30438541109E+01  0.73546988057E+01  0.51100000000E-03 0.  1.
         12    1    3    3    0    0  0.48286842763E+01 -0.23378208905E+02  0.19675761087E+02  0.30935294048E+02  0.00000000000E+00 0. -1.
</event>
<event>
 7    1  0.2751796E-010  0.4778727E+02  0.7816164E-02  0.1312668E+00
        -11   -1    0    0    0    0  0.00000000000E+00  0.00000000000E+00  0.45593999997E+02  0.45594000000E+02  0.51100000000E-03 0.  1.
         11   -1    0    0    0    0 -0.00000000000E+00 -0.00000000000E+00 -0.45593999997E+02  0.45594000000E+02  0.51100000000E-03 0. -1.
    9900012    2    1    2    0    0  0.11709715717E+02  0.19319307412E+02  0.37057658427E+02  0.47787272712E+02  0.20000007601E+02 0.  0.
         12    1    1    2    0    0 -0.11709715717E+02 -0.19319307412E+02 -0.37057658427E+02  0.43400727288E+02  0.00000000000E+00 0. -1.
         11    1    3    3    0    0  0.25860471671E+01  0.10128926078E+02  0.20410172458E+02  0.22931592258E+02  0.51100000000E-03 0. -1.
        -11    1    3    3    0    0  0.70379287149E+01  0.12448264810E+02  0.14760977092E+02  0.20551841338E+02  0.51100000000E-03 0.  1.
         12    1    3    3    0    0  0.20857398344E+01 -0.32578834756E+01  0.18865088767E+01  0.43038391164E+01  0.00000000000E+00 0. -1.
</event>
<event>
 7    1  0.2751796E-010  0.4778727E+02  0.7816164E-02  0.1312668E+00
        -11   -1    0    0    0    0  0.00000000000E+00  0.00000000000E+00  0.45593999997E+02  0.45594000000E+02  0.51100000000E-03 0. -1.
         11   -1    0    0    0    0 -0.00000000000E+00 -0.00000000000E+00 -0.45593999997E+02  0.45594000000E+02  0.51100000000E-03 0.  1.
    9900012    2    1    2    0    0  0.66402586862E+01 -0.21281988135E+02 -0.37237176619E+02  0.47787269857E+02  0.19999994585E+02 0.  0.
         12    1    1    2    0    0 -0.66402586862E+01  0.21281988135E+02  0.37237176619E+02  0.43400730143E+02  0.00000000000E+00 0. -1.
         11    1    3    3    0    0 -0.33872728661E+01 -0.13652849201E+01 -0.16012620407E+02  0.16423812984E+02  0.51100000000E-03 0. -1.
        -11    1    3    3    0    0  0.88946170822E+01 -0.12112774899E+02 -0.15713942404E+02  0.21743079702E+02  0.51100000000E-03 0.  1.
        -12    1    3    3    0    0  0.11329144701E+01 -0.78039283157E+01 -0.55106138082E+01  0.96203771702E+01  0.00000000000E+00 0.  1.
</event>
<event>
 7    1  0.2751796E-010  0.4778729E+02  0.7816164E-02  0.1312668E+00
        -11   -1    0    0    0    0  0.00000000000E+00  0.00000000000E+00  0.45593999997E+02  0.45594000000E+02  0.51100000000E-03 0.  1.
         11   -1    0    0    0    0 -0.00000000000E+00 -0.00000000000E+00 -0.45593999997E+02  0.45594000000E+02  0.51100000000E-03 0. -1.
    9900012    2    1    2    0    0  0.13171469026E+02 -0.33683006755E+02  0.23991435263E+02  0.47787291407E+02  0.20000092842E+02 0.  0.
         12    1    1    2    0    0 -0.13171469026E+02  0.33683006755E+02 -0.23991435263E+02  0.43400708593E+02  0.00000000000E+00 0. -1.
         11    1    3    3    0    0  0.62118431912E+00 -0.11681740821E+02 -0.44953227789E+00  0.11706879093E+02  0.51100000000E-03 0. -1.
        -11    1    3    3    0    0  0.11899308773E+02 -0.21549345157E+02  0.25019645938E+02  0.35099152541E+02  0.51100000000E-03 0.  1.
        -12    1    3    3    0    0  0.65097593440E+00 -0.45192077648E+00 -0.57867839685E+00  0.98125977313E+00  0.00000000000E+00 0.  1.
</event>
<event>
 7    1  0.2751796E-010  0.4778727E+02  0.7816164E-02  0.1312668E+00
        -11   -1    0    0    0    0  0.00000000000E+00  0.00000000000E+00  0.45593999997E+02  0.45594000000E+02  0.51100000000E-03 0.  1.
         11   -1    0    0    0    0 -0.00000000000E+00 -0.00000000000E+00 -0.45593999997E+02  0.45594000000E+02  0.51100000000E-03 0. -1.
    9900012    2    1    2    0    0  0.34687975236E+02  0.13791421935E+02  0.22139654037E+02  0.47787271598E+02  0.20000002523E+02 0.  0.
         12    1    1    2    0    0 -0.34687975236E+02 -0.13791421935E+02 -0.22139654037E+02  0.43400728402E+02  0.00000000000E+00 0. -1.
         11    1    3    3    0    0 -0.16823042471E+01  0.57066276772E+00  0.61229797991E-01  0.17775131289E+01  0.51100000000E-03 0. -1.
        -11    1    3    3    0    0  0.13999733674E+01  0.38307815737E+01  0.14001655028E+01  0.43122240887E+01  0.51100000000E-03 0.  1.
        -12    1    3    3    0    0  0.34970306116E+02  0.93899775936E+01  0.20678258736E+02  0.41697534380E+02  0.00000000000E+00 0.  1.
</event>
<event>
 7    1  0.2751796E-010  0.4778727E+02  0.7816164E-02  0.1312668E+00
        -11   -1    0    0    0    0  0.00000000000E+00  0.00000000000E+00  0.45593999997E+02  0.45594000000E+02  0.51100000000E-03 0.  1.
         11   -1    0    0    0    0 -0.00000000000E+00 -0.00000000000E+00 -0.45593999997E+02  0.45594000000E+02  0.51100000000E-03 0. -1.
    9900012    2    1    2    0    0 -0.38806861515E+02  0.10792957480E+02  0.16160537199E+02  0.47787269656E+02  0.19999993671E+02 0.  0.
         12    1    1    2    0    0  0.38806861515E+02 -0.10792957480E+02 -0.16160537199E+02  0.43400730344E+02  0.00000000000E+00 0. -1.
         11    1    3    3    0    0 -0.12398444410E+02  0.75603093614E+01  0.99392317343E+01  0.17597386998E+02  0.51100000000E-03 0.  1.
        -11    1    3    3    0    0 -0.47769807220E+01 -0.44282851375E+01  0.23083917588E+01  0.69107110235E+01  0.51100000000E-03 0. -1.
        -12    1    3    3    0    0 -0.21631436383E+02  0.76609332559E+01  0.39129137061E+01  0.23279171635E+02  0.00000000000E+00 0.  1.
</event>
<event>
 7    1  0.2751796E-010  0.4778724E+02  0.7816164E-02  0.1312668E+00
        -11   -1    0    0    0    0  0.00000000000E+00  0.00000000000E+00  0.45593999997E+02  0.45594000000E+02  0.51100000000E-03 0.  1.
         11   -1    0    0    0    0 -0.00000000000E+00 -0.00000000000E+00 -0.45593999997E+02  0.45594000000E+02  0.51100000000E-03 0. -1.
    9900012    2    1    2    0    0  0.10791928458E+02  0.28595169927E+02  0.30813577822E+02  0.47787239164E+02  0.19999854643E+02 0.  0.
         12    1    1    2    0    0 -0.10791928458E+02 -0.28595169927E+02 -0.30813577822E+02  0.43400760836E+02  0.00000000000E+00 0. -1.
         11    1    3    3    0    0  0.12160847737E+02  0.13720886863E+02  0.13097464166E+02  0.22532033238E+02  0.51100000000E-03 0. -1.
        -11    1    3    3    0    0 -0.27469457772E+01  0.25922693061E+01  0.99893661713E+01  0.10679560292E+02  0.51100000000E-03 0.  1.
         12    1    3    3    0    0  0.13780264979E+01  0.12282013757E+02  0.77267474848E+01  0.14575645634E+02  0.00000000000E+00 0. -1.
</event>
<event>
 7    1  0.2751796E-010  0.4778726E+02  0.7816164E-02  0.1312668E+00
        -11   -1    0    0    0    0  0.00000000000E+00  0.00000000000E+00  0.45593999997E+02  0.45594000000E+02  0.51100000000E-03 0.  1.
         11   -1    0    0    0    0 -0.00000000000E+00 -0.00000000000E+00 -0.45593999997E+02  0.45594000000E+02  0.51100000000E-03 0. -1.
    9900012    2    1    2    0    0  0.14075454596E+01  0.22825294060E+02  0.36886970191E+02  0.47787264948E+02  0.19999972204E+02 0.  0.
         12    1    1    2    0    0 -0.14075454596E+01 -0.22825294060E+02 -0.36886970191E+02  0.43400735052E+02  0.00000000000E+00 0. -1.
         11    1    3    3    0    0 -0.12214656752E+01 -0.23122556712E+01  0.11924226616E+02  0.12207607683E+02  0.51100000000E-03 0. -1.
        -11    1    3    3    0    0  0.18637351591E+01  0.17206337925E+02  0.18360760322E+02  0.25231906258E+02  0.51100000000E-03 0.  1.
         12    1    3    3    0    0  0.76527597577E+00  0.79312118067E+01  0.66019832527E+01  0.10347751007E+02  0.00000000000E+00 0. -1.
</event>
<event>
 7    1  0.2751796E-010  0.4778727E+02  0.7816164E-02  0.1312668E+00
        -11   -1    0    0    0    0  0.00000000000E+00  0.00000000000E+00  0.45593999997E+02  0.45594000000E+02  0.51100000000E-03 0.  1.
         11   -1    0    0    0    0 -0.00000000000E+00 -0.00000000000E+00 -0.45593999997E+02  0.45594000000E+02  0.51100000000E-03 0. -1.
    9900012    2    1    2    0    0  0.23179498598E+01 -0.98829851963E+01  0.42196884378E+02  0.47787270292E+02  0.19999996571E+02 0.  0.
         12    1    1    2    0    0 -0.23179498598E+01  0.98829851963E+01 -0.42196884378E+02  0.43400729708E+02  0.00000000000E+00 0. -1.
         11    1    3    3    0    0 -0.40374531482E+01  0.21302514133E+01  0.16937445011E+01  0.48690625077E+01  0.51100000000E-03 0. -1.
        -11    1    3    3    0    0  0.46604702147E+01 -0.10913757394E+02  0.37191780597E+02  0.39039193477E+02  0.51100000000E-03 0.  1.
         12    1    3    3    0    0  0.16949327933E+01 -0.10994792157E+01  0.33113592798E+01  0.38790143077E+01  0.00000000000E+00 0. -1.
</event>
<event>
 7    1  0.2751796E-010  0.4778727E+02  0.7816164E-02  0.1312668E+00
        -11   -1    0    0    0    0  0.00000000000E+00  0.00000000000E+00  0.45593999997E+02  0.45594000000E+02  0.51100000000E-03 0.  1.
         11   -1    0    0    0    0 -0.00000000000E+00 -0.00000000000E+00 -0.45593999997E+02  0.45594000000E+02  0.51100000000E-03 0. -1.
    9900012    2    1    2    0    0 -0.14019135984E+01  0.38715134566E+02  0.19565190008E+02  0.47787266524E+02  0.19999979392E+02 0.  0.
         12    1    1    2    0    0  0.14019135984E+01 -0.38715134566E+02 -0.19565190008E+02  0.43400733476E+02  0.00000000000E+00 0. -1.
         11    1    3    3    0    0  0.15748364952E+01  0.25010727246E+00  0.13536178652E+01  0.20916369715E+01  0.51100000000E-03 0. -1.
        -11    1    3    3    0    0  0.19032659814E+01  0.80113507522E+01 -0.24276524574E+01  0.85847340661E+01  0.51100000000E-03 0.  1.
        -12    1    3    3    0    0 -0.48800160749E+01  0.30453676541E+02  0.20639224600E+02  0.37110895487E+02  0.00000000000E+00 0.  1.
</event>
<event>
 7    1  0.2751796E-010  0.4778726E+02  0.7816164E-02  0.1312668E+00
        -11   -1    0    0    0    0  0.00000000000E+00  0.00000000000E+00  0.45593999997E+02  0.45594000000E+02  0.51100000000E-03 0. -1.
         11   -1    0    0    0    0 -0.00000000000E+00 -0.00000000000E+00 -0.45593999997E+02  0.45594000000E+02  0.51100000000E-03 0.  1.
    9900012    2    1    2    0    0 -0.79904521741E+01  0.40574529743E+01 -0.42465439815E+02  0.47787264646E+02  0.19999970829E+02 0.  0.
         12    1    1    2    0    0  0.79904521741E+01 -0.40574529743E+01  0.42465439815E+02  0.43400735354E+02  0.00000000000E+00 0. -1.
         11    1    3    3    0    0 -0.62277855255E+01 -0.57869317991E+01 -0.18273861135E+02  0.20154599803E+02  0.51100000000E-03 0.  1.
        -11    1    3    3    0    0  0.14986914198E+01  0.40158022764E+01 -0.18074378276E+02  0.18575680182E+02  0.51100000000E-03 0. -1.
         12    1    3    3    0    0 -0.32613580683E+01  0.58285824971E+01 -0.61172004040E+01  0.90569846614E+01  0.00000000000E+00 0. -1.
</event>
<event>
 7    1  0.2751796E-010  0.4778729E+02  0.7816164E-02  0.1312668E+00
        -11   -1    0    0    0    0  0.00000000000E+00  0.00000000000E+00  0.45593999997E+02  0.45594000000E+02  0.51100000000E-03 0. -1.
         11   -1    0    0    0    0 -0.00000000000E+00 -0.00000000000E+00 -0.45593999997E+02  0.45594000000E+02  0.51100000000E-03 0.  1.
    9900012    2    1    2    0    0  0.18050593588E+02 -0.36612901356E+02 -0.14740881075E+02  0.47787285151E+02  0.20000064317E+02 0.  0.
         12    1    1    2    0    0 -0.18050593588E+02  0.36612901356E+02  0.14740881075E+02  0.43400714849E+02  0.00000000000E+00 0. -1.
         11    1    3    3    0    0 -0.13043108726E+01 -0.25380206425E+01  0.10928288564E+01  0.30556588168E+01  0.51100000000E-03 0. -1.
        -11    1    3    3    0    0  0.10661688350E+01 -0.16229794919E+02 -0.55139975245E+01  0.17174024807E+02  0.51100000000E-03 0.  1.
        -12    1    3    3    0    0  0.18288735625E+02 -0.17845085794E+02 -0.10319712407E+02  0.27557601527E+02  0.00000000000E+00 0.  1.
</event>
<event>
 7    1  0.2751796E-010  0.4778728E+02  0.7816164E-02  0.1312668E+00
        -11   -1    0    0    0    0  0.00000000000E+00  0.00000000000E+00  0.45593999997E+02  0.45594000000E+02  0.51100000000E-03 0.  1.
         11   -1    0    0    0    0 -0.00000000000E+00 -0.00000000000E+00 -0.45593999997E+02  0.45594000000E+02  0.51100000000E-03 0. -1.
    9900012    2    1    2    0    0 -0.96544735767E+01 -0.12093707145E+02  0.40548195124E+02  0.47787277191E+02  0.20000028024E+02 0.  0.
         12    1    1    2    0    0  0.96544735767E+01  0.12093707145E+02 -0.40548195124E+02  0.43400722809E+02  0.00000000000E+00 0. -1.
         11    1    3    3    0    0 -0.46535731000E+01 -0.94505961370E+01  0.95099277378E+01  0.14191836942E+02  0.51100000000E-03 0. -1.
        -11    1    3    3    0    0 -0.18178911388E+01  0.32109426023E+00  0.28499512726E+02  0.28559237658E+02  0.51100000000E-03 0.  1.
        -12    1    3    3    0    0 -0.31830093379E+01 -0.29642052682E+01  0.25387546599E+01  0.50362025913E+01  0.00000000000E+00 0.  1.
</event>
<event>
 7    1  0.2751796E-010  0.4778727E+02  0.7816164E-02  0.1312668E+00
        -11   -1    0    0    0    0  0.00000000000E+00  0.00000000000E+00  0.45593999997E+02  0.45594000000E+02  0.51100000000E-03 0.  1.
         11   -1    0    0    0    0 -0.00000000000E+00 -0.00000000000E+00 -0.45593999997E+02  0.45594000000E+02  0.51100000000E-03 0. -1.
    9900012    2    1    2    0    0  0.85442131925E+01  0.29672346188E+02  0.30498709434E+02  0.47787274378E+02  0.20000015199E+02 0.  0.
         12    1    1    2    0    0 -0.85442131925E+01 -0.29672346188E+02 -0.30498709434E+02  0.43400725622E+02  0.00000000000E+00 0. -1.
         11    1    3    3    0    0  0.93024903497E+01  0.98423329967E+01  0.22666178235E+02  0.26403853536E+02  0.51100000000E-03 0. -1.
        -11    1    3    3    0    0 -0.80603456661E+00  0.82690594259E+01  0.27176901327E+01  0.87414458433E+01  0.51100000000E-03 0.  1.
         12    1    3    3    0    0  0.47757409398E-01  0.11560953765E+02  0.51148410665E+01  0.12641974998E+02  0.00000000000E+00 0. -1.
</event>
<event>
 7    1  0.2751796E-010  0.4778728E+02  0.7816164E-02  0.1312668E+00
        -11   -1    0    0    0    0  0.00000000000E+00  0.00000000000E+00  0.45593999997E+02  0.45594000000E+02  0.51100000000E-03 0.  1.
         11   -1    0    0    0    0 -0.00000000000E+00 -0.00000000000E+00 -0.45593999997E+02  0.45594000000E+02  0.51100000000E-03 0. -1.
    9900012    2    1    2    0    0 -0.70874973557E+01 -0.12096961282E+02  0.41073760257E+02  0.47787275667E+02  0.20000021074E+02 0.  0.
         12    1    1    2    0    0  0.70874973557E+01  0.12096961282E+02 -0.41073760257E+02  0.43400724333E+02  0.00000000000E+00 0. -1.
         11    1    3    3    0    0  0.22968899871E+01  0.27154812827E+01  0.92216987268E+01  0.98837882352E+01  0.51100000000E-03 0. -1.
        -11    1    3    3    0    0 -0.10279204727E+02 -0.10744057572E+02  0.17524813840E+02  0.22982948534E+02  0.51100000000E-03 0.  1.
        -12    1    3    3    0    0  0.89481738466E+00 -0.40683849929E+01  0.14327247690E+02  0.14920538897E+02  0.00000000000E+00 0.  1.
</event>
<event>
 7    1  0.2751796E-010  0.4778727E+02  0.7816164E-02  0.1312668E+00
        -11   -1    0    0    0    0  0.00000000000E+00  0.00000000000E+00  0.45593999997E+02  0.45594000000E+02  0.51100000000E-03 0.  1.
         11   -1    0    0    0    0 -0.00000000000E+00 -0.00000000000E+00 -0.45593999997E+02  0.45594000000E+02  0.51100000000E-03 0. -1.
    9900012    2    1    2    0    0 -0.34850079772E+02  0.65765967376E+01  0.25016870755E+02  0.47787268357E+02  0.19999987749E+02 0.  0.
         12    1    1    2    0    0  0.34850079772E+02 -0.65765967376E+01 -0.25016870755E+02  0.43400731643E+02  0.00000000000E+00 0. -1.
         11    1    3    3    0    0 -0.67312102742E+01 -0.36294168457E+01  0.91838218436E+01  0.11950918053E+02  0.51100000000E-03 0. -1.
        -11    1    3    3    0    0 -0.17442048861E+02  0.11614424197E+02  0.13144305534E+02  0.24736464706E+02  0.51100000000E-03 0.  1.
         12    1    3    3    0    0 -0.10676820637E+02 -0.14084106135E+01  0.26887433770E+01  0.11099885599E+02  0.00000000000E+00 0. -1.
</event>
<event>
 7    1  0.2751796E-010  0.4778727E+02  0.7816164E-02  0.1312668E+00
        -11   -1    0    0    0    0  0.00000000000E+00  0.00000000000E+00  0.45593999997E+02  0.45594000000E+02  0.51100000000E-03 0. -1.
         11   -1    0    0    0    0 -0.00000000000E+00 -0.00000000000E+00 -0.45593999997E+02  0.45594000000E+02  0.51100000000E-03 0.  1.
    9900012    2    1    2    0    0 -0.95513441638E+00 -0.42950909971E+02 -0.61587697219E+01  0.47787269666E+02  0.19999993713E+02 0.  0.
         12    1    1    2    0    0  0.95513441638E+00  0.42950909971E+02  0.61587697219E+01  0.43400730334E+02  0.00000000000E+00 0. -1.
         11    1    3    3    0    0 -0.45330921097E+01 -0.43660316471E+01 -0.30792378160E+01  0.70066298751E+01  0.51100000000E-03 0. -1.
        -11    1    3    3    0    0  0.29337251206E+01 -0.38006107317E+02 -0.56736820198E+00  0.38123389715E+02  0.51100000000E-03 0.  1.
        -12    1    3    3    0    0  0.64423257263E+00 -0.57877100711E+00 -0.25121637039E+01  0.26572500751E+01  0.00000000000E+00 0.  1.
</event>
<event>
 7    1  0.2751796E-010  0.4778727E+02  0.7816164E-02  0.1312668E+00
        -11   -1    0    0    0    0  0.00000000000E+00  0.00000000000E+00  0.45593999997E+02  0.45594000000E+02  0.51100000000E-03 0. -1.
         11   -1    0    0    0    0 -0.00000000000E+00 -0.00000000000E+00 -0.45593999997E+02  0.45594000000E+02  0.51100000000E-03 0.  1.
    9900012    2    1    2    0    0 -0.32940521802E+02 -0.24389804915E+02 -0.14271743128E+02  0.47787271754E+02  0.20000003234E+02 0.  0.
         12    1    1    2    0    0  0.32940521802E+02  0.24389804915E+02  0.14271743128E+02  0.43400728246E+02  0.00000000000E+00 0. -1.
         11    1    3    3    0    0  0.72853326578E+00 -0.15143897596E+01 -0.43200212487E+01  0.46353771058E+01  0.51100000000E-03 0. -1.
        -11    1    3    3    0    0 -0.25385112580E+02 -0.11448922600E+02 -0.58606058786E+01  0.28457485324E+02  0.51100000000E-03 0.  1.
         12    1    3    3    0    0 -0.82839424874E+01 -0.11426492556E+02 -0.40911160009E+01  0.14694409324E+02  0.00000000000E+00 0. -1.
</event>
<event>
 7    1  0.2751796E-010  0.4778727E+02  0.7816164E-02  0.1312668E+00
        -11   -1    0    0    0    0  0.00000000000E+00  0.00000000000E+00  0.45593999997E+02  0.45594000000E+02  0.51100000000E-03 0.  1.
         11   -1    0    0    0    0 -0.00000000000E+00 -0.00000000000E+00 -0.45593999997E+02  0.45594000000E+02  0.51100000000E-03 0. -1.
    9900012    2    1    2    0    0  0.41392361008E+02 -0.92075753157E+01 -0.92474913415E+01  0.47787273173E+02  0.20000009705E+02 0.  0.
         12    1    1    2    0    0 -0.41392361008E+02  0.92075753157E+01  0.92474913415E+01  0.43400726827E+02  0.00000000000E+00 0. -1.
         11    1    3    3    0    0  0.48622301737E+01 -0.13132104660E+01 -0.35778839620E+01  0.61779493278E+01  0.51100000000E-03 0. -1.
        -11    1    3    3    0    0  0.45445332479E+01 -0.27902483759E+01 -0.74594737573E+01  0.91696247162E+01  0.51100000000E-03 0.  1.
        -12    1    3    3    0    0  0.31985597586E+02 -0.51041164739E+01  0.17898663777E+01  0.32439699129E+02  0.00000000000E+00 0.  1.
</event>
<event>
 7    1  0.2751796E-010  0.4778734E+02  0.7816164E-02  0.1312667E+00
        -11   -1    0    0    0    0  0.00000000000E+00  0.00000000000E+00  0.45593999997E+02  0.45594000000E+02  0.51100000000E-03 0. -1.
         11   -1    0    0    0    0 -0.00000000000E+00 -0.00000000000E+00 -0.45593999997E+02  0.45594000000E+02  0.51100000000E-03 0.  1.
    9900012    2    1    2    0    0 -0.40649396452E+02 -0.14182680058E+02 -0.54859608898E+01  0.47787336267E+02  0.20000297374E+02 0.  0.
         12    1    1    2    0    0  0.40649396452E+02  0.14182680058E+02  0.54859608898E+01  0.43400663733E+02  0.00000000000E+00 0. -1.
         11    1    3    3    0    0 -0.49631736012E+01  0.28331269498E+01  0.32660720660E+01  0.65823193109E+01  0.51100000000E-03 0. -1.
        -11    1    3    3    0    0 -0.33893502733E+02 -0.16901069862E+02 -0.66723947929E+01  0.38456944009E+02  0.51100000000E-03 0.  1.
        -12    1    3    3    0    0 -0.17927201185E+01 -0.11473714607E+00 -0.20796381630E+01  0.27480729475E+01  0.00000000000E+00 0.  1.
</event>
<event>
 7    1  0.2751796E-010  0.4778729E+02  0.7816164E-02  0.1312668E+00
        -11   -1    0    0    0    0  0.00000000000E+00  0.00000000000E+00  0.45593999997E+02  0.45594000000E+02  0.51100000000E-03 0.  1.
         11   -1    0    0    0    0 -0.00000000000E+00 -0.00000000000E+00 -0.45593999997E+02  0.45594000000E+02  0.51100000000E-03 0. -1.
    9900012    2    1    2    0    0  0.20081153627E+01  0.40760878637E+02  0.14769572826E+02  0.47787285305E+02  0.20000065022E+02 0.  0.
         12    1    1    2    0    0 -0.20081153627E+01 -0.40760878637E+02 -0.14769572826E+02  0.43400714695E+02  0.00000000000E+00 0. -1.
         11    1    3    3    0    0 -0.47041885760E+01  0.23640000022E+02  0.13125893732E+02  0.27445729681E+02  0.51100000000E-03 0. -1.
        -11    1    3    3    0    0  0.20126292015E+01  0.14959572759E+02  0.14707157824E+01  0.15165833265E+02  0.51100000000E-03 0.  1.
         12    1    3    3    0    0  0.46996747372E+01  0.21613058549E+01  0.17296331163E+00  0.51757223594E+01  0.00000000000E+00 0. -1.
</event>
<event>
 7    1  0.2751796E-010  0.4778727E+02  0.7816164E-02  0.1312668E+00
        -11   -1    0    0    0    0  0.00000000000E+00  0.00000000000E+00  0.45593999997E+02  0.45594000000E+02  0.51100000000E-03 0.  1.
         11   -1    0    0    0    0 -0.00000000000E+00 -0.00000000000E+00 -0.45593999997E+02  0.45594000000E+02  0.51100000000E-03 0. -1.
    9900012    2    1    2    0    0 -0.29147849441E+02 -0.29102722409E+02  0.13676900976E+02  0.47787271907E+02  0.20000003934E+02 0.  0.
         12    1    1    2    0    0  0.29147849441E+02  0.29102722409E+02 -0.13676900976E+02  0.43400728093E+02  0.00000000000E+00 0. -1.
         11    1    3    3    0    0 -0.20122792905E+01  0.98558497736E+00  0.20387598809E+01  0.30293873644E+01  0.51100000000E-03 0. -1.
        -11    1    3    3    0    0 -0.27119268020E+02 -0.24945892732E+02  0.63668546862E+01  0.37393704029E+02  0.51100000000E-03 0.  1.
        -12    1    3    3    0    0 -0.16302130614E-01 -0.51424146542E+01  0.52712864088E+01  0.73641805138E+01  0.00000000000E+00 0.  1.
</event>
<event>
 7    1  0.2751796E-010  0.4778727E+02  0.7816164E-02  0.1312668E+00
        -11   -1    0    0    0    0  0.00000000000E+00  0.00000000000E+00  0.45593999997E+02  0.45594000000E+02  0.51100000000E-03 0.  1.
         11   -1    0    0    0    0 -0.00000000000E+00 -0.00000000000E+00 -0.45593999997E+02  0.45594000000E+02  0.51100000000E-03 0. -1.
    9900012    2    1    2    0    0 -0.18335543660E+02  0.37847145010E+02  0.10724962581E+02  0.47787269947E+02  0.19999994998E+02 0.  0.
         12    1    1    2    0    0  0.18335543660E+02 -0.37847145010E+02 -0.10724962581E+02  0.43400730053E+02  0.00000000000E+00 0. -1.
         11    1    3    3    0    0 -0.13792934740E+02  0.26532224151E+02 -0.57484675764E+00  0.29908768216E+02  0.51100000000E-03 0. -1.
        -11    1    3    3    0    0  0.31569691023E+00  0.14356787096E+01  0.49623851327E+01  0.51755293800E+01  0.51100000000E-03 0.  1.
        -12    1    3    3    0    0 -0.48583058303E+01  0.98792421491E+01  0.63374242059E+01  0.12702972351E+02  0.00000000000E+00 0.  1.
</event>
<event>
 7    1  0.2751796E-010  0.4778721E+02  0.7816164E-02  0.1312668E+00
        -11   -1    0    0    0    0  0.00000000000E+00  0.00000000000E+00  0.45593999997E+02  0.45594000000E+02  0.51100000000E-03 0.  1.
         11   -1    0    0    0    0 -0.00000000000E+00 -0.00000000000E+00 -0.45593999997E+02  0.45594000000E+02  0.51100000000E-03 0. -1.
    9900012    2    1    2    0    0 -0.15139231766E+02 -0.37372997879E+01  0.40502655824E+02  0.47787206494E+02  0.19999705687E+02 0.  0.
         12    1    1    2    0    0  0.15139231766E+02  0.37372997879E+01 -0.40502655824E+02  0.43400793506E+02  0.00000000000E+00 0. -1.
         11    1    3    3    0    0  0.22865173488E+01  0.38527346208E+01  0.96165000772E+01  0.10608901905E+02  0.51100000000E-03 0. -1.
        -11    1    3    3    0    0 -0.85425632923E+01 -0.14697585477E+00  0.17486858219E+02  0.19462456169E+02  0.51100000000E-03 0.  1.
         12    1    3    3    0    0 -0.88831858221E+01 -0.74430585539E+01  0.13399297527E+02  0.17715848419E+02  0.00000000000E+00 0. -1.
</event>
<event>
 7    1  0.2751796E-010  0.4778727E+02  0.7816164E-02  0.1312668E+00
        -11   -1    0    0    0    0  0.00000000000E+00  0.00000000000E+00  0.45593999997E+02  0.45594000000E+02  0.51100000000E-03 0.  1.
         11   -1    0    0    0    0 -0.00000000000E+00 -0.00000000000E+00 -0.45593999997E+02  0.45594000000E+02  0.51100000000E-03 0. -1.
    9900012    2    1    2    0    0  0.19542444020E+02  0.66372796182E+01  0.38179353243E+02  0.47787267137E+02  0.19999982184E+02 0.  0.
         12    1    1    2    0    0 -0.19542444020E+02 -0.66372796182E+01 -0.38179353243E+02  0.43400732863E+02  0.00000000000E+00 0. -1.
         11    1    3    3    0    0 -0.42539838251E+00  0.25344850881E+01 -0.13036227585E+00  0.25732417356E+01  0.51100000000E-03 0. -1.
        -11    1    3    3    0    0  0.13271234693E+02  0.30344990098E+01  0.35224829465E+02  0.37764036670E+02  0.51100000000E-03 0.  1.
        -12    1    3    3    0    0  0.66966077095E+01  0.10682955204E+01  0.30848860540E+01  0.74499887316E+01  0.00000000000E+00 0.  1.
</event>
<event>
 7    1  0.2751796E-010  0.4778727E+02  0.7816164E-02  0.1312668E+00
        -11   -1    0    0    0    0  0.00000000000E+00  0.00000000000E+00  0.45593999997E+02  0.45594000000E+02  0.51100000000E-03 0.  1.
         11   -1    0    0    0    0 -0.00000000000E+00 -0.00000000000E+00 -0.45593999997E+02  0.45594000000E+02  0.51100000000E-03 0. -1.
    9900012    2    1    2    0    0  0.31619789329E+02  0.29559810674E+02 -0.31669688697E+01  0.47787272171E+02  0.20000005137E+02 0.  0.
         12    1    1    2    0    0 -0.31619789329E+02 -0.29559810674E+02  0.31669688697E+01  0.43400727829E+02  0.00000000000E+00 0. -1.
         11    1    3    3    0    0  0.66553278867E+00  0.22898609005E+01 -0.73105372454E+00  0.24941605093E+01  0.51100000000E-03 0. -1.
        -11    1    3    3    0    0  0.14640063166E+02  0.21513835385E+02 -0.78243843985E+01  0.27173471511E+02  0.51100000000E-03 0.  1.
        -12    1    3    3    0    0  0.16314193374E+02  0.57561143879E+01  0.53884692534E+01  0.18119640151E+02  0.00000000000E+00 0.  1.
</event>
<event>
 7    1  0.2751796E-010  0.4778727E+02  0.7816164E-02  0.1312668E+00
        -11   -1    0    0    0    0  0.00000000000E+00  0.00000000000E+00  0.45593999997E+02  0.45594000000E+02  0.51100000000E-03 0.  1.
         11   -1    0    0    0    0 -0.00000000000E+00 -0.00000000000E+00 -0.45593999997E+02  0.45594000000E+02  0.51100000000E-03 0. -1.
    9900012    2    1    2    0    0 -0.36316138107E+02  0.21725082373E+02  0.96323402512E+01  0.47787273395E+02  0.20000010717E+02 0.  0.
         12    1    1    2    0    0  0.36316138107E+02 -0.21725082373E+02 -0.96323402512E+01  0.43400726605E+02  0.00000000000E+00 0. -1.
         11    1    3    3    0    0 -0.16707922183E+02 -0.14144041260E-01  0.32863737193E+01  0.17028068482E+02  0.51100000000E-03 0. -1.
        -11    1    3    3    0    0 -0.19598150227E+02  0.20478320099E+02  0.71887282255E+01  0.29242552900E+02  0.51100000000E-03 0.  1.
         12    1    3    3    0    0 -0.10065697083E-01  0.12609063155E+01 -0.84276169367E+00  0.15166520125E+01  0.00000000000E+00 0. -1.
</event>
<event>
 7    1  0.2751796E-010  0.4778724E+02  0.7816164E-02  0.1312668E+00
        -11   -1    0    0    0    0  0.00000000000E+00  0.00000000000E+00  0.45593999997E+02  0.45594000000E+02  0.51100000000E-03 0.  1.
         11   -1    0    0    0    0 -0.00000000000E+00 -0.00000000000E+00 -0.45593999997E+02  0.45594000000E+02  0.51100000000E-03 0. -1.
    9900012    2    1    2    0    0 -0.27884815951E+02  0.15067071391E+02  0.29648716409E+02  0.47787239804E+02  0.19999857561E+02 0.  0.
         12    1    1    2    0    0  0.27884815951E+02 -0.15067071391E+02 -0.29648716409E+02  0.43400760196E+02  0.00000000000E+00 0. -1.
         11    1    3    3    0    0 -0.59631253465E+01  0.30700991169E+01  0.17145598445E+02  0.18410755519E+02  0.51100000000E-03 0. -1.
        -11    1    3    3    0    0 -0.10528898687E+02  0.10774533905E+02  0.61214768429E+01  0.16261019877E+02  0.51100000000E-03 0.  1.
        -12    1    3    3    0    0 -0.11392791917E+02  0.12224383690E+01  0.63816411214E+01  0.13115464408E+02  0.00000000000E+00 0.  1.
</event>
<event>
 7    1  0.2751796E-010  0.4778728E+02  0.7816164E-02  0.1312668E+00
        -11   -1    0    0    0    0  0.00000000000E+00  0.00000000000E+00  0.45593999997E+02  0.45594000000E+02  0.51100000000E-03 0. -1.
         11   -1    0    0    0    0 -0.00000000000E+00 -0.00000000000E+00 -0.45593999997E+02  0.45594000000E+02  0.51100000000E-03 0.  1.
    9900012    2    1    2    0    0 -0.66030256072E+01 -0.10143895304E+02 -0.41678823204E+02  0.47787275781E+02  0.20000021594E+02 0.  0.
         12    1    1    2    0    0  0.66030256072E+01  0.10143895304E+02  0.41678823204E+02  0.43400724219E+02  0.00000000000E+00 0. -1.
         11    1    3    3    0    0 -0.13256175978E+02 -0.75164854394E+01 -0.29369827676E+02  0.33087921254E+02  0.51100000000E-03 0. -1.
        -11    1    3    3    0    0  0.53432021665E+01 -0.35572099093E+01 -0.10122739372E+02  0.11986384125E+02  0.51100000000E-03 0.  1.
        -12    1    3    3    0    0  0.13099482048E+01  0.92980004429E+00 -0.21862561555E+01  0.27129704014E+01  0.00000000000E+00 0.  1.
</event>
<event>
 7    1  0.2751796E-010  0.4778727E+02  0.7816164E-02  0.1312668E+00
        -11   -1    0    0    0    0  0.00000000000E+00  0.00000000000E+00  0.45593999997E+02  0.45594000000E+02  0.51100000000E-03 0.  1.
         11   -1    0    0    0    0 -0.00000000000E+00 -0.00000000000E+00 -0.45593999997E+02  0.45594000000E+02  0.51100000000E-03 0. -1.
    9900012    2    1    2    0    0 -0.32889052598E+01 -0.13874565912E+02  0.40991496654E+02  0.47787271031E+02  0.19999999940E+02 0.  0.
         12    1    1    2    0    0  0.32889052598E+01  0.13874565912E+02 -0.40991496654E+02  0.43400728969E+02  0.00000000000E+00 0. -1.
         11    1    3    3    0    0 -0.13742794285E+01  0.86848203186E+00 -0.23730310520E+00  0.16429297040E+01  0.51100000000E-03 0. -1.
        -11    1    3    3    0    0 -0.96650353645E+00 -0.17642307688E+02  0.34795004640E+02  0.39024063061E+02  0.51100000000E-03 0.  1.
        -12    1    3    3    0    0 -0.94812229483E+00  0.28992597440E+01  0.64337951195E+01  0.71202782662E+01  0.00000000000E+00 0.  1.
</event>
<event>
 7    1  0.2751796E-010  0.4778726E+02  0.7816164E-02  0.1312668E+00
        -11   -1    0    0    0    0  0.00000000000E+00  0.00000000000E+00  0.45593999997E+02  0.45594000000E+02  0.51100000000E-03 0.  1.
         11   -1    0    0    0    0 -0.00000000000E+00 -0.00000000000E+00 -0.45593999997E+02  0.45594000000E+02  0.51100000000E-03 0. -1.
    9900012    2    1    2    0    0 -0.34299908093E+02  0.22406220888E+02  0.14321361220E+02  0.47787264788E+02  0.19999971476E+02 0.  0.
         12    1    1    2    0    0  0.34299908093E+02 -0.22406220888E+02 -0.14321361220E+02  0.43400735212E+02  0.00000000000E+00 0. -1.
         11    1    3    3    0    0 -0.24118361404E+02  0.70808982135E+01  0.35752004123E+01  0.25389299607E+02  0.51100000000E-03 0. -1.
        -11    1    3    3    0    0 -0.61569728477E+01  0.73973484328E+01  0.93122900760E+01  0.13392080690E+02  0.51100000000E-03 0.  1.
         12    1    3    3    0    0 -0.40245738421E+01  0.79279742420E+01  0.14338707318E+01  0.90058844911E+01  0.00000000000E+00 0. -1.
</event>
<event>
 7    1  0.2751796E-010  0.4778728E+02  0.7816164E-02  0.1312668E+00
        -11   -1    0    0    0    0  0.00000000000E+00  0.00000000000E+00  0.45593999997E+02  0.45594000000E+02  0.51100000000E-03 0. -1.
         11   -1    0    0    0    0 -0.00000000000E+00 -0.00000000000E+00 -0.45593999997E+02  0.45594000000E+02  0.51100000000E-03 0.  1.
    9900012    2    1    2    0    0 -0.38741035806E+02 -0.24207948773E+01 -0.19413776918E+02  0.47787276073E+02  0.20000022927E+02 0.  0.
         12    1    1    2    0    0  0.38741035806E+02  0.24207948773E+01  0.19413776918E+02  0.43400723927E+02  0.00000000000E+00 0. -1.
         11    1    3    3    0    0 -0.64810998102E+01  0.28879984356E+01 -0.90563825492E+01  0.11504923070E+02  0.51100000000E-03 0. -1.
        -11    1    3    3    0    0 -0.21802292156E+02  0.11590038122E+01 -0.32323385767E+01  0.22071049953E+02  0.51100000000E-03 0.  1.
        -12    1    3    3    0    0 -0.10457643840E+02 -0.64677971251E+01 -0.71250557920E+01  0.14211303050E+02  0.00000000000E+00 0.  1.
</event>
<event>
 7    1  0.2751796E-010  0.4778728E+02  0.7816164E-02  0.1312668E+00
        -11   -1    0    0    0    0  0.00000000000E+00  0.00000000000E+00  0.45593999997E+02  0.45594000000E+02  0.51100000000E-03 0.  1.
         11   -1    0    0    0    0 -0.00000000000E+00 -0.00000000000E+00 -0.45593999997E+02  0.45594000000E+02  0.51100000000E-03 0. -1.
    9900012    2    1    2    0    0 -0.28546468192E+02  0.62288977795E+01  0.32092405329E+02  0.47787280034E+02  0.20000040985E+02 0.  0.
         12    1    1    2    0    0  0.28546468192E+02 -0.62288977795E+01 -0.32092405329E+02  0.43400719966E+02  0.00000000000E+00 0. -1.
         11    1    3    3    0    0 -0.13375352108E+02 -0.44544639343E+01  0.91178967014E+01  0.16789232665E+02  0.51100000000E-03 0. -1.
        -11    1    3    3    0    0 -0.12148056255E+02  0.44248637337E+01  0.19029848543E+02  0.23006299695E+02  0.51100000000E-03 0.  1.
         12    1    3    3    0    0 -0.30230598293E+01  0.62584979801E+01  0.39446600849E+01  0.79917476739E+01  0.00000000000E+00 0. -1.
</event>
<event>
 7    1  0.2751796E-010  0.4778727E+02  0.7816164E-02  0.1312668E+00
        -11   -1    0    0    0    0  0.00000000000E+00  0.00000000000E+00  0.45593999997E+02  0.45594000000E+02  0.51100000000E-03 0. -1.
         11   -1    0    0    0    0 -0.00000000000E+00 -0.00000000000E+00 -0.45593999997E+02  0.45594000000E+02  0.51100000000E-03 0.  1.
    9900012    2    1    2    0    0 -0.38286205031E+02 -0.20385402512E+02  0.14917862368E+01  0.47787267778E+02  0.19999985106E+02 0.  0.
         12    1    1    2    0    0  0.38286205031E+02  0.20385402512E+02 -0.14917862368E+01  0.43400732222E+02  0.00000000000E+00 0. -1.
         11    1    3    3    0    0 -0.18890678975E+02 -0.11803471506E+02  0.79205112878E+01  0.23641366099E+02  0.51100000000E-03 0. -1.
        -11    1    3    3    0    0 -0.21831220539E+01 -0.31627917163E+01  0.18815720968E+01  0.42789703387E+01  0.51100000000E-03 0.  1.
         12    1    3    3    0    0 -0.17212404002E+02 -0.54191392906E+01 -0.83102971478E+01  0.19866931340E+02  0.00000000000E+00 0. -1.
</event>
<event>
 7    1  0.2751796E-010  0.4778727E+02  0.7816164E-02  0.1312668E+00
        -11   -1    0    0    0    0  0.00000000000E+00  0.00000000000E+00  0.45593999997E+02  0.45594000000E+02  0.51100000000E-03 0. -1.
         11   -1    0    0    0    0 -0.00000000000E+00 -0.00000000000E+00 -0.45593999997E+02  0.45594000000E+02  0.51100000000E-03 0.  1.
    9900012    2    1    2    0    0 -0.42889295817E+02 -0.51128410858E+01 -0.42414996180E+01  0.47787272372E+02  0.20000006052E+02 0.  0.
         12    1    1    2    0    0  0.42889295817E+02  0.51128410858E+01  0.42414996180E+01  0.43400727628E+02  0.00000000000E+00 0. -1.
         11    1    3    3    0    0 -0.71606688056E+01  0.41045274753E+01 -0.29990735657E+01  0.87816152303E+01  0.51100000000E-03 0. -1.
        -11    1    3    3    0    0 -0.36346875324E+02 -0.76491729233E+01 -0.45665483757E+00  0.37145843996E+02  0.51100000000E-03 0.  1.
        -12    1    3    3    0    0  0.61824831296E+00 -0.15681956378E+01 -0.78577121474E+00  0.18598131456E+01  0.00000000000E+00 0.  1.
</event>
<event>
 7    1  0.2751796E-010  0.4778727E+02  0.7816164E-02  0.1312668E+00
        -11   -1    0    0    0    0  0.00000000000E+00  0.00000000000E+00  0.45593999997E+02  0.45594000000E+02  0.51100000000E-03 0.  1.
         11   -1    0    0    0    0 -0.00000000000E+00 -0.00000000000E+00 -0.45593999997E+02  0.45594000000E+02  0.51100000000E-03 0. -1.
    9900012    2    1    2    0    0 -0.29550551298E+01 -0.18885923964E+02  0.38964249210E+02  0.47787271996E+02  0.20000004338E+02 0.  0.
         12    1    1    2    0    0  0.29550551298E+01  0.18885923964E+02 -0.38964249210E+02  0.43400728004E+02  0.00000000000E+00 0. -1.
         11    1    3    3    0    0 -0.66151489823E+01 -0.51426665246E+01  0.42758987176E+01  0.94069402648E+01  0.51100000000E-03 0. -1.
        -11    1    3    3    0    0  0.43992242363E+00 -0.12713252178E+02  0.23898655434E+02  0.27073345646E+02  0.51100000000E-03 0.  1.
         12    1    3    3    0    0  0.32201714289E+01 -0.10300052614E+01  0.10789695058E+02  0.11306986085E+02  0.00000000000E+00 0. -1.
</event>
<event>
 7    1  0.2751796E-010  0.4778726E+02  0.7816164E-02  0.1312668E+00
        -11   -1    0    0    0    0  0.00000000000E+00  0.00000000000E+00  0.45593999997E+02  0.45594000000E+02  0.51100000000E-03 0.  1.
         11   -1    0    0    0    0 -0.00000000000E+00 -0.00000000000E+00 -0.45593999997E+02  0.45594000000E+02  0.51100000000E-03 0. -1.
    9900012    2    1    2    0    0 -0.96682445147E+01  0.32528161055E+02  0.27056756801E+02  0.47787259198E+02  0.19999945986E+02 0.  0.
         12    1    1    2    0    0  0.96682445147E+01 -0.32528161055E+02 -0.27056756801E+02  0.43400740802E+02  0.00000000000E+00 0. -1.
         11    1    3    3    0    0 -0.69118657578E+01  0.68598569283E+01 -0.28383016642E+00  0.97422833646E+01  0.51100000000E-03 0. -1.
        -11    1    3    3    0    0 -0.14375631216E+01  0.24854473512E+02  0.25481494311E+02  0.35624682369E+02  0.51100000000E-03 0.  1.
        -12    1    3    3    0    0 -0.13188156352E+01  0.81383061400E+00  0.18590926561E+01  0.24202934640E+01  0.00000000000E+00 0.  1.
</event>
<event>
 7    1  0.2751796E-010  0.4778727E+02  0.7816164E-02  0.1312668E+00
        -11   -1    0    0    0    0  0.00000000000E+00  0.00000000000E+00  0.45593999997E+02  0.45594000000E+02  0.51100000000E-03 0.  1.
         11   -1    0    0    0    0 -0.00000000000E+00 -0.00000000000E+00 -0.45593999997E+02  0.45594000000E+02  0.51100000000E-03 0. -1.
    9900012    2    1    2    0    0 -0.21987002532E+02  0.54560340390E+01  0.37019276376E+02  0.47787269463E+02  0.19999992788E+02 0.  0.
         12    1    1    2    0    0  0.21987002532E+02 -0.54560340390E+01 -0.37019276376E+02  0.43400730537E+02  0.00000000000E+00 0. -1.
         11    1    3    3    0    0 -0.21493585037E+01  0.63928142600E+01  0.36236418108E+01  0.76562782326E+01  0.51100000000E-03 0. -1.
        -11    1    3    3    0    0 -0.14198845812E+02 -0.35453113168E+01  0.16120629586E+02  0.21772715798E+02  0.51100000000E-03 0.  1.
        -12    1    3    3    0    0 -0.56387982168E+01  0.26085310957E+01  0.17275004979E+02  0.18358275432E+02  0.00000000000E+00 0.  1.
</event>
<event>
 7    1  0.2751796E-010  0.4778728E+02  0.7816164E-02  0.1312668E+00
        -11   -1    0    0    0    0  0.00000000000E+00  0.00000000000E+00  0.45593999997E+02  0.45594000000E+02  0.51100000000E-03 0.  1.
         11   -1    0    0    0    0 -0.00000000000E+00 -0.00000000000E+00 -0.45593999997E+02  0.45594000000E+02  0.51100000000E-03 0. -1.
    9900012    2    1    2    0    0 -0.77822880301E+01  0.11181129845E+02  0.41207295013E+02  0.47787276113E+02  0.20000023109E+02 0.  0.
         12    1    1    2    0    0  0.77822880301E+01 -0.11181129845E+02 -0.41207295013E+02  0.43400723887E+02  0.00000000000E+00 0. -1.
         11    1    3    3    0    0  0.13560749589E+00 -0.17481206230E+01  0.14950881343E+00  0.17597352789E+01  0.51100000000E-03 0. -1.
        -11    1    3    3    0    0 -0.47064678347E+01  0.15774749018E+02  0.33817006203E+02  0.37610948603E+02  0.51100000000E-03 0.  1.
        -12    1    3    3    0    0 -0.32114276913E+01 -0.28454985497E+01  0.72407799972E+01  0.84165922309E+01  0.00000000000E+00 0.  1.
</event>
<event>
 7    1  0.2751796E-010  0.4778727E+02  0.7816164E-02  0.1312668E+00
        -11   -1    0    0    0    0  0.00000000000E+00  0.00000000000E+00  0.45593999997E+02  0.45594000000E+02  0.51100000000E-03 0. -1.
         11   -1    0    0    0    0 -0.00000000000E+00 -0.00000000000E+00 -0.45593999997E+02  0.45594000000E+02  0.51100000000E-03 0.  1.
    9900012    2    1    2    0    0  0.98713430389E+01 -0.42242048922E+02 -0.13376054082E+01  0.47787270758E+02  0.19999998694E+02 0.  0.
         12    1    1    2    0    0 -0.98713430389E+01  0.42242048922E+02  0.13376054082E+01  0.43400729242E+02  0.00000000000E+00 0. -1.
         11    1    3    3    0    0 -0.25281384583E+00 -0.15805250857E+01  0.38022489121E+01  0.41254177289E+01  0.51100000000E-03 0. -1.
        -11    1    3    3    0    0  0.73764436502E+01 -0.35048723526E+02 -0.40063059622E+00  0.35818786228E+02  0.51100000000E-03 0.  1.
        -12    1    3    3    0    0  0.27477132345E+01 -0.56128003105E+01 -0.47392237241E+01  0.78430668015E+01  0.00000000000E+00 0.  1.
</event>
<event>
 7    1  0.2751796E-010  0.4778727E+02  0.7816164E-02  0.1312668E+00
        -11   -1    0    0    0    0  0.00000000000E+00  0.00000000000E+00  0.45593999997E+02  0.45594000000E+02  0.51100000000E-03 0. -1.
         11   -1    0    0    0    0 -0.00000000000E+00 -0.00000000000E+00 -0.45593999997E+02  0.45594000000E+02  0.51100000000E-03 0.  1.
    9900012    2    1    2    0    0  0.81024490152E+01 -0.42187042069E+02 -0.61828170038E+01  0.47787269307E+02  0.19999992079E+02 0.  0.
         12    1    1    2    0    0 -0.81024490152E+01  0.42187042069E+02  0.61828170038E+01  0.43400730693E+02  0.00000000000E+00 0. -1.
         11    1    3    3    0    0  0.35254377498E+01 -0.19642570236E+01  0.36301278940E+01  0.54281530718E+01  0.51100000000E-03 0. -1.
        -11    1    3    3    0    0  0.10875799640E-01 -0.77899299544E+01  0.10311727901E+01  0.78578905924E+01  0.51100000000E-03 0.  1.
         12    1    3    3    0    0  0.45661354658E+01 -0.32432855091E+02 -0.10844117688E+02  0.34501225643E+02  0.00000000000E+00 0. -1.
</event>
<event>
 7    1  0.2751796E-010  0.4778727E+02  0.7816164E-02  0.1312668E+00
        -11   -1    0    0    0    0  0.00000000000E+00  0.00000000000E+00  0.45593999997E+02  0.45594000000E+02  0.51100000000E-03 0.  1.
         11   -1    0    0    0    0 -0.00000000000E+00 -0.00000000000E+00 -0.45593999997E+02  0.45594000000E+02  0.51100000000E-03 0. -1.
    9900012    2    1    2    0    0  0.17271699115E+02  0.36279774492E+02  0.16403951829E+02  0.47787271168E+02  0.20000000564E+02 0.  0.
         12    1    1    2    0    0 -0.17271699115E+02 -0.36279774492E+02 -0.16403951829E+02  0.43400728832E+02  0.00000000000E+00 0. -1.
         11    1    3    3    0    0  0.14255884884E+02  0.11685782296E+02  0.10552390081E+02  0.21240072937E+02  0.51100000000E-03 0.  1.
        -11    1    3    3    0    0 -0.39446274918E+00 -0.32749319389E+00 -0.37386566488E+00  0.63453010096E+00  0.51100000000E-03 0. -1.
         12    1    3    3    0    0  0.34102769806E+01  0.24921485390E+02  0.62254274128E+01  0.25912668130E+02  0.00000000000E+00 0. -1.
</event>
<event>
 7    1  0.2751796E-010  0.4778727E+02  0.7816164E-02  0.1312668E+00
        -11   -1    0    0    0    0  0.00000000000E+00  0.00000000000E+00  0.45593999997E+02  0.45594000000E+02  0.51100000000E-03 0.  1.
         11   -1    0    0    0    0 -0.00000000000E+00 -0.00000000000E+00 -0.45593999997E+02  0.45594000000E+02  0.51100000000E-03 0. -1.
    9900012    2    1    2    0    0  0.41664046668E+02 -0.10606908010E+02  0.59349679573E+01  0.47787272737E+02  0.20000007718E+02 0.  0.
         12    1    1    2    0    0 -0.41664046668E+02  0.10606908010E+02 -0.59349679573E+01  0.43400727263E+02  0.00000000000E+00 0. -1.
         11    1    3    3    0    0  0.20987619801E+01  0.60741901266E+00 -0.82602852794E+00  0.23358259987E+01  0.51100000000E-03 0.  1.
        -11    1    3    3    0    0  0.15212102223E+02  0.42437936395E+01  0.49464686752E+01  0.16549483108E+02  0.51100000000E-03 0. -1.
        -12    1    3    3    0    0  0.24353182464E+02 -0.15458120662E+02  0.18145278100E+01  0.28901963631E+02  0.00000000000E+00 0.  1.
</event>
<event>
 7    1  0.2751796E-010  0.4778727E+02  0.7816164E-02  0.1312668E+00
        -11   -1    0    0    0    0  0.00000000000E+00  0.00000000000E+00  0.45593999997E+02  0.45594000000E+02  0.51100000000E-03 0.  1.
         11   -1    0    0    0    0 -0.00000000000E+00 -0.00000000000E+00 -0.45593999997E+02  0.45594000000E+02  0.51100000000E-03 0. -1.
    9900012    2    1    2    0    0  0.84766357462E+01 -0.34921430838E+02  0.24336460490E+02  0.47787274263E+02  0.20000014673E+02 0.  0.
         12    1    1    2    0    0 -0.84766357462E+01  0.34921430838E+02 -0.24336460490E+02  0.43400725737E+02  0.00000000000E+00 0. -1.
         11    1    3    3    0    0 -0.26662104907E+01 -0.61252109417E+01  0.10104095983E+02  0.12112788422E+02  0.51100000000E-03 0. -1.
        -11    1    3    3    0    0  0.12607380559E+02 -0.26849381611E+02  0.14834902136E+02  0.33164885935E+02  0.51100000000E-03 0.  1.
        -12    1    3    3    0    0 -0.14645343218E+01 -0.19468382857E+01 -0.60253762970E+00  0.25095999055E+01  0.00000000000E+00 0.  1.
</event>
<event>
 7    1  0.2751796E-010  0.4778726E+02  0.7816164E-02  0.1312668E+00
        -11   -1    0    0    0    0  0.00000000000E+00  0.00000000000E+00  0.45593999997E+02  0.45594000000E+02  0.51100000000E-03 0.  1.
         11   -1    0    0    0    0 -0.00000000000E+00 -0.00000000000E+00 -0.45593999997E+02  0.45594000000E+02  0.51100000000E-03 0. -1.
    9900012    2    1    2    0    0  0.26614104278E+02 -0.10649727478E+02  0.32586757908E+02  0.47787262301E+02  0.19999960135E+02 0.  0.
         12    1    1    2    0    0 -0.26614104278E+02  0.10649727478E+02 -0.32586757908E+02  0.43400737699E+02  0.00000000000E+00 0. -1.
         11    1    3    3    0    0  0.72954822640E+01 -0.41383438594E-01  0.15119737395E+02  0.16787859697E+02  0.51100000000E-03 0. -1.
        -11    1    3    3    0    0  0.67811892118E+01 -0.61336784673E+01  0.13438015239E+00  0.91446485418E+01  0.51100000000E-03 0.  1.
        -12    1    3    3    0    0  0.12537432802E+02 -0.44746655722E+01  0.17332640360E+02  0.21854754062E+02  0.00000000000E+00 0.  1.
</event>
<event>
 7    1  0.2751796E-010  0.4778727E+02  0.7816164E-02  0.1312668E+00
        -11   -1    0    0    0    0  0.00000000000E+00  0.00000000000E+00  0.45593999997E+02  0.45594000000E+02  0.51100000000E-03 0.  1.
         11   -1    0    0    0    0 -0.00000000000E+00 -0.00000000000E+00 -0.45593999997E+02  0.45594000000E+02  0.51100000000E-03 0. -1.
    9900012    2    1    2    0    0  0.32737099665E+02  0.85104292504E+01  0.27193356214E+02  0.47787265874E+02  0.19999976426E+02 0.  0.
         12    1    1    2    0    0 -0.32737099665E+02 -0.85104292504E+01 -0.27193356214E+02  0.43400734126E+02  0.00000000000E+00 0. -1.
         11    1    3    3    0    0  0.45722502580E+01  0.41493599692E+01  0.13711913135E+01  0.63247787673E+01  0.51100000000E-03 0. -1.
        -11    1    3    3    0    0  0.12995183797E+01 -0.23368924476E+01  0.82424130512E+01  0.86652863484E+01  0.51100000000E-03 0.  1.
        -12    1    3    3    0    0  0.26865331027E+02  0.66979617288E+01  0.17579751849E+02  0.32797200758E+02  0.00000000000E+00 0.  1.
</event>
<event>
 7    1  0.2751796E-010  0.4778727E+02  0.7816164E-02  0.1312668E+00
        -11   -1    0    0    0    0  0.00000000000E+00  0.00000000000E+00  0.45593999997E+02  0.45594000000E+02  0.51100000000E-03 0. -1.
         11   -1    0    0    0    0 -0.00000000000E+00 -0.00000000000E+00 -0.45593999997E+02  0.45594000000E+02  0.51100000000E-03 0.  1.
    9900012    2    1    2    0    0  0.11497269286E+02  0.28552609532E+02 -0.30597133654E+02  0.47787270743E+02  0.19999998627E+02 0.  0.
         12    1    1    2    0    0 -0.11497269286E+02 -0.28552609532E+02  0.30597133654E+02  0.43400729257E+02  0.00000000000E+00 0. -1.
         11    1    3    3    0    0 -0.53298356914E+01  0.57662819548E+01 -0.44992175137E+01  0.90498682077E+01  0.51100000000E-03 0. -1.
        -11    1    3    3    0    0  0.98557107618E+01  0.10705006561E+02 -0.15145883587E+02  0.21003094772E+02  0.51100000000E-03 0.  1.
         12    1    3    3    0    0  0.69713942156E+01  0.12081321016E+02 -0.10952032553E+02  0.17734307764E+02  0.00000000000E+00 0. -1.
</event>
<event>
 7    1  0.2751796E-010  0.4778727E+02  0.7816164E-02  0.1312668E+00
        -11   -1    0    0    0    0  0.00000000000E+00  0.00000000000E+00  0.45593999997E+02  0.45594000000E+02  0.51100000000E-03 0. -1.
         11   -1    0    0    0    0 -0.00000000000E+00 -0.00000000000E+00 -0.45593999997E+02  0.45594000000E+02  0.51100000000E-03 0.  1.
    9900012    2    1    2    0    0  0.18147281527E+02 -0.10748007011E+02 -0.37931248385E+02  0.47787273214E+02  0.20000009891E+02 0.  0.
         12    1    1    2    0    0 -0.18147281527E+02  0.10748007011E+02  0.37931248385E+02  0.43400726786E+02  0.00000000000E+00 0. -1.
         11    1    3    3    0    0  0.16875813021E+01 -0.36442371699E+01 -0.16989588277E+02  0.17457792108E+02  0.51100000000E-03 0. -1.
        -11    1    3    3    0    0  0.58305714736E+01  0.17639916098E+00 -0.15092520754E+02  0.16180570551E+02  0.51100000000E-03 0.  1.
         12    1    3    3    0    0  0.10629128752E+02 -0.72801690026E+01 -0.58491393537E+01  0.14148910555E+02  0.00000000000E+00 0. -1.
</event>
<event>
 7    1  0.2751796E-010  0.4778728E+02  0.7816164E-02  0.1312668E+00
        -11   -1    0    0    0    0  0.00000000000E+00  0.00000000000E+00  0.45593999997E+02  0.45594000000E+02  0.51100000000E-03 0. -1.
         11   -1    0    0    0    0 -0.00000000000E+00 -0.00000000000E+00 -0.45593999997E+02  0.45594000000E+02  0.51100000000E-03 0.  1.
    9900012    2    1    2    0    0  0.13388153825E+02  0.17529777314E+02 -0.37377619844E+02  0.47787283178E+02  0.20000055320E+02 0.  0.
         12    1    1    2    0    0 -0.13388153825E+02 -0.17529777314E+02  0.37377619844E+02  0.43400716822E+02  0.00000000000E+00 0. -1.
         11    1    3    3    0    0  0.82746566663E+01  0.91135016376E+00 -0.71424878709E+01  0.10968848404E+02  0.51100000000E-03 0. -1.
        -11    1    3    3    0    0 -0.26187473762E+01  0.31765389346E+01 -0.12988731554E+02  0.13625541643E+02  0.51100000000E-03 0.  1.
        -12    1    3    3    0    0  0.77322445353E+01  0.13441888215E+02 -0.17246400419E+02  0.23192893130E+02  0.00000000000E+00 0.  1.
</event>
<event>
 7    1  0.2751796E-010  0.4778727E+02  0.7816164E-02  0.1312668E+00
        -11   -1    0    0    0    0  0.00000000000E+00  0.00000000000E+00  0.45593999997E+02  0.45594000000E+02  0.51100000000E-03 0. -1.
         11   -1    0    0    0    0 -0.00000000000E+00 -0.00000000000E+00 -0.45593999997E+02  0.45594000000E+02  0.51100000000E-03 0.  1.
    9900012    2    1    2    0    0  0.39054222794E+02 -0.18892675291E+02 -0.12073204761E+01  0.47787272812E+02  0.20000008059E+02 0.  0.
         12    1    1    2    0    0 -0.39054222794E+02  0.18892675291E+02  0.12073204761E+01  0.43400727188E+02  0.00000000000E+00 0. -1.
         11    1    3    3    0    0  0.37209207737E+02 -0.15848499468E+02 -0.49221458909E+01  0.40742209025E+02  0.51100000000E-03 0. -1.
        -11    1    3    3    0    0  0.13098929705E+01 -0.20721025776E+01 -0.65430217757E+00  0.25372308304E+01  0.51100000000E-03 0.  1.
         12    1    3    3    0    0  0.53512208641E+00 -0.97207324534E+00  0.43691275923E+01  0.45078329561E+01  0.00000000000E+00 0. -1.
</event>
<event>
 7    1  0.2751796E-010  0.4778728E+02  0.7816164E-02  0.1312668E+00
        -11   -1    0    0    0    0  0.00000000000E+00  0.00000000000E+00  0.45593999997E+02  0.45594000000E+02  0.51100000000E-03 0.  1.
         11   -1    0    0    0    0 -0.00000000000E+00 -0.00000000000E+00 -0.45593999997E+02  0.45594000000E+02  0.51100000000E-03 0. -1.
    9900012    2    1    2    0    0  0.19086617010E+02 -0.25292492455E+02  0.29658283681E+02  0.47787275186E+02  0.20000018884E+02 0.  0.
         12    1    1    2    0    0 -0.19086617010E+02  0.25292492455E+02 -0.29658283681E+02  0.43400724814E+02  0.00000000000E+00 0. -1.
         11    1    3    3    0    0  0.14469760548E+02 -0.10190625733E+02  0.17288629855E+02  0.24741049809E+02  0.51100000000E-03 0. -1.
        -11    1    3    3    0    0 -0.12061786124E+01 -0.12128247284E+02  0.10885667302E+02  0.16341572810E+02  0.51100000000E-03 0.  1.
        -12    1    3    3    0    0  0.58230350750E+01 -0.29736194385E+01  0.14839865236E+01  0.67046525676E+01  0.00000000000E+00 0.  1.
</event>
<event>
 7    1  0.2751796E-010  0.4778727E+02  0.7816164E-02  0.1312668E+00
        -11   -1    0    0    0    0  0.00000000000E+00  0.00000000000E+00  0.45593999997E+02  0.45594000000E+02  0.51100000000E-03 0.  1.
         11   -1    0    0    0    0 -0.00000000000E+00 -0.00000000000E+00 -0.45593999997E+02  0.45594000000E+02  0.51100000000E-03 0. -1.
    9900012    2    1    2    0    0  0.37142101689E+02 -0.12387449502E+02  0.18725343540E+02  0.47787272890E+02  0.20000008414E+02 0.  0.
         12    1    1    2    0    0 -0.37142101689E+02  0.12387449502E+02 -0.18725343540E+02  0.43400727110E+02  0.00000000000E+00 0. -1.
         11    1    3    3    0    0  0.23541843487E+02 -0.86433193858E+01  0.18189913908E+02  0.30980612212E+02  0.51100000000E-03 0. -1.
        -11    1    3    3    0    0  0.12021609279E+02  0.66773734482E+00 -0.31527022911E+00  0.12044266619E+02  0.51100000000E-03 0.  1.
        -12    1    3    3    0    0  0.15786489229E+01 -0.44118674613E+01  0.85069986036E+00  0.47623940587E+01  0.00000000000E+00 0.  1.
</event>
<event>
 7    1  0.2751796E-010  0.4778728E+02  0.7816164E-02  0.1312668E+00
        -11   -1    0    0    0    0  0.00000000000E+00  0.00000000000E+00  0.45593999997E+02  0.45594000000E+02  0.51100000000E-03 0.  1.
         11   -1    0    0    0    0 -0.00000000000E+00 -0.00000000000E+00 -0.45593999997E+02  0.45594000000E+02  0.51100000000E-03 0. -1.
    9900012    2    1    2    0    0 -0.24968594448E+02  0.28316527582E+02  0.21409487011E+02  0.47787279072E+02  0.20000036600E+02 0.  0.
         12    1    1    2    0    0  0.24968594448E+02 -0.28316527582E+02 -0.21409487011E+02  0.43400720928E+02  0.00000000000E+00 0. -1.
         11    1    3    3    0    0 -0.36153856203E+01  0.56656763872E+01  0.10239146515E+02  0.12247898748E+02  0.51100000000E-03 0. -1.
        -11    1    3    3    0    0 -0.79648045139E+01  0.11146911911E+02 -0.15417079689E+01  0.13786537630E+02  0.51100000000E-03 0.  1.
         12    1    3    3    0    0 -0.13388404314E+02  0.11503939284E+02  0.12712048465E+02  0.21752842694E+02  0.00000000000E+00 0. -1.
</event>
<event>
 7    1  0.2751796E-010  0.4778727E+02  0.7816164E-02  0.1312668E+00
        -11   -1    0    0    0    0  0.00000000000E+00  0.00000000000E+00  0.45593999997E+02  0.45594000000E+02  0.51100000000E-03 0. -1.
         11   -1    0    0    0    0 -0.00000000000E+00 -0.00000000000E+00 -0.45593999997E+02  0.45594000000E+02  0.51100000000E-03 0.  1.
    9900012    2    1    2    0    0  0.51859952242E+01 -0.21681205767E+02 -0.37237806191E+02  0.47787269132E+02  0.19999991280E+02 0.  0.
         12    1    1    2    0    0 -0.51859952242E+01  0.21681205767E+02  0.37237806191E+02  0.43400730868E+02  0.00000000000E+00 0. -1.
         11    1    3    3    0    0  0.26558421569E+01 -0.19371885945E+02 -0.26939881192E+02  0.33287845553E+02  0.51100000000E-03 0. -1.
        -11    1    3    3    0    0 -0.26511458784E+01 -0.29035326101E+01 -0.77604145280E+01  0.86996040136E+01  0.51100000000E-03 0.  1.
         12    1    3    3    0    0  0.51812989458E+01  0.59421278796E+00 -0.25375104705E+01  0.57998195654E+01  0.00000000000E+00 0. -1.
</event>
<event>
 7    1  0.2751796E-010  0.4778730E+02  0.7816164E-02  0.1312668E+00
        -11   -1    0    0    0    0  0.00000000000E+00  0.00000000000E+00  0.45593999997E+02  0.45594000000E+02  0.51100000000E-03 0.  1.
         11   -1    0    0    0    0 -0.00000000000E+00 -0.00000000000E+00 -0.45593999997E+02  0.45594000000E+02  0.51100000000E-03 0. -1.
    9900012    2    1    2    0    0  0.26821653882E+02  0.29092642201E+02  0.17827999126E+02  0.47787303000E+02  0.20000145698E+02 0.  0.
         12    1    1    2    0    0 -0.26821653882E+02 -0.29092642201E+02 -0.17827999126E+02  0.43400697000E+02  0.00000000000E+00 0. -1.
         11    1    3    3    0    0  0.32536181821E-01  0.79586473084E+01  0.86965178268E+00  0.80060864389E+01  0.51100000000E-03 0. -1.
        -11    1    3    3    0    0  0.20657366989E+02  0.21416868342E+02  0.15099207573E+02  0.33367576030E+02  0.51100000000E-03 0.  1.
         12    1    3    3    0    0  0.61317507119E+01 -0.28287344968E+00  0.18591397703E+01  0.64136405314E+01  0.00000000000E+00 0. -1.
</event>
<event>
 7    1  0.2751796E-010  0.4778727E+02  0.7816164E-02  0.1312668E+00
        -11   -1    0    0    0    0  0.00000000000E+00  0.00000000000E+00  0.45593999997E+02  0.45594000000E+02  0.51100000000E-03 0. -1.
         11   -1    0    0    0    0 -0.00000000000E+00 -0.00000000000E+00 -0.45593999997E+02  0.45594000000E+02  0.51100000000E-03 0.  1.
    9900012    2    1    2    0    0 -0.18027745289E+02  0.32425997224E+02 -0.22520622159E+02  0.47787270529E+02  0.19999997651E+02 0.  0.
         12    1    1    2    0    0  0.18027745289E+02 -0.32425997224E+02  0.22520622159E+02  0.43400729471E+02  0.00000000000E+00 0. -1.
         11    1    3    3    0    0 -0.68565320097E+00  0.15422684757E+02 -0.12929979174E+02  0.20137370412E+02  0.51100000000E-03 0. -1.
        -11    1    3    3    0    0 -0.92612053077E+01  0.58885020859E+01 -0.84686671406E+01  0.13862276291E+02  0.51100000000E-03 0.  1.
         12    1    3    3    0    0 -0.80808867807E+01  0.11114810381E+02 -0.11219758439E+01  0.13787623826E+02  0.00000000000E+00 0. -1.
</event>
<event>
 7    1  0.2751796E-010  0.4778727E+02  0.7816164E-02  0.1312668E+00
        -11   -1    0    0    0    0  0.00000000000E+00  0.00000000000E+00  0.45593999997E+02  0.45594000000E+02  0.51100000000E-03 0.  1.
         11   -1    0    0    0    0 -0.00000000000E+00 -0.00000000000E+00 -0.45593999997E+02  0.45594000000E+02  0.51100000000E-03 0. -1.
    9900012    2    1    2    0    0  0.32893963690E+02  0.53790922074E+01  0.27797041515E+02  0.47787274232E+02  0.20000014533E+02 0.  0.
         12    1    1    2    0    0 -0.32893963690E+02 -0.53790922074E+01 -0.27797041515E+02  0.43400725768E+02  0.00000000000E+00 0. -1.
         11    1    3    3    0    0  0.21835080004E+02 -0.59808847174E+01  0.15591540000E+02  0.27488867212E+02  0.51100000000E-03 0. -1.
        -11    1    3    3    0    0  0.96407949248E+01  0.99858522513E+01  0.11933868320E+02  0.18305173731E+02  0.51100000000E-03 0.  1.
        -12    1    3    3    0    0  0.14180887610E+01  0.13741246735E+01  0.27163319521E+00  0.19932332892E+01  0.00000000000E+00 0.  1.
</event>
<event>
 7    1  0.2751796E-010  0.4778727E+02  0.7816164E-02  0.1312668E+00
        -11   -1    0    0    0    0  0.00000000000E+00  0.00000000000E+00  0.45593999997E+02  0.45594000000E+02  0.51100000000E-03 0.  1.
         11   -1    0    0    0    0 -0.00000000000E+00 -0.00000000000E+00 -0.45593999997E+02  0.45594000000E+02  0.51100000000E-03 0. -1.
    9900012    2    1    2    0    0  0.42627367118E+02 -0.76010373046E+01 -0.29589468332E+01  0.47787267726E+02  0.19999984871E+02 0.  0.
         12    1    1    2    0    0 -0.42627367118E+02  0.76010373046E+01  0.29589468332E+01  0.43400732274E+02  0.00000000000E+00 0. -1.
         11    1    3    3    0    0  0.83362827766E+01  0.56909086339E+01 -0.16520055305E+01  0.10227862638E+02  0.51100000000E-03 0. -1.
        -11    1    3    3    0    0  0.26075229694E+02 -0.78004880002E+01  0.15841240952E+01  0.27263064135E+02  0.51100000000E-03 0.  1.
         12    1    3    3    0    0  0.82158546480E+01 -0.54914579383E+01 -0.28910653980E+01  0.10296340953E+02  0.00000000000E+00 0. -1.
</event>
<event>
 7    1  0.2751796E-010  0.4778726E+02  0.7816164E-02  0.1312668E+00
        -11   -1    0    0    0    0  0.00000000000E+00  0.00000000000E+00  0.45593999997E+02  0.45594000000E+02  0.51100000000E-03 0. -1.
         11   -1    0    0    0    0 -0.00000000000E+00 -0.00000000000E+00 -0.45593999997E+02  0.45594000000E+02  0.51100000000E-03 0.  1.
    9900012    2    1    2    0    0  0.38072274518E+02 -0.14328635025E+02  0.15126667123E+02  0.47787263521E+02  0.19999965697E+02 0.  0.
         12    1    1    2    0    0 -0.38072274518E+02  0.14328635025E+02 -0.15126667123E+02  0.43400736479E+02  0.00000000000E+00 0. -1.
         11    1    3    3    0    0  0.16637073129E+02 -0.67781202374E+01  0.13936688036E+02  0.22736894905E+02  0.51100000000E-03 0. -1.
        -11    1    3    3    0    0  0.13772275605E+02 -0.20332689092E+00 -0.21071978890E+01  0.13934030299E+02  0.51100000000E-03 0.  1.
         12    1    3    3    0    0  0.76629257847E+01 -0.73471878965E+01  0.32971769754E+01  0.11116338317E+02  0.00000000000E+00 0. -1.
</event>
<event>
 7    1  0.2751796E-010  0.4778728E+02  0.7816164E-02  0.1312668E+00
        -11   -1    0    0    0    0  0.00000000000E+00  0.00000000000E+00  0.45593999997E+02  0.45594000000E+02  0.51100000000E-03 0. -1.
         11   -1    0    0    0    0 -0.00000000000E+00 -0.00000000000E+00 -0.45593999997E+02  0.45594000000E+02  0.51100000000E-03 0.  1.
    9900012    2    1    2    0    0 -0.20183075462E+02 -0.98571985136E+01 -0.37136261891E+02  0.47787275986E+02  0.20000022532E+02 0.  0.
         12    1    1    2    0    0  0.20183075462E+02  0.98571985136E+01  0.37136261891E+02  0.43400724014E+02  0.00000000000E+00 0. -1.
         11    1    3    3    0    0  0.50173546236E+00 -0.15104819413E+00  0.16405916227E+00  0.54906256563E+00  0.51100000000E-03 0. -1.
        -11    1    3    3    0    0 -0.80262595626E+00  0.11711469563E+01 -0.16234811507E+02  0.16296775710E+02  0.51100000000E-03 0.  1.
        -12    1    3    3    0    0 -0.19882184968E+02 -0.10877297276E+02 -0.21065509547E+02  0.30941437711E+02  0.00000000000E+00 0.  1.
</event>
<event>
 7    1  0.2751796E-010  0.4778727E+02  0.7816164E-02  0.1312668E+00
        -11   -1    0    0    0    0  0.00000000000E+00  0.00000000000E+00  0.45593999997E+02  0.45594000000E+02  0.51100000000E-03 0. -1.
         11   -1    0    0    0    0 -0.00000000000E+00 -0.00000000000E+00 -0.45593999997E+02  0.45594000000E+02  0.51100000000E-03 0.  1.
    9900012    2    1    2    0    0 -0.34081738710E+02 -0.23688225038E+02 -0.12685675859E+02  0.47787270848E+02  0.19999999104E+02 0.  0.
         12    1    1    2    0    0  0.34081738710E+02  0.23688225038E+02  0.12685675859E+02  0.43400729152E+02  0.00000000000E+00 0. -1.
         11    1    3    3    0    0 -0.11110594758E+02 -0.76949953044E+01  0.25200941777E+01  0.13748059628E+02  0.51100000000E-03 0. -1.
        -11    1    3    3    0    0 -0.17785745663E+02 -0.11264903482E+02 -0.16690444080E+02  0.26866367881E+02  0.51100000000E-03 0.  1.
        -12    1    3    3    0    0 -0.51853982889E+01 -0.47283262508E+01  0.14846740434E+01  0.71728433389E+01  0.00000000000E+00 0.  1.
</event>
<event>
 7    1  0.2751796E-010  0.4778727E+02  0.7816164E-02  0.1312668E+00
        -11   -1    0    0    0    0  0.00000000000E+00  0.00000000000E+00  0.45593999997E+02  0.45594000000E+02  0.51100000000E-03 0.  1.
         11   -1    0    0    0    0 -0.00000000000E+00 -0.00000000000E+00 -0.45593999997E+02  0.45594000000E+02  0.51100000000E-03 0. -1.
    9900012    2    1    2    0    0 -0.13951100194E+02  0.11773058044E+02  0.39374930035E+02  0.47787271808E+02  0.20000003483E+02 0.  0.
         12    1    1    2    0    0  0.13951100194E+02 -0.11773058044E+02 -0.39374930035E+02  0.43400728192E+02  0.00000000000E+00 0. -1.
         11    1    3    3    0    0 -0.18977922828E+01  0.28876920864E+01 -0.21504468227E+00  0.34621706501E+01  0.51100000000E-03 0. -1.
        -11    1    3    3    0    0 -0.99010076757E+01  0.10701511105E+02  0.38725968042E+02  0.41379377642E+02  0.51100000000E-03 0.  1.
        -12    1    3    3    0    0 -0.21523002355E+01 -0.18161451478E+01  0.86400667471E+00  0.29457235165E+01  0.00000000000E+00 0.  1.
</event>
<event>
 7    1  0.2751796E-010  0.4778727E+02  0.7816164E-02  0.1312668E+00
        -11   -1    0    0    0    0  0.00000000000E+00  0.00000000000E+00  0.45593999997E+02  0.45594000000E+02  0.51100000000E-03 0.  1.
         11   -1    0    0    0    0 -0.00000000000E+00 -0.00000000000E+00 -0.45593999997E+02  0.45594000000E+02  0.51100000000E-03 0. -1.
    9900012    2    1    2    0    0  0.11178242730E+02 -0.17439472954E+02  0.38138362219E+02  0.47787274197E+02  0.20000014374E+02 0.  0.
         12    1    1    2    0    0 -0.11178242730E+02  0.17439472954E+02 -0.38138362219E+02  0.43400725803E+02  0.00000000000E+00 0. -1.
         11    1    3    3    0    0  0.38807638192E+01 -0.67036268204E+01  0.34646337718E+00  0.77536428536E+01  0.51100000000E-03 0. -1.
        -11    1    3    3    0    0  0.18927487232E+01 -0.41900746351E+01  0.15975157566E+02  0.16623624235E+02  0.51100000000E-03 0.  1.
         12    1    3    3    0    0  0.54047301874E+01 -0.65457714989E+01  0.21816741276E+02  0.23410007108E+02  0.00000000000E+00 0. -1.
</event>
<event>
 7    1  0.2751796E-010  0.4778728E+02  0.7816164E-02  0.1312668E+00
        -11   -1    0    0    0    0  0.00000000000E+00  0.00000000000E+00  0.45593999997E+02  0.45594000000E+02  0.51100000000E-03 0.  1.
         11   -1    0    0    0    0 -0.00000000000E+00 -0.00000000000E+00 -0.45593999997E+02  0.45594000000E+02  0.51100000000E-03 0. -1.
    9900012    2    1    2    0    0  0.73708338832E+01 -0.25439281202E+02  0.34382213941E+02  0.47787275862E+02  0.20000021967E+02 0.  0.
         12    1    1    2    0    0 -0.73708338832E+01  0.25439281202E+02 -0.34382213941E+02  0.43400724138E+02  0.00000000000E+00 0. -1.
         11    1    3    3    0    0  0.90477326923E+00 -0.18527914734E+02  0.21477632877E+02  0.28379410728E+02  0.51100000000E-03 0. -1.
        -11    1    3    3    0    0  0.47274239434E+01 -0.99342614515E+01  0.10055906129E+02  0.14905010435E+02  0.51100000000E-03 0.  1.
         12    1    3    3    0    0  0.17386366705E+01  0.30228949836E+01  0.28486749359E+01  0.45028546995E+01  0.00000000000E+00 0. -1.
</event>
<event>
 7    1  0.2751796E-010  0.4778727E+02  0.7816164E-02  0.1312668E+00
        -11   -1    0    0    0    0  0.00000000000E+00  0.00000000000E+00  0.45593999997E+02  0.45594000000E+02  0.51100000000E-03 0.  1.
         11   -1    0    0    0    0 -0.00000000000E+00 -0.00000000000E+00 -0.45593999997E+02  0.45594000000E+02  0.51100000000E-03 0. -1.
    9900012    2    1    2    0    0  0.43066881575E+02  0.24432499476E+01  0.47851299144E+01  0.47787271582E+02  0.20000002450E+02 0.  0.
         12    1    1    2    0    0 -0.43066881575E+02 -0.24432499476E+01 -0.47851299144E+01  0.43400728418E+02  0.00000000000E+00 0. -1.
         11    1    3    3    0    0  0.18710351426E+02  0.87491328784E+01  0.16154475667E+01  0.20717969199E+02  0.51100000000E-03 0. -1.
        -11    1    3    3    0    0  0.18912951092E+01  0.20673929948E+01  0.10819466271E+01  0.30036177770E+01  0.51100000000E-03 0.  1.
         12    1    3    3    0    0  0.22465235040E+02 -0.83732759256E+01  0.20877357207E+01  0.24065684606E+02  0.00000000000E+00 0. -1.
</event>
<event>
 7    1  0.2751796E-010  0.4778727E+02  0.7816164E-02  0.1312668E+00
        -11   -1    0    0    0    0  0.00000000000E+00  0.00000000000E+00  0.45593999997E+02  0.45594000000E+02  0.51100000000E-03 0.  1.
         11   -1    0    0    0    0 -0.00000000000E+00 -0.00000000000E+00 -0.45593999997E+02  0.45594000000E+02  0.51100000000E-03 0. -1.
    9900012    2    1    2    0    0 -0.37005294716E+02 -0.22523007824E+02 -0.26354474450E+01  0.47787270724E+02  0.19999998540E+02 0.  0.
         12    1    1    2    0    0  0.37005294716E+02  0.22523007824E+02  0.26354474450E+01  0.43400729276E+02  0.00000000000E+00 0. -1.
         11    1    3    3    0    0 -0.15223819905E+02 -0.11084775869E+02 -0.99231468393E+01  0.21286281781E+02  0.51100000000E-03 0. -1.
        -11    1    3    3    0    0 -0.19386080437E+02 -0.80216487263E+01  0.76057627616E+01  0.22316240508E+02  0.51100000000E-03 0.  1.
        -12    1    3    3    0    0 -0.23953943735E+01 -0.34165832285E+01 -0.31806336723E+00  0.41847484354E+01  0.00000000000E+00 0.  1.
</event>
<event>
 7    1  0.2751796E-010  0.4778727E+02  0.7816164E-02  0.1312668E+00
        -11   -1    0    0    0    0  0.00000000000E+00  0.00000000000E+00  0.45593999997E+02  0.45594000000E+02  0.51100000000E-03 0.  1.
         11   -1    0    0    0    0 -0.00000000000E+00 -0.00000000000E+00 -0.45593999997E+02  0.45594000000E+02  0.51100000000E-03 0. -1.
    9900012    2    1    2    0    0  0.25794018238E+02  0.45442498588E+01  0.34606960685E+02  0.47787270611E+02  0.19999998023E+02 0.  0.
         12    1    1    2    0    0 -0.25794018238E+02 -0.45442498588E+01 -0.34606960685E+02  0.43400729389E+02  0.00000000000E+00 0. -1.
         11    1    3    3    0    0  0.14076534483E+02  0.10157289263E+02  0.12814360555E+02  0.21576078998E+02  0.51100000000E-03 0. -1.
        -11    1    3    3    0    0  0.38986027503E+01 -0.41641396764E+01  0.13819175388E+02  0.14950209741E+02  0.51100000000E-03 0.  1.
         12    1    3    3    0    0  0.78188810050E+01 -0.14488997282E+01  0.79734247427E+01  0.11260981872E+02  0.00000000000E+00 0. -1.
</event>
<event>
 7    1  0.2751796E-010  0.4778727E+02  0.7816164E-02  0.1312668E+00
        -11   -1    0    0    0    0  0.00000000000E+00  0.00000000000E+00  0.45593999997E+02  0.45594000000E+02  0.51100000000E-03 0.  1.
         11   -1    0    0    0    0 -0.00000000000E+00 -0.00000000000E+00 -0.45593999997E+02  0.45594000000E+02  0.51100000000E-03 0. -1.
    9900012    2    1    2    0    0  0.16720300063E+02  0.31264180347E+02  0.25032096175E+02  0.47787271368E+02  0.20000001473E+02 0.  0.
         12    1    1    2    0    0 -0.16720300063E+02 -0.31264180347E+02 -0.25032096175E+02  0.43400728632E+02  0.00000000000E+00 0. -1.
         11    1    3    3    0    0 -0.72022029157E+00  0.21192358325E+01 -0.28930218915E+01  0.36577935573E+01  0.51100000000E-03 0. -1.
        -11    1    3    3    0    0  0.85656936737E+01  0.17226058819E+02  0.14329415407E+02  0.23988337932E+02  0.51100000000E-03 0.  1.
         12    1    3    3    0    0  0.88748266805E+01  0.11918885695E+02  0.13595702659E+02  0.20141139879E+02  0.00000000000E+00 0. -1.
</event>
<event>
 7    1  0.2751796E-010  0.4778727E+02  0.7816164E-02  0.1312668E+00
        -11   -1    0    0    0    0  0.00000000000E+00  0.00000000000E+00  0.45593999997E+02  0.45594000000E+02  0.51100000000E-03 0.  1.
         11   -1    0    0    0    0 -0.00000000000E+00 -0.00000000000E+00 -0.45593999997E+02  0.45594000000E+02  0.51100000000E-03 0. -1.
    9900012    2    1    2    0    0 -0.33292723365E+02  0.23076107123E+02  0.15579189961E+02  0.47787270642E+02  0.19999998165E+02 0.  0.
         12    1    1    2    0    0  0.33292723365E+02 -0.23076107123E+02 -0.15579189961E+02  0.43400729358E+02  0.00000000000E+00 0. -1.
         11    1    3    3    0    0 -0.11237918502E+02  0.65265547981E+01  0.14875111223E+02  0.19752358440E+02  0.51100000000E-03 0. -1.
        -11    1    3    3    0    0 -0.17299513177E+02  0.10929789256E+02  0.19983055651E+01  0.20560317963E+02  0.51100000000E-03 0.  1.
         12    1    3    3    0    0 -0.47552916854E+01  0.56197630687E+01 -0.12942268267E+01  0.74745942392E+01  0.00000000000E+00 0. -1.
</event>
<event>
 7    1  0.2751796E-010  0.4778727E+02  0.7816164E-02  0.1312668E+00
        -11   -1    0    0    0    0  0.00000000000E+00  0.00000000000E+00  0.45593999997E+02  0.45594000000E+02  0.51100000000E-03 0.  1.
         11   -1    0    0    0    0 -0.00000000000E+00 -0.00000000000E+00 -0.45593999997E+02  0.45594000000E+02  0.51100000000E-03 0. -1.
    9900012    2    1    2    0    0  0.31767560513E+02  0.25289195468E+02  0.15326501557E+02  0.47787274680E+02  0.20000016575E+02 0.  0.
         12    1    1    2    0    0 -0.31767560513E+02 -0.25289195468E+02 -0.15326501557E+02  0.43400725320E+02  0.00000000000E+00 0. -1.
         11    1    3    3    0    0  0.47854333767E+01 -0.33586693239E+01  0.18902341608E+01  0.61444298087E+01  0.51100000000E-03 0. -1.
        -11    1    3    3    0    0  0.20701965816E+02  0.22212897501E+02  0.11319018951E+02  0.32405314291E+02  0.51100000000E-03 0.  1.
         12    1    3    3    0    0  0.62801613204E+01  0.64349672903E+01  0.21172484453E+01  0.92375305800E+01  0.00000000000E+00 0. -1.
</event>
<event>
 7    1  0.2751796E-010  0.4778727E+02  0.7816164E-02  0.1312668E+00
        -11   -1    0    0    0    0  0.00000000000E+00  0.00000000000E+00  0.45593999997E+02  0.45594000000E+02  0.51100000000E-03 0. -1.
         11   -1    0    0    0    0 -0.00000000000E+00 -0.00000000000E+00 -0.45593999997E+02  0.45594000000E+02  0.51100000000E-03 0.  1.
    9900012    2    1    2    0    0  0.23108493946E+01  0.26292713876E+02 -0.34452529908E+02  0.47787266770E+02  0.19999980509E+02 0.  0.
         12    1    1    2    0    0 -0.23108493946E+01 -0.26292713876E+02  0.34452529908E+02  0.43400733230E+02  0.00000000000E+00 0. -1.
         11    1    3    3    0    0  0.88022848429E+00  0.96377742758E+01 -0.20206168953E+02  0.22404257613E+02  0.51100000000E-03 0.  1.
        -11    1    3    3    0    0 -0.11075362921E+00  0.30704859992E+01  0.23590343231E+01  0.38736538096E+01  0.51100000000E-03 0. -1.
         12    1    3    3    0    0  0.15413745395E+01  0.13584453600E+02 -0.16605395278E+02  0.21509355347E+02  0.00000000000E+00 0. -1.
</event>
<event>
 7    1  0.2751796E-010  0.4778727E+02  0.7816164E-02  0.1312668E+00
        -11   -1    0    0    0    0  0.00000000000E+00  0.00000000000E+00  0.45593999997E+02  0.45594000000E+02  0.51100000000E-03 0.  1.
         11   -1    0    0    0    0 -0.00000000000E+00 -0.00000000000E+00 -0.45593999997E+02  0.45594000000E+02  0.51100000000E-03 0. -1.
    9900012    2    1    2    0    0  0.67862600675E+01  0.11827922166E+02  0.41202793659E+02  0.47787271046E+02  0.20000000006E+02 0.  0.
         12    1    1    2    0    0 -0.67862600675E+01 -0.11827922166E+02 -0.41202793659E+02  0.43400728954E+02  0.00000000000E+00 0. -1.
         11    1    3    3    0    0  0.22275438394E+01 -0.15098115211E+01  0.43755027272E+01  0.51367798047E+01  0.51100000000E-03 0. -1.
        -11    1    3    3    0    0  0.98219912710E+01  0.66163023588E+01  0.14344022958E+02  0.18601020518E+02  0.51100000000E-03 0.  1.
        -12    1    3    3    0    0 -0.52632750429E+01  0.67214313281E+01  0.22483267974E+02  0.24049470723E+02  0.00000000000E+00 0.  1.
</event>
<event>
 7    1  0.2751796E-010  0.4778727E+02  0.7816164E-02  0.1312668E+00
        -11   -1    0    0    0    0  0.00000000000E+00  0.00000000000E+00  0.45593999997E+02  0.45594000000E+02  0.51100000000E-03 0. -1.
         11   -1    0    0    0    0 -0.00000000000E+00 -0.00000000000E+00 -0.45593999997E+02  0.45594000000E+02  0.51100000000E-03 0.  1.
    9900012    2    1    2    0    0  0.11143523276E+02 -0.35975790781E+02 -0.21568201228E+02  0.47787274919E+02  0.20000017666E+02 0.  0.
         12    1    1    2    0    0 -0.11143523276E+02  0.35975790781E+02  0.21568201228E+02  0.43400725081E+02  0.00000000000E+00 0. -1.
         11    1    3    3    0    0  0.27410237229E+01 -0.15270184982E+01 -0.89311517714E+01  0.94662806196E+01  0.51100000000E-03 0. -1.
        -11    1    3    3    0    0  0.41366692969E+01 -0.27752802434E+02 -0.82347219754E+01  0.29242789232E+02  0.51100000000E-03 0.  1.
        -12    1    3    3    0    0  0.42658302559E+01 -0.66959698497E+01 -0.44023274808E+01  0.90782050675E+01  0.00000000000E+00 0.  1.
</event>
<event>
 7    1  0.2751796E-010  0.4778727E+02  0.7816164E-02  0.1312668E+00
        -11   -1    0    0    0    0  0.00000000000E+00  0.00000000000E+00  0.45593999997E+02  0.45594000000E+02  0.51100000000E-03 0.  1.
         11   -1    0    0    0    0 -0.00000000000E+00 -0.00000000000E+00 -0.45593999997E+02  0.45594000000E+02  0.51100000000E-03 0. -1.
    9900012    2    1    2    0    0  0.28104150802E+02  0.32836352236E+02 -0.39438625885E+01  0.47787269907E+02  0.19999994814E+02 0.  0.
         12    1    1    2    0    0 -0.28104150802E+02 -0.32836352236E+02  0.39438625885E+01  0.43400730093E+02  0.00000000000E+00 0. -1.
         11    1    3    3    0    0  0.28991434077E+01  0.21561130132E+00 -0.64964668849E+00  0.29788524322E+01  0.51100000000E-03 0. -1.
        -11    1    3    3    0    0  0.11193486224E+01  0.12744794011E+02  0.25315130904E+01  0.13041904559E+02  0.51100000000E-03 0.  1.
        -12    1    3    3    0    0  0.24085658772E+02  0.19875946924E+02 -0.58257289905E+01  0.31766512916E+02  0.00000000000E+00 0.  1.
</event>
<event>
 7    1  0.2751796E-010  0.4778727E+02  0.7816164E-02  0.1312668E+00
        -11   -1    0    0    0    0  0.00000000000E+00  0.00000000000E+00  0.45593999997E+02  0.45594000000E+02  0.51100000000E-03 0.  1.
         11   -1    0    0    0    0 -0.00000000000E+00 -0.00000000000E+00 -0.45593999997E+02  0.45594000000E+02  0.51100000000E-03 0. -1.
    9900012    2    1    2    0    0 -0.13065561217E+02  0.26619735663E+02  0.31690756831E+02  0.47787270914E+02  0.19999999406E+02 0.  0.
         12    1    1    2    0    0  0.13065561217E+02 -0.26619735663E+02 -0.31690756831E+02  0.43400729086E+02  0.00000000000E+00 0. -1.
         11    1    3    3    0    0  0.28329672343E+01  0.11414405409E+02  0.98267973950E+01  0.15325805085E+02  0.51100000000E-03 0. -1.
        -11    1    3    3    0    0 -0.22002209251E+01  0.67438142112E+01  0.10815735569E+02  0.12934455474E+02  0.51100000000E-03 0.  1.
         12    1    3    3    0    0 -0.13698307526E+02  0.84615160428E+01  0.11048223866E+02  0.19527010355E+02  0.00000000000E+00 0. -1.
</event>
<event>
 7    1  0.2751796E-010  0.4778727E+02  0.7816164E-02  0.1312668E+00
        -11   -1    0    0    0    0  0.00000000000E+00  0.00000000000E+00  0.45593999997E+02  0.45594000000E+02  0.51100000000E-03 0.  1.
         11   -1    0    0    0    0 -0.00000000000E+00 -0.00000000000E+00 -0.45593999997E+02  0.45594000000E+02  0.51100000000E-03 0. -1.
    9900012    2    1    2    0    0 -0.65139092647E+00  0.16826164898E+02  0.40000989058E+02  0.47787271193E+02  0.20000000678E+02 0.  0.
         12    1    1    2    0    0  0.65139092647E+00 -0.16826164898E+02 -0.40000989058E+02  0.43400728807E+02  0.00000000000E+00 0. -1.
         11    1    3    3    0    0 -0.25163133974E+01 -0.66063461403E+00  0.45747395877E+00  0.26415059893E+01  0.51100000000E-03 0. -1.
        -11    1    3    3    0    0  0.31423457244E+01  0.15024413165E+02  0.39493282815E+02  0.42371295889E+02  0.51100000000E-03 0.  1.
        -12    1    3    3    0    0 -0.12774232535E+01  0.24623863477E+01  0.50232284693E-01  0.27744693144E+01  0.00000000000E+00 0.  1.
</event>
<event>
 7    1  0.2751796E-010  0.4778727E+02  0.7816164E-02  0.1312668E+00
        -11   -1    0    0    0    0  0.00000000000E+00  0.00000000000E+00  0.45593999997E+02  0.45594000000E+02  0.51100000000E-03 0. -1.
         11   -1    0    0    0    0 -0.00000000000E+00 -0.00000000000E+00 -0.45593999997E+02  0.45594000000E+02  0.51100000000E-03 0.  1.
    9900012    2    1    2    0    0 -0.82237811037E+01 -0.39331186629E+02 -0.16402755794E+02  0.47787271723E+02  0.20000003096E+02 0.  0.
         12    1    1    2    0    0  0.82237811037E+01  0.39331186629E+02  0.16402755794E+02  0.43400728277E+02  0.00000000000E+00 0. -1.
         11    1    3    3    0    0 -0.52767893310E+01 -0.89766288530E+01 -0.73829582856E+01  0.12764499384E+02  0.51100000000E-03 0. -1.
        -11    1    3    3    0    0 -0.28630244418E+01 -0.31682532119E+02 -0.10026409636E+02  0.33354289693E+02  0.51100000000E-03 0.  1.
        -12    1    3    3    0    0 -0.83967330853E-01  0.13279743432E+01  0.10066121276E+01  0.16684826473E+01  0.00000000000E+00 0.  1.
</event>
<event>
 7    1  0.2751796E-010  0.4778728E+02  0.7816164E-02  0.1312668E+00
        -11   -1    0    0    0    0  0.00000000000E+00  0.00000000000E+00  0.45593999997E+02  0.45594000000E+02  0.51100000000E-03 0.  1.
         11   -1    0    0    0    0 -0.00000000000E+00 -0.00000000000E+00 -0.45593999997E+02  0.45594000000E+02  0.51100000000E-03 0. -1.
    9900012    2    1    2    0    0 -0.11342641450E+02 -0.37778363386E+02  0.18104214951E+02  0.47787275880E+02  0.20000022048E+02 0.  0.
         12    1    1    2    0    0  0.11342641450E+02  0.37778363386E+02 -0.18104214951E+02  0.43400724120E+02  0.00000000000E+00 0. -1.
         11    1    3    3    0    0 -0.69773340508E+01 -0.13386020581E+02 -0.21749063091E+01  0.15251195205E+02  0.51100000000E-03 0. -1.
        -11    1    3    3    0    0  0.10519450623E+01 -0.10079219001E+02  0.77578442513E+01  0.12762499433E+02  0.51100000000E-03 0.  1.
         12    1    3    3    0    0 -0.54172524613E+01 -0.14313123804E+02  0.12521277008E+02  0.19773581243E+02  0.00000000000E+00 0. -1.
</event>
<event>
 7    1  0.2751796E-010  0.4778727E+02  0.7816164E-02  0.1312668E+00
        -11   -1    0    0    0    0  0.00000000000E+00  0.00000000000E+00  0.45593999997E+02  0.45594000000E+02  0.51100000000E-03 0.  1.
         11   -1    0    0    0    0 -0.00000000000E+00 -0.00000000000E+00 -0.45593999997E+02  0.45594000000E+02  0.51100000000E-03 0. -1.
    9900012    2    1    2    0    0  0.40251329383E+02 -0.12679136992E+02  0.10133765218E+02  0.47787271556E+02  0.20000002333E+02 0.  0.
         12    1    1    2    0    0 -0.40251329383E+02  0.12679136992E+02 -0.10133765218E+02  0.43400728444E+02  0.00000000000E+00 0. -1.
         11    1    3    3    0    0  0.77353630743E+01 -0.54008537210E+01 -0.55380349949E+01  0.10939602126E+02  0.51100000000E-03 0. -1.
        -11    1    3    3    0    0  0.27940448990E+02 -0.58172501816E+01  0.13164322623E+02  0.31429420609E+02  0.51100000000E-03 0.  1.
         12    1    3    3    0    0  0.45755173185E+01 -0.14610330897E+01  0.25074775904E+01  0.54182488212E+01  0.00000000000E+00 0. -1.
</event>
<event>
 7    1  0.2751796E-010  0.4778727E+02  0.7816164E-02  0.1312668E+00
        -11   -1    0    0    0    0  0.00000000000E+00  0.00000000000E+00  0.45593999997E+02  0.45594000000E+02  0.51100000000E-03 0. -1.
         11   -1    0    0    0    0 -0.00000000000E+00 -0.00000000000E+00 -0.45593999997E+02  0.45594000000E+02  0.51100000000E-03 0.  1.
    9900012    2    1    2    0    0 -0.21148539404E+02  0.36990958697E+02 -0.82481422691E+01  0.47787267343E+02  0.19999983123E+02 0.  0.
         12    1    1    2    0    0  0.21148539404E+02 -0.36990958697E+02  0.82481422691E+01  0.43400732657E+02  0.00000000000E+00 0. -1.
         11    1    3    3    0    0  0.88834903942E+00  0.11529665219E+02  0.59169420953E+00  0.11578965687E+02  0.51100000000E-03 0. -1.
        -11    1    3    3    0    0 -0.16165697084E+02  0.15747689024E+02 -0.10220463455E+02  0.24774530173E+02  0.51100000000E-03 0.  1.
         12    1    3    3    0    0 -0.58711913596E+01  0.97136044547E+01  0.13806269760E+01  0.11433771483E+02  0.00000000000E+00 0. -1.
</event>
<event>
 7    1  0.2751796E-010  0.4778727E+02  0.7816164E-02  0.1312668E+00
        -11   -1    0    0    0    0  0.00000000000E+00  0.00000000000E+00  0.45593999997E+02  0.45594000000E+02  0.51100000000E-03 0.  1.
         11   -1    0    0    0    0 -0.00000000000E+00 -0.00000000000E+00 -0.45593999997E+02  0.45594000000E+02  0.51100000000E-03 0. -1.
    9900012    2    1    2    0    0  0.18707112680E+02  0.14327891486E+02  0.36446930221E+02  0.47787271184E+02  0.20000000634E+02 0.  0.
         12    1    1    2    0    0 -0.18707112680E+02 -0.14327891486E+02 -0.36446930221E+02  0.43400728816E+02  0.00000000000E+00 0. -1.
         11    1    3    3    0    0  0.16408733762E+02  0.54698469934E+01  0.17025988755E+02  0.24270353585E+02  0.51100000000E-03 0. -1.
        -11    1    3    3    0    0  0.30592864774E+01  0.10713160595E+02  0.15221319280E+02  0.18863181189E+02  0.51100000000E-03 0.  1.
         12    1    3    3    0    0 -0.76090755861E+00 -0.18551161023E+01  0.41996221861E+01  0.46537364098E+01  0.00000000000E+00 0. -1.
</event>
<event>
 7    1  0.2751796E-010  0.4778727E+02  0.7816164E-02  0.1312668E+00
        -11   -1    0    0    0    0  0.00000000000E+00  0.00000000000E+00  0.45593999997E+02  0.45594000000E+02  0.51100000000E-03 0.  1.
         11   -1    0    0    0    0 -0.00000000000E+00 -0.00000000000E+00 -0.45593999997E+02  0.45594000000E+02  0.51100000000E-03 0. -1.
    9900012    2    1    2    0    0  0.35538363457E+02 -0.91978086878E+01  0.23152716064E+02  0.47787271630E+02  0.20000002670E+02 0.  0.
         12    1    1    2    0    0 -0.35538363457E+02  0.91978086878E+01 -0.23152716064E+02  0.43400728370E+02  0.00000000000E+00 0. -1.
         11    1    3    3    0    0  0.22209711512E+02 -0.10329925098E+01  0.20091323053E+02  0.29966641808E+02  0.51100000000E-03 0. -1.
        -11    1    3    3    0    0  0.64869000771E+01  0.50715346755E+00  0.97386742851E+00  0.65791713216E+01  0.51100000000E-03 0.  1.
         12    1    3    3    0    0  0.68417518686E+01 -0.86719696455E+01  0.20875255828E+01  0.11241458501E+02  0.00000000000E+00 0. -1.
</event>
<event>
 7    1  0.2751796E-010  0.4778727E+02  0.7816164E-02  0.1312668E+00
        -11   -1    0    0    0    0  0.00000000000E+00  0.00000000000E+00  0.45593999997E+02  0.45594000000E+02  0.51100000000E-03 0. -1.
         11   -1    0    0    0    0 -0.00000000000E+00 -0.00000000000E+00 -0.45593999997E+02  0.45594000000E+02  0.51100000000E-03 0.  1.
    9900012    2    1    2    0    0  0.10912099953E+02  0.17147639900E+02 -0.38347202679E+02  0.47787269213E+02  0.19999991650E+02 0.  0.
         12    1    1    2    0    0 -0.10912099953E+02 -0.17147639900E+02  0.38347202679E+02  0.43400730787E+02  0.00000000000E+00 0. -1.
         11    1    3    3    0    0 -0.48109603989E+00  0.20843080789E+01  0.38422762448E+00  0.21733441274E+01  0.51100000000E-03 0. -1.
        -11    1    3    3    0    0  0.12497413701E+02  0.16706886223E+02 -0.38259213066E+02  0.43578352208E+02  0.51100000000E-03 0.  1.
        -12    1    3    3    0    0 -0.11042177083E+01 -0.16435544020E+01 -0.47221723735E+00  0.20355728774E+01  0.00000000000E+00 0.  1.
</event>
<event>
 7    1  0.2751796E-010  0.4778727E+02  0.7816164E-02  0.1312668E+00
        -11   -1    0    0    0    0  0.00000000000E+00  0.00000000000E+00  0.45593999997E+02  0.45594000000E+02  0.51100000000E-03 0.  1.
         11   -1    0    0    0    0 -0.00000000000E+00 -0.00000000000E+00 -0.45593999997E+02  0.45594000000E+02  0.51100000000E-03 0. -1.
    9900012    2    1    2    0    0 -0.32373948240E+01  0.18150845710E+02  0.39289812367E+02  0.47787270962E+02  0.19999999624E+02 0.  0.
         12    1    1    2    0    0  0.32373948240E+01 -0.18150845710E+02 -0.39289812367E+02  0.43400729038E+02  0.00000000000E+00 0. -1.
         11    1    3    3    0    0 -0.25149828426E+00 -0.29066398580E+01  0.14973665324E+02  0.15255243694E+02  0.51100000000E-03 0. -1.
        -11    1    3    3    0    0  0.69025398004E+00  0.79003832568E+01  0.96121637827E+01  0.12461388326E+02  0.51100000000E-03 0.  1.
         12    1    3    3    0    0 -0.36761505197E+01  0.13157102311E+02  0.14703983260E+02  0.20070638943E+02  0.00000000000E+00 0. -1.
</event>
<event>
 7    1  0.2751796E-010  0.4778727E+02  0.7816164E-02  0.1312668E+00
        -11   -1    0    0    0    0  0.00000000000E+00  0.00000000000E+00  0.45593999997E+02  0.45594000000E+02  0.51100000000E-03 0.  1.
         11   -1    0    0    0    0 -0.00000000000E+00 -0.00000000000E+00 -0.45593999997E+02  0.45594000000E+02  0.51100000000E-03 0. -1.
    9900012    2    1    2    0    0 -0.38220502477E+01 -0.42430793371E+02 -0.82850989714E+01  0.47787272366E+02  0.20000006027E+02 0.  0.
         12    1    1    2    0    0  0.38220502477E+01  0.42430793371E+02  0.82850989714E+01  0.43400727634E+02  0.00000000000E+00 0. -1.
         11    1    3    3    0    0 -0.64480965200E+01 -0.81810883042E+01 -0.51120194720E+01  0.11603486455E+02  0.51100000000E-03 0. -1.
        -11    1    3    3    0    0  0.63177337324E+01 -0.28092353376E+02 -0.16268179193E+01  0.28839913566E+02  0.51100000000E-03 0.  1.
         12    1    3    3    0    0 -0.36916874601E+01 -0.61573516907E+01 -0.15462615801E+01  0.73438723451E+01  0.00000000000E+00 0. -1.
</event>
<event>
 7    1  0.2751796E-010  0.4778728E+02  0.7816164E-02  0.1312668E+00
        -11   -1    0    0    0    0  0.00000000000E+00  0.00000000000E+00  0.45593999997E+02  0.45594000000E+02  0.51100000000E-03 0.  1.
         11   -1    0    0    0    0 -0.00000000000E+00 -0.00000000000E+00 -0.45593999997E+02  0.45594000000E+02  0.51100000000E-03 0. -1.
    9900012    2    1    2    0    0  0.13023606656E+02 -0.30172653910E+02  0.28348172492E+02  0.47787282748E+02  0.20000053363E+02 0.  0.
         12    1    1    2    0    0 -0.13023606656E+02  0.30172653910E+02 -0.28348172492E+02  0.43400717252E+02  0.00000000000E+00 0. -1.
         11    1    3    3    0    0  0.10489491684E+02 -0.95823174130E+01  0.26253427244E+01  0.14447929522E+02  0.51100000000E-03 0. -1.
        -11    1    3    3    0    0  0.14334549573E+01 -0.13712563419E+02  0.13650000409E+02  0.19401332430E+02  0.51100000000E-03 0.  1.
         12    1    3    3    0    0  0.11006600138E+01 -0.68777730779E+01  0.12072829359E+02  0.13938020796E+02  0.00000000000E+00 0. -1.
</event>
<event>
 7    1  0.2751796E-010  0.4778727E+02  0.7816164E-02  0.1312668E+00
        -11   -1    0    0    0    0  0.00000000000E+00  0.00000000000E+00  0.45593999997E+02  0.45594000000E+02  0.51100000000E-03 0.  1.
         11   -1    0    0    0    0 -0.00000000000E+00 -0.00000000000E+00 -0.45593999997E+02  0.45594000000E+02  0.51100000000E-03 0. -1.
    9900012    2    1    2    0    0  0.23639205016E+02  0.36288592056E+02 -0.28195450007E+01  0.47787265430E+02  0.19999974402E+02 0.  0.
         12    1    1    2    0    0 -0.23639205016E+02 -0.36288592056E+02  0.28195450007E+01  0.43400734570E+02  0.00000000000E+00 0. -1.
         11    1    3    3    0    0  0.13744826776E+01  0.42804588821E+00  0.82848310606E+00  0.16609667159E+01  0.51100000000E-03 0. -1.
        -11    1    3    3    0    0  0.22552745674E+02  0.20255436820E+02 -0.35275075757E+01  0.30518066258E+02  0.51100000000E-03 0.  1.
        -12    1    3    3    0    0 -0.28802333513E+00  0.15605109348E+02 -0.12052053104E+00  0.15608232456E+02  0.00000000000E+00 0.  1.
</event>
<event>
 7    1  0.2751796E-010  0.4778727E+02  0.7816164E-02  0.1312668E+00
        -11   -1    0    0    0    0  0.00000000000E+00  0.00000000000E+00  0.45593999997E+02  0.45594000000E+02  0.51100000000E-03 0.  1.
         11   -1    0    0    0    0 -0.00000000000E+00 -0.00000000000E+00 -0.45593999997E+02  0.45594000000E+02  0.51100000000E-03 0. -1.
    9900012    2    1    2    0    0  0.34139579528E+02 -0.47615130892E+01  0.26371197050E+02  0.47787274993E+02  0.20000018005E+02 0.  0.
         12    1    1    2    0    0 -0.34139579528E+02  0.47615130892E+01 -0.26371197050E+02  0.43400725007E+02  0.00000000000E+00 0. -1.
         11    1    3    3    0    0  0.18616497130E+02  0.36927154594E+01  0.10055119927E+02  0.21478257608E+02  0.51100000000E-03 0. -1.
        -11    1    3    3    0    0  0.77110017096E+01 -0.10033740758E+02  0.95377868456E+01  0.15846289128E+02  0.51100000000E-03 0.  1.
        -12    1    3    3    0    0  0.78120806884E+01  0.15795122095E+01  0.67782902770E+01  0.10462728257E+02  0.00000000000E+00 0.  1.
</event>
<event>
 7    1  0.2751796E-010  0.4778727E+02  0.7816164E-02  0.1312668E+00
        -11   -1    0    0    0    0  0.00000000000E+00  0.00000000000E+00  0.45593999997E+02  0.45594000000E+02  0.51100000000E-03 0. -1.
         11   -1    0    0    0    0 -0.00000000000E+00 -0.00000000000E+00 -0.45593999997E+02  0.45594000000E+02  0.51100000000E-03 0.  1.
    9900012    2    1    2    0    0 -0.17253375543E+02  0.34534849935E+00 -0.39822418157E+02  0.47787271653E+02  0.20000002774E+02 0.  0.
         12    1    1    2    0    0  0.17253375543E+02 -0.34534849935E+00  0.39822418157E+02  0.43400728347E+02  0.00000000000E+00 0. -1.
         11    1    3    3    0    0 -0.17330136775E+01  0.10083469236E+01 -0.58623714198E+00  0.20889648567E+01  0.51100000000E-03 0. -1.
        -11    1    3    3    0    0 -0.13498175320E+02 -0.20328496277E+01 -0.11483273702E+02  0.17838127417E+02  0.51100000000E-03 0.  1.
        -12    1    3    3    0    0 -0.20221865462E+01  0.13698512035E+01 -0.27752907312E+02  0.27860179379E+02  0.00000000000E+00 0.  1.
</event>
<event>
 7    1  0.2751796E-010  0.4778727E+02  0.7816164E-02  0.1312668E+00
        -11   -1    0    0    0    0  0.00000000000E+00  0.00000000000E+00  0.45593999997E+02  0.45594000000E+02  0.51100000000E-03 0. -1.
         11   -1    0    0    0    0 -0.00000000000E+00 -0.00000000000E+00 -0.45593999997E+02  0.45594000000E+02  0.51100000000E-03 0.  1.
    9900012    2    1    2    0    0 -0.26679850688E+02 -0.14131683515E+02 -0.31178587756E+02  0.47787271364E+02  0.20000001456E+02 0.  0.
         12    1    1    2    0    0  0.26679850688E+02  0.14131683515E+02  0.31178587756E+02  0.43400728636E+02  0.00000000000E+00 0. -1.
         11    1    3    3    0    0 -0.14467737866E+01 -0.17958901397E+01 -0.98032737475E+01  0.10070876437E+02  0.51100000000E-03 0.  1.
        -11    1    3    3    0    0 -0.43275524656E+01 -0.39359752394E+01  0.10328613552E+01  0.59402368866E+01  0.51100000000E-03 0. -1.
        -12    1    3    3    0    0 -0.20905524436E+02 -0.83998181354E+01 -0.22408175364E+02  0.31776158040E+02  0.00000000000E+00 0.  1.
</event>
<event>
 7    1  0.2751796E-010  0.4778727E+02  0.7816164E-02  0.1312668E+00
        -11   -1    0    0    0    0  0.00000000000E+00  0.00000000000E+00  0.45593999997E+02  0.45594000000E+02  0.51100000000E-03 0.  1.
         11   -1    0    0    0    0 -0.00000000000E+00 -0.00000000000E+00 -0.45593999997E+02  0.45594000000E+02  0.51100000000E-03 0. -1.
    9900012    2    1    2    0    0 -0.14764664907E+02 -0.14049809895E+02  0.38317499943E+02  0.47787270861E+02  0.19999999164E+02 0.  0.
         12    1    1    2    0    0  0.14764664907E+02  0.14049809895E+02 -0.38317499943E+02  0.43400729139E+02  0.00000000000E+00 0. -1.
         11    1    3    3    0    0 -0.56701482173E+01 -0.24302920469E+01  0.25550412577E+00  0.61743163880E+01  0.51100000000E-03 0. -1.
        -11    1    3    3    0    0 -0.30059276013E+01 -0.10050013323E+02  0.25209041720E+02  0.27304471305E+02  0.51100000000E-03 0.  1.
         12    1    3    3    0    0 -0.60885890880E+01 -0.15695045245E+01  0.12852954097E+02  0.14308483168E+02  0.00000000000E+00 0. -1.
</event>
<event>
 7    1  0.2751796E-010  0.4778727E+02  0.7816164E-02  0.1312668E+00
        -11   -1    0    0    0    0  0.00000000000E+00  0.00000000000E+00  0.45593999997E+02  0.45594000000E+02  0.51100000000E-03 0.  1.
         11   -1    0    0    0    0 -0.00000000000E+00 -0.00000000000E+00 -0.45593999997E+02  0.45594000000E+02  0.51100000000E-03 0. -1.
    9900012    2    1    2    0    0 -0.38988368116E+01  0.42336467259E+02 -0.87204343405E+01  0.47787270012E+02  0.19999995291E+02 0.  0.
         12    1    1    2    0    0  0.38988368116E+01 -0.42336467259E+02  0.87204343405E+01  0.43400729988E+02  0.00000000000E+00 0. -1.
         11    1    3    3    0    0  0.27972438353E+01  0.15208490434E+02 -0.49288410332E+01  0.16230102543E+02  0.51100000000E-03 0. -1.
        -11    1    3    3    0    0 -0.78226058137E+01  0.74228825079E+01 -0.47786185451E+01  0.11795233864E+02  0.51100000000E-03 0.  1.
        -12    1    3    3    0    0  0.11265251668E+01  0.19705094317E+02  0.98702523787E+00  0.19761933605E+02  0.00000000000E+00 0.  1.
</event>
<event>
 7    1  0.2751796E-010  0.4778727E+02  0.7816164E-02  0.1312668E+00
        -11   -1    0    0    0    0  0.00000000000E+00  0.00000000000E+00  0.45593999997E+02  0.45594000000E+02  0.51100000000E-03 0.  1.
         11   -1    0    0    0    0 -0.00000000000E+00 -0.00000000000E+00 -0.45593999997E+02  0.45594000000E+02  0.51100000000E-03 0. -1.
    9900012    2    1    2    0    0  0.36257014723E+02  0.22964592678E+02  0.64559991605E+01  0.47787267764E+02  0.19999985042E+02 0.  0.
         12    1    1    2    0    0 -0.36257014723E+02 -0.22964592678E+02 -0.64559991605E+01  0.43400732236E+02  0.00000000000E+00 0. -1.
         11    1    3    3    0    0  0.14688871916E+02  0.17458310278E+02  0.27976428752E+01  0.22986569162E+02  0.51100000000E-03 0. -1.
        -11    1    3    3    0    0  0.99025232093E+01  0.76632436652E+01  0.53376788897E+00  0.12532764172E+02  0.51100000000E-03 0.  1.
         12    1    3    3    0    0  0.11665619598E+02 -0.21569612658E+01  0.31245883963E+01  0.12267934429E+02  0.00000000000E+00 0. -1.
</event>
<event>
 7    1  0.2751796E-010  0.4778727E+02  0.7816164E-02  0.1312668E+00
        -11   -1    0    0    0    0  0.00000000000E+00  0.00000000000E+00  0.45593999997E+02  0.45594000000E+02  0.51100000000E-03 0.  1.
         11   -1    0    0    0    0 -0.00000000000E+00 -0.00000000000E+00 -0.45593999997E+02  0.45594000000E+02  0.51100000000E-03 0. -1.
    9900012    2    1    2    0    0  0.12132210381E+02 -0.35909707390E+00  0.41668983489E+02  0.47787266545E+02  0.19999979487E+02 0.  0.
         12    1    1    2    0    0 -0.12132210381E+02  0.35909707390E+00 -0.41668983489E+02  0.43400733455E+02  0.00000000000E+00 0. -1.
         11    1    3    3    0    0  0.10661082037E+02  0.84692160940E+01  0.28570981325E+02  0.31649443369E+02  0.51100000000E-03 0. -1.
        -11    1    3    3    0    0  0.19342406531E+01 -0.39674669771E+01  0.75638175030E+01  0.87574777532E+01  0.51100000000E-03 0.  1.
         12    1    3    3    0    0 -0.46311230967E+00 -0.48608461908E+01  0.55341846611E+01  0.73803454231E+01  0.00000000000E+00 0. -1.
</event>
<event>
 7    1  0.2751796E-010  0.4778721E+02  0.7816164E-02  0.1312668E+00
        -11   -1    0    0    0    0  0.00000000000E+00  0.00000000000E+00  0.45593999997E+02  0.45594000000E+02  0.51100000000E-03 0.  1.
         11   -1    0    0    0    0 -0.00000000000E+00 -0.00000000000E+00 -0.45593999997E+02  0.45594000000E+02  0.51100000000E-03 0. -1.
    9900012    2    1    2    0    0 -0.28235208676E+02 -0.88192698421E+01  0.31758810194E+02  0.47787210210E+02  0.19999722627E+02 0.  0.
         12    1    1    2    0    0  0.28235208676E+02  0.88192698421E+01 -0.31758810194E+02  0.43400789790E+02  0.00000000000E+00 0. -1.
         11    1    3    3    0    0 -0.12042050649E+02 -0.87542055054E+01  0.46574541805E+01  0.15599326189E+02  0.51100000000E-03 0. -1.
        -11    1    3    3    0    0 -0.74636248433E+01 -0.45935728823E+00  0.18375595058E+02  0.19838830583E+02  0.51100000000E-03 0.  1.
         12    1    3    3    0    0 -0.87295331838E+01  0.39429295159E+00  0.87257609555E+01  0.12349053437E+02  0.00000000000E+00 0. -1.
</event>
<event>
 7    1  0.2751796E-010  0.4778726E+02  0.7816164E-02  0.1312668E+00
        -11   -1    0    0    0    0  0.00000000000E+00  0.00000000000E+00  0.45593999997E+02  0.45594000000E+02  0.51100000000E-03 0. -1.
         11   -1    0    0    0    0 -0.00000000000E+00 -0.00000000000E+00 -0.45593999997E+02  0.45594000000E+02  0.51100000000E-03 0.  1.
    9900012    2    1    2    0    0  0.33322435905E+02 -0.25458176197E+00 -0.27806013421E+02  0.47787263498E+02  0.19999965595E+02 0.  0.
         12    1    1    2    0    0 -0.33322435905E+02  0.25458176197E+00  0.27806013421E+02  0.43400736502E+02  0.00000000000E+00 0. -1.
         11    1    3    3    0    0  0.86236730650E+00 -0.94967518362E+00  0.20015280855E+01  0.23773252331E+01  0.51100000000E-03 0. -1.
        -11    1    3    3    0    0  0.56883550818E+01  0.44423616298E+01 -0.66667388515E+01  0.98253431269E+01  0.51100000000E-03 0.  1.
         12    1    3    3    0    0  0.26771713516E+02 -0.37472682081E+01 -0.23140802655E+02  0.35584595138E+02  0.00000000000E+00 0. -1.
</event>
<event>
 7    1  0.2751796E-010  0.4778731E+02  0.7816164E-02  0.1312668E+00
        -11   -1    0    0    0    0  0.00000000000E+00  0.00000000000E+00  0.45593999997E+02  0.45594000000E+02  0.51100000000E-03 0.  1.
         11   -1    0    0    0    0 -0.00000000000E+00 -0.00000000000E+00 -0.45593999997E+02  0.45594000000E+02  0.51100000000E-03 0. -1.
    9900012    2    1    2    0    0  0.81159310950E+01  0.61768039594E+00  0.42630626815E+02  0.47787306351E+02  0.20000160974E+02 0.  0.
         12    1    1    2    0    0 -0.81159310950E+01 -0.61768039594E+00 -0.42630626815E+02  0.43400693649E+02  0.00000000000E+00 0. -1.
         11    1    3    3    0    0  0.12614865737E+01 -0.45440768791E+01  0.16940213335E+01  0.50109571539E+01  0.51100000000E-03 0. -1.
        -11    1    3    3    0    0  0.87081474854E+01  0.32072875624E+01  0.35713970412E+02  0.36899948632E+02  0.51100000000E-03 0.  1.
         12    1    3    3    0    0 -0.18537029641E+01  0.19544697126E+01  0.52226350692E+01  0.58764005652E+01  0.00000000000E+00 0. -1.
</event>
<event>
 7    1  0.2751796E-010  0.4778727E+02  0.7816164E-02  0.1312668E+00
        -11   -1    0    0    0    0  0.00000000000E+00  0.00000000000E+00  0.45593999997E+02  0.45594000000E+02  0.51100000000E-03 0. -1.
         11   -1    0    0    0    0 -0.00000000000E+00 -0.00000000000E+00 -0.45593999997E+02  0.45594000000E+02  0.51100000000E-03 0.  1.
    9900012    2    1    2    0    0  0.38218274937E+02  0.19159043221E+02  0.74778073164E+01  0.47787273294E+02  0.20000010258E+02 0.  0.
         12    1    1    2    0    0 -0.38218274937E+02 -0.19159043221E+02 -0.74778073164E+01  0.43400726706E+02  0.00000000000E+00 0. -1.
         11    1    3    3    0    0 -0.64503290035E+00 -0.20182771527E+01  0.74116276516E+00  0.22447344193E+01  0.51100000000E-03 0. -1.
        -11    1    3    3    0    0  0.27033698387E+02  0.10335054180E+02  0.32734194754E+01  0.29126439341E+02  0.51100000000E-03 0.  1.
         12    1    3    3    0    0  0.11829609451E+02  0.10842266194E+02  0.34632250759E+01  0.16416099534E+02  0.00000000000E+00 0. -1.
</event>
<event>
 7    1  0.2751796E-010  0.4778727E+02  0.7816164E-02  0.1312668E+00
        -11   -1    0    0    0    0  0.00000000000E+00  0.00000000000E+00  0.45593999997E+02  0.45594000000E+02  0.51100000000E-03 0.  1.
         11   -1    0    0    0    0 -0.00000000000E+00 -0.00000000000E+00 -0.45593999997E+02  0.45594000000E+02  0.51100000000E-03 0. -1.
    9900012    2    1    2    0    0  0.39868331850E+02  0.16816789766E+02  0.33667445055E+01  0.47787271077E+02  0.20000000148E+02 0.  0.
         12    1    1    2    0    0 -0.39868331850E+02 -0.16816789766E+02 -0.33667445055E+01  0.43400728923E+02  0.00000000000E+00 0. -1.
         11    1    3    3    0    0  0.14187456088E+02  0.31477741558E+01  0.52237579529E+01  0.15442798962E+02  0.51100000000E-03 0. -1.
        -11    1    3    3    0    0  0.17829388034E+02  0.31758137901E+01 -0.51569208447E+01  0.18829941683E+02  0.51100000000E-03 0.  1.
        -12    1    3    3    0    0  0.78514877276E+01  0.10493201820E+02  0.32999073973E+01  0.13514530432E+02  0.00000000000E+00 0.  1.
</event>
<event>
 7    1  0.2751796E-010  0.4778727E+02  0.7816164E-02  0.1312668E+00
        -11   -1    0    0    0    0  0.00000000000E+00  0.00000000000E+00  0.45593999997E+02  0.45594000000E+02  0.51100000000E-03 0. -1.
         11   -1    0    0    0    0 -0.00000000000E+00 -0.00000000000E+00 -0.45593999997E+02  0.45594000000E+02  0.51100000000E-03 0.  1.
    9900012    2    1    2    0    0  0.38679920224E+02 -0.14961890642E+02  0.12791739149E+02  0.47787274308E+02  0.20000014882E+02 0.  0.
         12    1    1    2    0    0 -0.38679920224E+02  0.14961890642E+02 -0.12791739149E+02  0.43400725692E+02  0.00000000000E+00 0. -1.
         11    1    3    3    0    0  0.43902578702E+00 -0.91022449797E-01 -0.12901463385E+01  0.13658354820E+01  0.51100000000E-03 0. -1.
        -11    1    3    3    0    0  0.35285425786E+02 -0.76796302633E+01  0.13746241216E+02  0.38639321186E+02  0.51100000000E-03 0.  1.
        -12    1    3    3    0    0  0.29554686508E+01 -0.71912379286E+01  0.33564427143E+00  0.77821176404E+01  0.00000000000E+00 0.  1.
</event>
<event>
 7    1  0.2751796E-010  0.4778727E+02  0.7816164E-02  0.1312668E+00
        -11   -1    0    0    0    0  0.00000000000E+00  0.00000000000E+00  0.45593999997E+02  0.45594000000E+02  0.51100000000E-03 0.  1.
         11   -1    0    0    0    0 -0.00000000000E+00 -0.00000000000E+00 -0.45593999997E+02  0.45594000000E+02  0.51100000000E-03 0. -1.
    9900012    2    1    2    0    0  0.40359799241E+02 -0.71637659383E+01  0.14261505628E+02  0.47787268670E+02  0.19999989175E+02 0.  0.
         12    1    1    2    0    0 -0.40359799241E+02  0.71637659383E+01 -0.14261505628E+02  0.43400731330E+02  0.00000000000E+00 0. -1.
         11    1    3    3    0    0  0.33551629593E+02 -0.46960653407E+01  0.11250239035E+02  0.35697797644E+02  0.51100000000E-03 0.  1.
        -11    1    3    3    0    0  0.90791603940E+01 -0.13626925456E+01  0.24538909299E+01  0.95031397648E+01  0.51100000000E-03 0. -1.
         12    1    3    3    0    0 -0.22709907460E+01 -0.11050080520E+01  0.55737566324E+00  0.25863312614E+01  0.00000000000E+00 0. -1.
</event>
<event>
 7    1  0.2751796E-010  0.4778724E+02  0.7816164E-02  0.1312668E+00
        -11   -1    0    0    0    0  0.00000000000E+00  0.00000000000E+00  0.45593999997E+02  0.45594000000E+02  0.51100000000E-03 0.  1.
         11   -1    0    0    0    0 -0.00000000000E+00 -0.00000000000E+00 -0.45593999997E+02  0.45594000000E+02  0.51100000000E-03 0. -1.
    9900012    2    1    2    0    0 -0.28217038876E+01  0.10425031678E+01  0.43296383553E+02  0.47787243618E+02  0.19999874953E+02 0.  0.
         12    1    1    2    0    0  0.28217038876E+01 -0.10425031678E+01 -0.43296383553E+02  0.43400756382E+02  0.00000000000E+00 0. -1.
         11    1    3    3    0    0  0.25117470539E+00 -0.23307165621E+01  0.62098356380E+01  0.66375739045E+01  0.51100000000E-03 0. -1.
        -11    1    3    3    0    0  0.59665528488E+01 -0.23248604033E-01  0.54813485501E+01  0.81021895549E+01  0.51100000000E-03 0.  1.
        -12    1    3    3    0    0 -0.90394314418E+01  0.33964683340E+01  0.31605199365E+02  0.33047480159E+02  0.00000000000E+00 0.  1.
</event>
<event>
 7    1  0.2751796E-010  0.4778727E+02  0.7816164E-02  0.1312668E+00
        -11   -1    0    0    0    0  0.00000000000E+00  0.00000000000E+00  0.45593999997E+02  0.45594000000E+02  0.51100000000E-03 0.  1.
         11   -1    0    0    0    0 -0.00000000000E+00 -0.00000000000E+00 -0.45593999997E+02  0.45594000000E+02  0.51100000000E-03 0. -1.
    9900012    2    1    2    0    0 -0.87422657495E+01  0.42365039228E+02 -0.35212999411E+01  0.47787270599E+02  0.19999997970E+02 0.  0.
         12    1    1    2    0    0  0.87422657495E+01 -0.42365039228E+02  0.35212999411E+01  0.43400729401E+02  0.00000000000E+00 0. -1.
         11    1    3    3    0    0  0.22546455735E+01  0.42031369102E+01 -0.60361336950E+01  0.76931590906E+01  0.51100000000E-03 0. -1.
        -11    1    3    3    0    0 -0.56816759922E+01  0.24817607342E+02 -0.27807485441E+00  0.25461194044E+02  0.51100000000E-03 0.  1.
         12    1    3    3    0    0 -0.53152353308E+01  0.13344294976E+02  0.27929086083E+01  0.14632917464E+02  0.00000000000E+00 0. -1.
</event>
<event>
 7    1  0.2751796E-010  0.4778726E+02  0.7816164E-02  0.1312668E+00
        -11   -1    0    0    0    0  0.00000000000E+00  0.00000000000E+00  0.45593999997E+02  0.45594000000E+02  0.51100000000E-03 0.  1.
         11   -1    0    0    0    0 -0.00000000000E+00 -0.00000000000E+00 -0.45593999997E+02  0.45594000000E+02  0.51100000000E-03 0. -1.
    9900012    2    1    2    0    0  0.25165206036E+02  0.31901375799E+02 -0.15252493198E+02  0.47787263584E+02  0.19999965987E+02 0.  0.
         12    1    1    2    0    0 -0.25165206036E+02 -0.31901375799E+02  0.15252493198E+02  0.43400736416E+02  0.00000000000E+00 0. -1.
         11    1    3    3    0    0  0.35288191776E+01  0.48072389635E+00 -0.44929511292E+01  0.57332600118E+01  0.51100000000E-03 0. -1.
        -11    1    3    3    0    0  0.71214425428E+01  0.13395350640E+02  0.25097040702E+01  0.15376897523E+02  0.51100000000E-03 0.  1.
        -12    1    3    3    0    0  0.14514944315E+02  0.18025301263E+02 -0.13269246139E+02  0.26677106049E+02  0.00000000000E+00 0.  1.
</event>
<event>
 7    1  0.2751796E-010  0.4778727E+02  0.7816164E-02  0.1312668E+00
        -11   -1    0    0    0    0  0.00000000000E+00  0.00000000000E+00  0.45593999997E+02  0.45594000000E+02  0.51100000000E-03 0.  1.
         11   -1    0    0    0    0 -0.00000000000E+00 -0.00000000000E+00 -0.45593999997E+02  0.45594000000E+02  0.51100000000E-03 0. -1.
    9900012    2    1    2    0    0  0.35542038189E+02  0.12902068158E+02  0.21305472012E+02  0.47787274441E+02  0.20000015487E+02 0.  0.
         12    1    1    2    0    0 -0.35542038189E+02 -0.12902068158E+02 -0.21305472012E+02  0.43400725559E+02  0.00000000000E+00 0. -1.
         11    1    3    3    0    0  0.54062236571E+01  0.27583437683E+01  0.60502655296E+00  0.60993255337E+01  0.51100000000E-03 0. -1.
        -11    1    3    3    0    0  0.31755661314E+02  0.11724393461E+02  0.18730326487E+02  0.38687317794E+02  0.51100000000E-03 0.  1.
        -12    1    3    3    0    0 -0.16198467825E+01 -0.15806690717E+01  0.19701189728E+01  0.30006311136E+01  0.00000000000E+00 0.  1.
</event>
<event>
 7    1  0.2751796E-010  0.4778727E+02  0.7816164E-02  0.1312668E+00
        -11   -1    0    0    0    0  0.00000000000E+00  0.00000000000E+00  0.45593999997E+02  0.45594000000E+02  0.51100000000E-03 0. -1.
         11   -1    0    0    0    0 -0.00000000000E+00 -0.00000000000E+00 -0.45593999997E+02  0.45594000000E+02  0.51100000000E-03 0.  1.
    9900012    2    1    2    0    0 -0.19093778147E+02 -0.25172949547E+02 -0.29755231618E+02  0.47787267731E+02  0.19999984892E+02 0.  0.
         12    1    1    2    0    0  0.19093778147E+02  0.25172949547E+02  0.29755231618E+02  0.43400732269E+02  0.00000000000E+00 0. -1.
         11    1    3    3    0    0 -0.77017301563E+01 -0.95537845285E+01 -0.13981348846E+02  0.18602944983E+02  0.51100000000E-03 0.  1.
        -11    1    3    3    0    0 -0.53226247561E+01  0.20693250257E+01 -0.50716054420E+01  0.76376450806E+01  0.51100000000E-03 0. -1.
        -12    1    3    3    0    0 -0.60694232346E+01 -0.17688490044E+02 -0.10702277330E+02  0.21546677667E+02  0.00000000000E+00 0.  1.
</event>
<event>
 7    1  0.2751796E-010  0.4778727E+02  0.7816164E-02  0.1312668E+00
        -11   -1    0    0    0    0  0.00000000000E+00  0.00000000000E+00  0.45593999997E+02  0.45594000000E+02  0.51100000000E-03 0.  1.
         11   -1    0    0    0    0 -0.00000000000E+00 -0.00000000000E+00 -0.45593999997E+02  0.45594000000E+02  0.51100000000E-03 0. -1.
    9900012    2    1    2    0    0  0.24937372446E+01  0.20827986834E+02  0.37994726667E+02  0.47787274022E+02  0.20000013574E+02 0.  0.
         12    1    1    2    0    0 -0.24937372446E+01 -0.20827986834E+02 -0.37994726667E+02  0.43400725978E+02  0.00000000000E+00 0. -1.
         11    1    3    3    0    0 -0.68176325375E+00 -0.32134802807E+00  0.17644864079E+01  0.19187178620E+01  0.51100000000E-03 0. -1.
        -11    1    3    3    0    0 -0.54830691127E+01  0.17992828642E+02  0.26124675187E+02  0.32191685002E+02  0.51100000000E-03 0.  1.
        -12    1    3    3    0    0  0.86585696110E+01  0.31565062197E+01  0.10105565072E+02  0.13676871157E+02  0.00000000000E+00 0.  1.
</event>
<event>
 7    1  0.2751796E-010  0.4778727E+02  0.7816164E-02  0.1312668E+00
        -11   -1    0    0    0    0  0.00000000000E+00  0.00000000000E+00  0.45593999997E+02  0.45594000000E+02  0.51100000000E-03 0.  1.
         11   -1    0    0    0    0 -0.00000000000E+00 -0.00000000000E+00 -0.45593999997E+02  0.45594000000E+02  0.51100000000E-03 0. -1.
    9900012    2    1    2    0    0  0.29091919347E+02 -0.12501798459E+02  0.29681450945E+02  0.47787271133E+02  0.20000000405E+02 0.  0.
         12    1    1    2    0    0 -0.29091919347E+02  0.12501798459E+02 -0.29681450945E+02  0.43400728867E+02  0.00000000000E+00 0. -1.
         11    1    3    3    0    0  0.94224638693E+01  0.13548616054E+01  0.12491270669E+02  0.15705104856E+02  0.51100000000E-03 0. -1.
        -11    1    3    3    0    0  0.76851036688E+01 -0.52319943022E+01 -0.16174267241E+00  0.92984269493E+01  0.51100000000E-03 0.  1.
        -12    1    3    3    0    0  0.11984351809E+02 -0.86246657620E+01  0.17351922948E+02  0.22783739328E+02  0.00000000000E+00 0.  1.
</event>
<event>
 7    1  0.2751796E-010  0.4778727E+02  0.7816164E-02  0.1312668E+00
        -11   -1    0    0    0    0  0.00000000000E+00  0.00000000000E+00  0.45593999997E+02  0.45594000000E+02  0.51100000000E-03 0. -1.
         11   -1    0    0    0    0 -0.00000000000E+00 -0.00000000000E+00 -0.45593999997E+02  0.45594000000E+02  0.51100000000E-03 0.  1.
    9900012    2    1    2    0    0  0.26433913589E+02 -0.33805697352E+02  0.64843168795E+01  0.47787270439E+02  0.19999997238E+02 0.  0.
         12    1    1    2    0    0 -0.26433913589E+02  0.33805697352E+02 -0.64843168795E+01  0.43400729561E+02  0.00000000000E+00 0. -1.
         11    1    3    3    0    0  0.49513592467E+00 -0.22632313347E+01  0.49588609633E+01  0.54733607567E+01  0.51100000000E-03 0. -1.
        -11    1    3    3    0    0  0.25953266906E+02 -0.32351408161E+02  0.14368790701E+01  0.41500003552E+02  0.51100000000E-03 0.  1.
        -12    1    3    3    0    0 -0.14489241972E-01  0.80894214407E+00  0.88576846089E-01  0.81390612988E+00  0.00000000000E+00 0.  1.
</event>
<event>
 7    1  0.2751796E-010  0.4778722E+02  0.7816164E-02  0.1312668E+00
        -11   -1    0    0    0    0  0.00000000000E+00  0.00000000000E+00  0.45593999997E+02  0.45594000000E+02  0.51100000000E-03 0.  1.
         11   -1    0    0    0    0 -0.00000000000E+00 -0.00000000000E+00 -0.45593999997E+02  0.45594000000E+02  0.51100000000E-03 0. -1.
    9900012    2    1    2    0    0  0.35510474709E+02  0.11862638217E+02  0.21952490974E+02  0.47787218215E+02  0.19999759130E+02 0.  0.
         12    1    1    2    0    0 -0.35510474709E+02 -0.11862638217E+02 -0.21952490974E+02  0.43400781785E+02  0.00000000000E+00 0. -1.
         11    1    3    3    0    0 -0.16373023177E+01 -0.14045737780E+00 -0.82001085722E+00  0.18365470921E+01  0.51100000000E-03 0. -1.
        -11    1    3    3    0    0  0.21584240592E+02  0.29271372386E+01  0.14173457478E+02  0.25987198223E+02  0.51100000000E-03 0.  1.
         12    1    3    3    0    0  0.15563536435E+02  0.90759583560E+01  0.85990443529E+01  0.19963472900E+02  0.00000000000E+00 0. -1.
</event>
<event>
 7    1  0.2751796E-010  0.4778727E+02  0.7816164E-02  0.1312668E+00
        -11   -1    0    0    0    0  0.00000000000E+00  0.00000000000E+00  0.45593999997E+02  0.45594000000E+02  0.51100000000E-03 0.  1.
         11   -1    0    0    0    0 -0.00000000000E+00 -0.00000000000E+00 -0.45593999997E+02  0.45594000000E+02  0.51100000000E-03 0. -1.
    9900012    2    1    2    0    0  0.12270069598E+02 -0.11015329144E+02  0.40146368462E+02  0.47787274376E+02  0.20000015188E+02 0.  0.
         12    1    1    2    0    0 -0.12270069598E+02  0.11015329144E+02 -0.40146368462E+02  0.43400725624E+02  0.00000000000E+00 0. -1.
         11    1    3    3    0    0  0.13065682455E+02 -0.10746212951E+02  0.19691082274E+02  0.25960197846E+02  0.51100000000E-03 0. -1.
        -11    1    3    3    0    0  0.18418445724E+01  0.21211912404E+00  0.85043996233E+00  0.20397633054E+01  0.51100000000E-03 0.  1.
         12    1    3    3    0    0 -0.26374574297E+01 -0.48123531652E+00  0.19604846225E+02  0.19787313224E+02  0.00000000000E+00 0. -1.
</event>
<event>
 7    1  0.2751796E-010  0.4778727E+02  0.7816164E-02  0.1312668E+00
        -11   -1    0    0    0    0  0.00000000000E+00  0.00000000000E+00  0.45593999997E+02  0.45594000000E+02  0.51100000000E-03 0.  1.
         11   -1    0    0    0    0 -0.00000000000E+00 -0.00000000000E+00 -0.45593999997E+02  0.45594000000E+02  0.51100000000E-03 0. -1.
    9900012    2    1    2    0    0  0.12822019876E+02 -0.35448172254E+02  0.21509212145E+02  0.47787270548E+02  0.19999997737E+02 0.  0.
         12    1    1    2    0    0 -0.12822019876E+02  0.35448172254E+02 -0.21509212145E+02  0.43400729452E+02  0.00000000000E+00 0. -1.
         11    1    3    3    0    0  0.14454512749E+00 -0.16526532547E+02  0.17349091643E+02  0.23961180113E+02  0.51100000000E-03 0.  1.
        -11    1    3    3    0    0  0.10036455305E+02 -0.11992817839E+02  0.72816783606E+00  0.15655297616E+02  0.51100000000E-03 0. -1.
        -12    1    3    3    0    0  0.26410194437E+01 -0.69288218680E+01  0.34319526658E+01  0.81707928184E+01  0.00000000000E+00 0.  1.
</event>
<event>
 7    1  0.2751796E-010  0.4778726E+02  0.7816164E-02  0.1312668E+00
        -11   -1    0    0    0    0  0.00000000000E+00  0.00000000000E+00  0.45593999997E+02  0.45594000000E+02  0.51100000000E-03 0. -1.
         11   -1    0    0    0    0 -0.00000000000E+00 -0.00000000000E+00 -0.45593999997E+02  0.45594000000E+02  0.51100000000E-03 0.  1.
    9900012    2    1    2    0    0 -0.31105543649E+02  0.23670918688E+02 -0.18861526172E+02  0.47787257993E+02  0.19999940493E+02 0.  0.
         12    1    1    2    0    0  0.31105543649E+02 -0.23670918688E+02  0.18861526172E+02  0.43400742007E+02  0.00000000000E+00 0. -1.
         11    1    3    3    0    0 -0.82933636060E+01  0.23235145110E+01 -0.84376993998E+01  0.12057087999E+02  0.51100000000E-03 0. -1.
        -11    1    3    3    0    0 -0.16444133917E+02  0.21444235263E+02 -0.11320111353E+02  0.29298629450E+02  0.51100000000E-03 0.  1.
         12    1    3    3    0    0 -0.63680461263E+01 -0.96831086860E-01  0.89628458132E+00  0.64315405446E+01  0.00000000000E+00 0. -1.
</event>
<event>
 7    1  0.2751796E-010  0.4778727E+02  0.7816164E-02  0.1312668E+00
        -11   -1    0    0    0    0  0.00000000000E+00  0.00000000000E+00  0.45593999997E+02  0.45594000000E+02  0.51100000000E-03 0.  1.
         11   -1    0    0    0    0 -0.00000000000E+00 -0.00000000000E+00 -0.45593999997E+02  0.45594000000E+02  0.51100000000E-03 0. -1.
    9900012    2    1    2    0    0  0.51282300934E+01  0.20172909330E+02  0.38083832714E+02  0.47787270411E+02  0.19999997110E+02 0.  0.
         12    1    1    2    0    0 -0.51282300934E+01 -0.20172909330E+02 -0.38083832714E+02  0.43400729589E+02  0.00000000000E+00 0. -1.
         11    1    3    3    0    0  0.33717930730E+01  0.65776589367E+01  0.25074118108E+02  0.26140887222E+02  0.51100000000E-03 0. -1.
        -11    1    3    3    0    0  0.24129113704E+00  0.78902682985E+01  0.61498072160E+00  0.79178757747E+01  0.51100000000E-03 0.  1.
        -12    1    3    3    0    0  0.15151458834E+01  0.57049820949E+01  0.12394733884E+02  0.13728507414E+02  0.00000000000E+00 0.  1.
</event>
<event>
 7    1  0.2751796E-010  0.4778728E+02  0.7816164E-02  0.1312668E+00
        -11   -1    0    0    0    0  0.00000000000E+00  0.00000000000E+00  0.45593999997E+02  0.45594000000E+02  0.51100000000E-03 0.  1.
         11   -1    0    0    0    0 -0.00000000000E+00 -0.00000000000E+00 -0.45593999997E+02  0.45594000000E+02  0.51100000000E-03 0. -1.
    9900012    2    1    2    0    0 -0.72987989547E+01  0.42782593198E+02  0.81986204467E-02  0.47787276341E+02  0.20000024147E+02 0.  0.
         12    1    1    2    0    0  0.72987989547E+01 -0.42782593198E+02 -0.81986204467E-02  0.43400723659E+02  0.00000000000E+00 0. -1.
         11    1    3    3    0    0 -0.10016837042E+01  0.13596755037E+02 -0.77385651733E+01  0.15676750587E+02  0.51100000000E-03 0. -1.
        -11    1    3    3    0    0 -0.49100823820E+01  0.29345354316E+02  0.72075602866E+01  0.30613847430E+02  0.51100000000E-03 0.  1.
         12    1    3    3    0    0 -0.13870328685E+01 -0.15951615422E+00  0.53920350718E+00  0.14966783235E+01  0.00000000000E+00 0. -1.
</event>
<event>
 7    1  0.2751796E-010  0.4778727E+02  0.7816164E-02  0.1312668E+00
        -11   -1    0    0    0    0  0.00000000000E+00  0.00000000000E+00  0.45593999997E+02  0.45594000000E+02  0.51100000000E-03 0.  1.
         11   -1    0    0    0    0 -0.00000000000E+00 -0.00000000000E+00 -0.45593999997E+02  0.45594000000E+02  0.51100000000E-03 0. -1.
    9900012    2    1    2    0    0 -0.40748972282E+02  0.13921829348E+02 -0.54154412604E+01  0.47787273296E+02  0.20000010266E+02 0.  0.
         12    1    1    2    0    0  0.40748972282E+02 -0.13921829348E+02  0.54154412604E+01  0.43400726704E+02  0.00000000000E+00 0. -1.
         11    1    3    3    0    0 -0.38381163975E+01 -0.38678807395E+00  0.52783774680E+01  0.65377374871E+01  0.51100000000E-03 0. -1.
        -11    1    3    3    0    0 -0.22977256161E+02  0.69381564459E+01 -0.52176519080E+01  0.24562495949E+02  0.51100000000E-03 0.  1.
         12    1    3    3    0    0 -0.13933599723E+02  0.73704609757E+01 -0.54761668203E+01  0.16687039860E+02  0.00000000000E+00 0. -1.
</event>
<event>
 7    1  0.2751796E-010  0.4778728E+02  0.7816164E-02  0.1312668E+00
        -11   -1    0    0    0    0  0.00000000000E+00  0.00000000000E+00  0.45593999997E+02  0.45594000000E+02  0.51100000000E-03 0.  1.
         11   -1    0    0    0    0 -0.00000000000E+00 -0.00000000000E+00 -0.45593999997E+02  0.45594000000E+02  0.51100000000E-03 0. -1.
    9900012    2    1    2    0    0 -0.31549848111E+02  0.26119647328E+02  0.14352466046E+02  0.47787283716E+02  0.20000057775E+02 0.  0.
         12    1    1    2    0    0  0.31549848111E+02 -0.26119647328E+02 -0.14352466046E+02  0.43400716284E+02  0.00000000000E+00 0. -1.
         11    1    3    3    0    0 -0.57617783819E+01  0.61811860305E+01 -0.39733446144E+01  0.93376987824E+01  0.51100000000E-03 0. -1.
        -11    1    3    3    0    0 -0.19425432125E+02  0.18056776421E+02  0.11429067628E+02  0.28879372830E+02  0.51100000000E-03 0.  1.
         12    1    3    3    0    0 -0.63626376038E+01  0.18816848771E+01  0.68967430326E+01  0.95702121038E+01  0.00000000000E+00 0. -1.
</event>
<event>
 7    1  0.2751796E-010  0.4778728E+02  0.7816164E-02  0.1312668E+00
        -11   -1    0    0    0    0  0.00000000000E+00  0.00000000000E+00  0.45593999997E+02  0.45594000000E+02  0.51100000000E-03 0.  1.
         11   -1    0    0    0    0 -0.00000000000E+00 -0.00000000000E+00 -0.45593999997E+02  0.45594000000E+02  0.51100000000E-03 0. -1.
    9900012    2    1    2    0    0 -0.31062214650E+02 -0.58645746882E+00  0.30305403083E+02  0.47787279185E+02  0.20000037114E+02 0.  0.
         12    1    1    2    0    0  0.31062214650E+02  0.58645746882E+00 -0.30305403083E+02  0.43400720815E+02  0.00000000000E+00 0. -1.
         11    1    3    3    0    0 -0.49848860004E+01  0.25576965250E+01 -0.14955325633E+01  0.57989238536E+01  0.51100000000E-03 0. -1.
        -11    1    3    3    0    0 -0.65707934440E+01 -0.69852754261E+00  0.33568309465E+01  0.74115842757E+01  0.51100000000E-03 0.  1.
         12    1    3    3    0    0 -0.19506535205E+02 -0.24456264512E+01  0.28444104699E+02  0.34576771055E+02  0.00000000000E+00 0. -1.
</event>
<event>
 7    1  0.2751796E-010  0.4778726E+02  0.7816164E-02  0.1312668E+00
        -11   -1    0    0    0    0  0.00000000000E+00  0.00000000000E+00  0.45593999997E+02  0.45594000000E+02  0.51100000000E-03 0.  1.
         11   -1    0    0    0    0 -0.00000000000E+00 -0.00000000000E+00 -0.45593999997E+02  0.45594000000E+02  0.51100000000E-03 0. -1.
    9900012    2    1    2    0    0  0.28589976547E+02 -0.32565950568E+02  0.23866745345E+01  0.47787261404E+02  0.19999956043E+02 0.  0.
         12    1    1    2    0    0 -0.28589976547E+02  0.32565950568E+02 -0.23866745345E+01  0.43400738596E+02  0.00000000000E+00 0. -1.
         11    1    3    3    0    0  0.15105313947E+02 -0.13604165474E+02 -0.26987052851E+01  0.20506751039E+02  0.51100000000E-03 0. -1.
        -11    1    3    3    0    0 -0.20764743595E+01 -0.24751753293E+01 -0.16536946910E+01  0.36294552027E+01  0.51100000000E-03 0.  1.
        -12    1    3    3    0    0  0.15561136959E+02 -0.16486609765E+02  0.67390745107E+01  0.23651055162E+02  0.00000000000E+00 0.  1.
</event>
<event>
 7    1  0.2751796E-010  0.4778727E+02  0.7816164E-02  0.1312668E+00
        -11   -1    0    0    0    0  0.00000000000E+00  0.00000000000E+00  0.45593999997E+02  0.45594000000E+02  0.51100000000E-03 0. -1.
         11   -1    0    0    0    0 -0.00000000000E+00 -0.00000000000E+00 -0.45593999997E+02  0.45594000000E+02  0.51100000000E-03 0.  1.
    9900012    2    1    2    0    0 -0.16332627352E+02 -0.16912586857E+02 -0.36480585266E+02  0.47787269456E+02  0.19999992760E+02 0.  0.
         12    1    1    2    0    0  0.16332627352E+02  0.16912586857E+02  0.36480585266E+02  0.43400730544E+02  0.00000000000E+00 0. -1.
         11    1    3    3    0    0 -0.10826225998E+02 -0.14462897779E+02 -0.15994882511E+02  0.24129211515E+02  0.51100000000E-03 0.  1.
        -11    1    3    3    0    0  0.18837938134E+01  0.95035932551E+00 -0.63224049517E+00  0.22026325803E+01  0.51100000000E-03 0. -1.
         12    1    3    3    0    0 -0.73901951666E+01 -0.34000484035E+01 -0.19853462259E+02  0.21455425361E+02  0.00000000000E+00 0. -1.
</event>
<event>
 7    1  0.2751796E-010  0.4778727E+02  0.7816164E-02  0.1312668E+00
        -11   -1    0    0    0    0  0.00000000000E+00  0.00000000000E+00  0.45593999997E+02  0.45594000000E+02  0.51100000000E-03 0. -1.
         11   -1    0    0    0    0 -0.00000000000E+00 -0.00000000000E+00 -0.45593999997E+02  0.45594000000E+02  0.51100000000E-03 0.  1.
    9900012    2    1    2    0    0 -0.30777212385E+02  0.30168183664E+02  0.51251582752E+01  0.47787270108E+02  0.19999995732E+02 0.  0.
         12    1    1    2    0    0  0.30777212385E+02 -0.30168183664E+02 -0.51251582752E+01  0.43400729892E+02  0.00000000000E+00 0. -1.
         11    1    3    3    0    0 -0.26984308787E+02  0.23525948133E+02  0.52343590731E+00  0.35803591184E+02  0.51100000000E-03 0. -1.
        -11    1    3    3    0    0 -0.17227170190E+01  0.60956570623E+01 -0.59583857992E+00  0.63623747786E+01  0.51100000000E-03 0.  1.
         12    1    3    3    0    0 -0.20701865797E+01  0.54657846902E+00  0.51975609478E+01  0.56213041462E+01  0.00000000000E+00 0. -1.
</event>
<event>
 7    1  0.2751796E-010  0.4778727E+02  0.7816164E-02  0.1312668E+00
        -11   -1    0    0    0    0  0.00000000000E+00  0.00000000000E+00  0.45593999997E+02  0.45594000000E+02  0.51100000000E-03 0.  1.
         11   -1    0    0    0    0 -0.00000000000E+00 -0.00000000000E+00 -0.45593999997E+02  0.45594000000E+02  0.51100000000E-03 0. -1.
    9900012    2    1    2    0    0 -0.17011498141E+02 -0.14748966738E+02  0.37103911152E+02  0.47787270609E+02  0.19999998015E+02 0.  0.
         12    1    1    2    0    0  0.17011498141E+02  0.14748966738E+02 -0.37103911152E+02  0.43400729391E+02  0.00000000000E+00 0. -1.
         11    1    3    3    0    0 -0.35895759699E+00 -0.21954324390E+01  0.19754629944E+02  0.19879491408E+02  0.51100000000E-03 0. -1.
        -11    1    3    3    0    0 -0.15612955868E+02 -0.13345223405E+02  0.16537294642E+02  0.26369328641E+02  0.51100000000E-03 0.  1.
        -12    1    3    3    0    0 -0.10395846768E+01  0.79168910583E+00  0.81198656623E+00  0.15384505596E+01  0.00000000000E+00 0.  1.
</event>
<event>
 7    1  0.2751796E-010  0.4778727E+02  0.7816164E-02  0.1312668E+00
        -11   -1    0    0    0    0  0.00000000000E+00  0.00000000000E+00  0.45593999997E+02  0.45594000000E+02  0.51100000000E-03 0. -1.
         11   -1    0    0    0    0 -0.00000000000E+00 -0.00000000000E+00 -0.45593999997E+02  0.45594000000E+02  0.51100000000E-03 0.  1.
    9900012    2    1    2    0    0  0.13900004228E+02 -0.19700097825E+02 -0.36087658562E+02  0.47787273366E+02  0.20000010585E+02 0.  0.
         12    1    1    2    0    0 -0.13900004228E+02  0.19700097825E+02  0.36087658562E+02  0.43400726634E+02  0.00000000000E+00 0. -1.
         11    1    3    3    0    0 -0.12893191638E+01 -0.57855173114E+01 -0.51261304178E+01  0.78365660712E+01  0.51100000000E-03 0. -1.
        -11    1    3    3    0    0  0.45689605453E+01  0.21821044075E+01 -0.27046883887E+01  0.57404111047E+01  0.51100000000E-03 0.  1.
        -12    1    3    3    0    0  0.10620362847E+02 -0.16096684921E+02 -0.28256839756E+02  0.34210296190E+02  0.00000000000E+00 0.  1.
</event>
<event>
 7    1  0.2751796E-010  0.4778727E+02  0.7816164E-02  0.1312668E+00
        -11   -1    0    0    0    0  0.00000000000E+00  0.00000000000E+00  0.45593999997E+02  0.45594000000E+02  0.51100000000E-03 0.  1.
         11   -1    0    0    0    0 -0.00000000000E+00 -0.00000000000E+00 -0.45593999997E+02  0.45594000000E+02  0.51100000000E-03 0. -1.
    9900012    2    1    2    0    0  0.67274699307E+01 -0.37953234016E+02 -0.19947840875E+02  0.47787272132E+02  0.20000004959E+02 0.  0.
         12    1    1    2    0    0 -0.67274699307E+01  0.37953234016E+02  0.19947840875E+02  0.43400727868E+02  0.00000000000E+00 0. -1.
         11    1    3    3    0    0  0.74056510779E+01 -0.12657923468E+02 -0.16432337881E+01  0.14756927592E+02  0.51100000000E-03 0. -1.
        -11    1    3    3    0    0 -0.40248363147E+01 -0.20872420880E+02 -0.11230692742E+02  0.24041333583E+02  0.51100000000E-03 0.  1.
        -12    1    3    3    0    0  0.33466551674E+01 -0.44228896673E+01 -0.70739143448E+01  0.89890109565E+01  0.00000000000E+00 0.  1.
</event>
<event>
 7    1  0.2751796E-010  0.4778727E+02  0.7816164E-02  0.1312668E+00
        -11   -1    0    0    0    0  0.00000000000E+00  0.00000000000E+00  0.45593999997E+02  0.45594000000E+02  0.51100000000E-03 0.  1.
         11   -1    0    0    0    0 -0.00000000000E+00 -0.00000000000E+00 -0.45593999997E+02  0.45594000000E+02  0.51100000000E-03 0. -1.
    9900012    2    1    2    0    0 -0.34603408994E+02  0.50028954412E+01  0.25713780020E+02  0.47787270055E+02  0.19999995491E+02 0.  0.
         12    1    1    2    0    0  0.34603408994E+02 -0.50028954412E+01 -0.25713780020E+02  0.43400729945E+02  0.00000000000E+00 0. -1.
         11    1    3    3    0    0  0.26643244035E+00 -0.21551090255E+01  0.51916760236E+00  0.22327150327E+01  0.51100000000E-03 0. -1.
        -11    1    3    3    0    0 -0.28846885012E+02  0.31564732158E+01  0.25028748373E+02  0.38321591087E+02  0.51100000000E-03 0.  1.
        -12    1    3    3    0    0 -0.60229564222E+01  0.40015312509E+01  0.16586404508E+00  0.72329639358E+01  0.00000000000E+00 0.  1.
</event>
<event>
 7    1  0.2751796E-010  0.4778727E+02  0.7816164E-02  0.1312668E+00
        -11   -1    0    0    0    0  0.00000000000E+00  0.00000000000E+00  0.45593999997E+02  0.45594000000E+02  0.51100000000E-03 0.  1.
         11   -1    0    0    0    0 -0.00000000000E+00 -0.00000000000E+00 -0.45593999997E+02  0.45594000000E+02  0.51100000000E-03 0. -1.
    9900012    2    1    2    0    0  0.36542491880E+02 -0.22035188497E+02  0.79195901960E+01  0.47787272428E+02  0.20000006309E+02 0.  0.
         12    1    1    2    0    0 -0.36542491880E+02  0.22035188497E+02 -0.79195901960E+01  0.43400727572E+02  0.00000000000E+00 0. -1.
         11    1    3    3    0    0  0.39282603391E+01 -0.96216065102E+01  0.51269629378E+01  0.11588455046E+02  0.51100000000E-03 0. -1.
        -11    1    3    3    0    0  0.26663247659E+02 -0.65339841807E+01  0.40154249973E+01  0.27744285234E+02  0.51100000000E-03 0.  1.
        -12    1    3    3    0    0  0.59509838820E+01 -0.58795978065E+01 -0.12227977392E+01  0.84545321479E+01  0.00000000000E+00 0.  1.
</event>
<event>
 7    1  0.2751796E-010  0.4778726E+02  0.7816164E-02  0.1312668E+00
        -11   -1    0    0    0    0  0.00000000000E+00  0.00000000000E+00  0.45593999997E+02  0.45594000000E+02  0.51100000000E-03 0.  1.
         11   -1    0    0    0    0 -0.00000000000E+00 -0.00000000000E+00 -0.45593999997E+02  0.45594000000E+02  0.51100000000E-03 0. -1.
    9900012    2    1    2    0    0  0.38024697713E+02 -0.99339792361E+01  0.18413663354E+02  0.47787256024E+02  0.19999931514E+02 0.  0.
         12    1    1    2    0    0 -0.38024697713E+02  0.99339792361E+01 -0.18413663354E+02  0.43400743976E+02  0.00000000000E+00 0. -1.
         11    1    3    3    0    0  0.20589759280E+02 -0.69413666529E+00  0.15105329174E+02  0.25545860382E+02  0.51100000000E-03 0. -1.
        -11    1    3    3    0    0  0.18647405646E+02 -0.91217393581E+01  0.29228677458E+01  0.20963659565E+02  0.51100000000E-03 0.  1.
         12    1    3    3    0    0 -0.12124672130E+01 -0.11810321271E+00  0.38546643369E+00  0.12777360772E+01  0.00000000000E+00 0. -1.
</event>
<event>
 7    1  0.2751796E-010  0.4778727E+02  0.7816164E-02  0.1312668E+00
        -11   -1    0    0    0    0  0.00000000000E+00  0.00000000000E+00  0.45593999997E+02  0.45594000000E+02  0.51100000000E-03 0.  1.
         11   -1    0    0    0    0 -0.00000000000E+00 -0.00000000000E+00 -0.45593999997E+02  0.45594000000E+02  0.51100000000E-03 0. -1.
    9900012    2    1    2    0    0 -0.26276247460E+02  0.30031788926E+02  0.17066740794E+02  0.47787272264E+02  0.20000005560E+02 0.  0.
         12    1    1    2    0    0  0.26276247460E+02 -0.30031788926E+02 -0.17066740794E+02  0.43400727736E+02  0.00000000000E+00 0. -1.
         11    1    3    3    0    0 -0.78369447919E+00  0.19689448477E+00 -0.80809895819E+00  0.11427898592E+01  0.51100000000E-03 0. -1.
        -11    1    3    3    0    0 -0.22080979272E+02  0.15856220458E+02  0.56538981575E+01  0.27766093306E+02  0.51100000000E-03 0.  1.
        -12    1    3    3    0    0 -0.34115737087E+01  0.13978673984E+02  0.12220941595E+02  0.18878389099E+02  0.00000000000E+00 0.  1.
</event>
<event>
 7    1  0.2751796E-010  0.4778727E+02  0.7816164E-02  0.1312668E+00
        -11   -1    0    0    0    0  0.00000000000E+00  0.00000000000E+00  0.45593999997E+02  0.45594000000E+02  0.51100000000E-03 0.  1.
         11   -1    0    0    0    0 -0.00000000000E+00 -0.00000000000E+00 -0.45593999997E+02  0.45594000000E+02  0.51100000000E-03 0. -1.
    9900012    2    1    2    0    0  0.41870941112E+02  0.11172564942E+02  0.23709548742E+01  0.47787270237E+02  0.19999996318E+02 0.  0.
         12    1    1    2    0    0 -0.41870941112E+02 -0.11172564942E+02 -0.23709548742E+01  0.43400729763E+02  0.00000000000E+00 0. -1.
         11    1    3    3    0    0  0.59327214251E+01  0.33030654681E+01 -0.32668567681E+01  0.75352357892E+01  0.51100000000E-03 0. -1.
        -11    1    3    3    0    0  0.24372471188E+02  0.27940494627E+01  0.10544214301E+02  0.26702144477E+02  0.51100000000E-03 0.  1.
        -12    1    3    3    0    0  0.11565748499E+02  0.50754500110E+01 -0.49064026590E+01  0.13549889970E+02  0.00000000000E+00 0.  1.
</event>
<event>
 7    1  0.2751796E-010  0.4778727E+02  0.7816164E-02  0.1312668E+00
        -11   -1    0    0    0    0  0.00000000000E+00  0.00000000000E+00  0.45593999997E+02  0.45594000000E+02  0.51100000000E-03 0. -1.
         11   -1    0    0    0    0 -0.00000000000E+00 -0.00000000000E+00 -0.45593999997E+02  0.45594000000E+02  0.51100000000E-03 0.  1.
    9900012    2    1    2    0    0  0.26833584408E+02 -0.31293956434E+02 -0.13574628573E+02  0.47787268412E+02  0.19999988000E+02 0.  0.
         12    1    1    2    0    0 -0.26833584408E+02  0.31293956434E+02  0.13574628573E+02  0.43400731588E+02  0.00000000000E+00 0. -1.
         11    1    3    3    0    0  0.17957812016E+02 -0.10332764612E+02 -0.10492411420E+02  0.23223689082E+02  0.51100000000E-03 0. -1.
        -11    1    3    3    0    0  0.70952125205E+01 -0.21087804849E+02 -0.39192969483E+01  0.22591999532E+02  0.51100000000E-03 0.  1.
         12    1    3    3    0    0  0.17805598716E+01  0.12661302732E+00  0.83707979512E+00  0.19715797976E+01  0.00000000000E+00 0. -1.
</event>
<event>
 7    1  0.2751796E-010  0.4778727E+02  0.7816164E-02  0.1312668E+00
        -11   -1    0    0    0    0  0.00000000000E+00  0.00000000000E+00  0.45593999997E+02  0.45594000000E+02  0.51100000000E-03 0. -1.
         11   -1    0    0    0    0 -0.00000000000E+00 -0.00000000000E+00 -0.45593999997E+02  0.45594000000E+02  0.51100000000E-03 0.  1.
    9900012    2    1    2    0    0  0.42117810938E+02  0.10456606614E+02 -0.61027668623E+00  0.47787273535E+02  0.20000011355E+02 0.  0.
         12    1    1    2    0    0 -0.42117810938E+02 -0.10456606614E+02  0.61027668623E+00  0.43400726465E+02  0.00000000000E+00 0. -1.
         11    1    3    3    0    0  0.16421779297E+02 -0.37497019678E+01 -0.53675085511E+01  0.17678949302E+02  0.51100000000E-03 0. -1.
        -11    1    3    3    0    0  0.25614499814E+02  0.13524688361E+02  0.49710793462E+01  0.29389308023E+02  0.51100000000E-03 0.  1.
         12    1    3    3    0    0  0.81531827390E-01  0.68162022096E+00 -0.21384748126E+00  0.71901620966E+00  0.00000000000E+00 0. -1.
</event>
<event>
 7    1  0.2751796E-010  0.4778727E+02  0.7816164E-02  0.1312668E+00
        -11   -1    0    0    0    0  0.00000000000E+00  0.00000000000E+00  0.45593999997E+02  0.45594000000E+02  0.51100000000E-03 0.  1.
         11   -1    0    0    0    0 -0.00000000000E+00 -0.00000000000E+00 -0.45593999997E+02  0.45594000000E+02  0.51100000000E-03 0. -1.
    9900012    2    1    2    0    0 -0.14479885923E+02 -0.28913776563E+02  0.28947364699E+02  0.47787268503E+02  0.19999988413E+02 0.  0.
         12    1    1    2    0    0  0.14479885923E+02  0.28913776563E+02 -0.28947364699E+02  0.43400731497E+02  0.00000000000E+00 0. -1.
         11    1    3    3    0    0 -0.36859092881E+01 -0.46422638446E+01  0.16954176135E+02  0.17960529769E+02  0.51100000000E-03 0. -1.
        -11    1    3    3    0    0 -0.10638119250E+02 -0.19409487840E+02  0.11484341329E+02  0.24935675155E+02  0.51100000000E-03 0.  1.
         12    1    3    3    0    0 -0.15585738531E+00 -0.48620248775E+01  0.50884723454E+00  0.48910635798E+01  0.00000000000E+00 0. -1.
</event>
<event>
 7    1  0.2751796E-010  0.4778726E+02  0.7816164E-02  0.1312668E+00
        -11   -1    0    0    0    0  0.00000000000E+00  0.00000000000E+00  0.45593999997E+02  0.45594000000E+02  0.51100000000E-03 0. -1.
         11   -1    0    0    0    0 -0.00000000000E+00 -0.00000000000E+00 -0.45593999997E+02  0.45594000000E+02  0.51100000000E-03 0.  1.
    9900012    2    1    2    0    0 -0.26859134586E+02 -0.21453905300E+02 -0.26494163085E+02  0.47787264512E+02  0.19999970216E+02 0.  0.
         12    1    1    2    0    0  0.26859134586E+02  0.21453905300E+02  0.26494163085E+02  0.43400735488E+02  0.00000000000E+00 0. -1.
         11    1    3    3    0    0 -0.44545425205E+01  0.11799895067E+01 -0.95605639652E+01  0.10613185568E+02  0.51100000000E-03 0. -1.
        -11    1    3    3    0    0 -0.18426472789E+02 -0.12714611256E+02 -0.12041499107E+02  0.25420344998E+02  0.51100000000E-03 0.  1.
         12    1    3    3    0    0 -0.39781192766E+01 -0.99192835501E+01 -0.48921000134E+01  0.11753733946E+02  0.00000000000E+00 0. -1.
</event>
<event>
 7    1  0.2751796E-010  0.4778727E+02  0.7816164E-02  0.1312668E+00
        -11   -1    0    0    0    0  0.00000000000E+00  0.00000000000E+00  0.45593999997E+02  0.45594000000E+02  0.51100000000E-03 0.  1.
         11   -1    0    0    0    0 -0.00000000000E+00 -0.00000000000E+00 -0.45593999997E+02  0.45594000000E+02  0.51100000000E-03 0. -1.
    9900012    2    1    2    0    0  0.35493252261E+02 -0.87723872628E+01  0.23385842242E+02  0.47787270148E+02  0.19999995911E+02 0.  0.
         12    1    1    2    0    0 -0.35493252261E+02  0.87723872628E+01 -0.23385842242E+02  0.43400729852E+02  0.00000000000E+00 0. -1.
         11    1    3    3    0    0  0.18463885017E+01  0.12914735525E+01  0.53162443945E-01  0.22538591222E+01  0.51100000000E-03 0. -1.
        -11    1    3    3    0    0  0.26013078906E+02 -0.47208403233E+01  0.80539172891E+01  0.27637514206E+02  0.51100000000E-03 0.  1.
        -12    1    3    3    0    0  0.76337848531E+01 -0.53430204920E+01  0.15278762509E+02  0.17895896819E+02  0.00000000000E+00 0.  1.
</event>
<event>
 7    1 -0.2751796E-010  0.4778727E+02  0.7816164E-02  0.1312668E+00
        -11   -1    0    0    0    0  0.00000000000E+00  0.00000000000E+00  0.45593999997E+02  0.45594000000E+02  0.51100000000E-03 0. -1.
         11   -1    0    0    0    0 -0.00000000000E+00 -0.00000000000E+00 -0.45593999997E+02  0.45594000000E+02  0.51100000000E-03 0.  1.
    9900012    2    1    2    0    0 -0.46729817796E+01 -0.98453386841E+01 -0.42010188056E+02  0.47787270132E+02  0.19999995841E+02 0.  0.
         12    1    1    2    0    0  0.46729817796E+01  0.98453386841E+01  0.42010188056E+02  0.43400729868E+02  0.00000000000E+00 0. -1.
         11    1    3    3    0    0 -0.68758621953E+00  0.23602357194E+01 -0.26313080634E+01  0.36010095593E+01  0.51100000000E-03 0. -1.
        -11    1    3    3    0    0 -0.90570924304E+01 -0.87181524095E+01 -0.18116716565E+02  0.22051134304E+02  0.51100000000E-03 0.  1.
        -12    1    3    3    0    0  0.50716968703E+01 -0.34874219941E+01 -0.21262163428E+02  0.22135126269E+02  0.00000000000E+00 0.  1.
</event>
<event>
 7    1  0.2751796E-010  0.4778727E+02  0.7816164E-02  0.1312668E+00
        -11   -1    0    0    0    0  0.00000000000E+00  0.00000000000E+00  0.45593999997E+02  0.45594000000E+02  0.51100000000E-03 0.  1.
         11   -1    0    0    0    0 -0.00000000000E+00 -0.00000000000E+00 -0.45593999997E+02  0.45594000000E+02  0.51100000000E-03 0. -1.
    9900012    2    1    2    0    0 -0.17731553318E+02  0.55867719064E+01  0.39217385929E+02  0.47787270023E+02  0.19999995343E+02 0.  0.
         12    1    1    2    0    0  0.17731553318E+02 -0.55867719064E+01 -0.39217385929E+02  0.43400729977E+02  0.00000000000E+00 0. -1.
         11    1    3    3    0    0  0.27248678840E+01  0.96185755766E+00  0.35702155943E+01  0.45930942292E+01  0.51100000000E-03 0. -1.
        -11    1    3    3    0    0 -0.13799105367E+02 -0.30087004062E+01  0.18438935497E+02  0.23226319760E+02  0.51100000000E-03 0.  1.
         12    1    3    3    0    0 -0.66573158347E+01  0.76336147550E+01  0.17208234838E+02  0.19967856034E+02  0.00000000000E+00 0. -1.
</event>
<event>
 7    1  0.2751796E-010  0.4778728E+02  0.7816164E-02  0.1312668E+00
        -11   -1    0    0    0    0  0.00000000000E+00  0.00000000000E+00  0.45593999997E+02  0.45594000000E+02  0.51100000000E-03 0.  1.
         11   -1    0    0    0    0 -0.00000000000E+00 -0.00000000000E+00 -0.45593999997E+02  0.45594000000E+02  0.51100000000E-03 0. -1.
    9900012    2    1    2    0    0  0.18131883752E+02 -0.39234837486E+02 -0.39351001950E+01  0.47787277719E+02  0.20000030434E+02 0.  0.
         12    1    1    2    0    0 -0.18131883752E+02  0.39234837486E+02  0.39351001950E+01  0.43400722281E+02  0.00000000000E+00 0. -1.
         11    1    3    3    0    0  0.78922072974E+01 -0.12555756174E+02 -0.98697553494E+01  0.17814208376E+02  0.51100000000E-03 0. -1.
        -11    1    3    3    0    0  0.49366745537E+01 -0.15586362736E+02  0.66660406854E+01  0.17656204509E+02  0.51100000000E-03 0.  1.
        -12    1    3    3    0    0  0.53030019008E+01 -0.11092718576E+02 -0.73138553098E+00  0.12316864835E+02  0.00000000000E+00 0.  1.
</event>
<event>
 7    1  0.2751796E-010  0.4778727E+02  0.7816164E-02  0.1312668E+00
        -11   -1    0    0    0    0  0.00000000000E+00  0.00000000000E+00  0.45593999997E+02  0.45594000000E+02  0.51100000000E-03 0. -1.
         11   -1    0    0    0    0 -0.00000000000E+00 -0.00000000000E+00 -0.45593999997E+02  0.45594000000E+02  0.51100000000E-03 0.  1.
    9900012    2    1    2    0    0  0.96964764824E+01 -0.41916657152E+02 -0.57092616729E+01  0.47787268764E+02  0.19999989603E+02 0.  0.
         12    1    1    2    0    0 -0.96964764824E+01  0.41916657152E+02  0.57092616729E+01  0.43400731236E+02  0.00000000000E+00 0. -1.
         11    1    3    3    0    0 -0.41255708636E+01 -0.17056644851E+02 -0.30989043578E+00  0.17551225053E+02  0.51100000000E-03 0. -1.
        -11    1    3    3    0    0  0.13787896364E+02 -0.21174540356E+02 -0.22141211921E+01  0.25364730993E+02  0.51100000000E-03 0.  1.
        -12    1    3    3    0    0  0.34150982089E-01 -0.36854719449E+01 -0.31852500451E+01  0.48713127180E+01  0.00000000000E+00 0.  1.
</event>
<event>
 7    1  0.2751796E-010  0.4778726E+02  0.7816164E-02  0.1312668E+00
        -11   -1    0    0    0    0  0.00000000000E+00  0.00000000000E+00  0.45593999997E+02  0.45594000000E+02  0.51100000000E-03 0. -1.
         11   -1    0    0    0    0 -0.00000000000E+00 -0.00000000000E+00 -0.45593999997E+02  0.45594000000E+02  0.51100000000E-03 0.  1.
    9900012    2    1    2    0    0  0.14398448561E+02 -0.10582870715E+02 -0.39551377739E+02  0.47787263203E+02  0.19999964246E+02 0.  0.
         12    1    1    2    0    0 -0.14398448561E+02  0.10582870715E+02  0.39551377739E+02  0.43400736797E+02  0.00000000000E+00 0. -1.
         11    1    3    3    0    0  0.68514332607E+01 -0.86074561217E+01 -0.59322387521E+01  0.12498875769E+02  0.51100000000E-03 0. -1.
        -11    1    3    3    0    0  0.21410303390E+01 -0.40697313876E+01 -0.10679353269E+02  0.11627351847E+02  0.51100000000E-03 0.  1.
         12    1    3    3    0    0  0.54059849608E+01  0.20943167945E+01 -0.22939785718E+02  0.23661035587E+02  0.00000000000E+00 0. -1.
</event>
<event>
 7    1  0.2751796E-010  0.4778727E+02  0.7816164E-02  0.1312668E+00
        -11   -1    0    0    0    0  0.00000000000E+00  0.00000000000E+00  0.45593999997E+02  0.45594000000E+02  0.51100000000E-03 0.  1.
         11   -1    0    0    0    0 -0.00000000000E+00 -0.00000000000E+00 -0.45593999997E+02  0.45594000000E+02  0.51100000000E-03 0. -1.
    9900012    2    1    2    0    0  0.38779135484E+02 -0.52088286343E+01  0.18779503524E+02  0.47787274232E+02  0.20000014533E+02 0.  0.
         12    1    1    2    0    0 -0.38779135484E+02  0.52088286343E+01 -0.18779503524E+02  0.43400725768E+02  0.00000000000E+00 0. -1.
         11    1    3    3    0    0  0.18064816738E+02 -0.44449435445E+01 -0.14874143780E+01  0.18662998920E+02  0.51100000000E-03 0. -1.
        -11    1    3    3    0    0  0.43533314024E+01  0.19181881547E+00  0.28383614579E+01  0.52004408259E+01  0.51100000000E-03 0.  1.
         12    1    3    3    0    0  0.16360987343E+02 -0.95570390525E+00  0.17428556444E+02  0.23923834486E+02  0.00000000000E+00 0. -1.
</event>
<event>
 7    1  0.2751796E-010  0.4778727E+02  0.7816164E-02  0.1312668E+00
        -11   -1    0    0    0    0  0.00000000000E+00  0.00000000000E+00  0.45593999997E+02  0.45594000000E+02  0.51100000000E-03 0.  1.
         11   -1    0    0    0    0 -0.00000000000E+00 -0.00000000000E+00 -0.45593999997E+02  0.45594000000E+02  0.51100000000E-03 0. -1.
    9900012    2    1    2    0    0 -0.80558926489E+01  0.30839931412E+02  0.29455463350E+02  0.47787273082E+02  0.20000009291E+02 0.  0.
         12    1    1    2    0    0  0.80558926489E+01 -0.30839931412E+02 -0.29455463350E+02  0.43400726918E+02  0.00000000000E+00 0. -1.
         11    1    3    3    0    0  0.17888428887E+01  0.17425054457E+02  0.81017211007E+01  0.19299491360E+02  0.51100000000E-03 0. -1.
        -11    1    3    3    0    0 -0.51323601558E+01  0.35340301381E+01  0.13931923474E+02  0.15262011065E+02  0.51100000000E-03 0.  1.
         12    1    3    3    0    0 -0.47123753817E+01  0.98808468170E+01  0.74218187745E+01  0.13225770657E+02  0.00000000000E+00 0. -1.
</event>
<event>
 7    1  0.2751796E-010  0.4778727E+02  0.7816164E-02  0.1312668E+00
        -11   -1    0    0    0    0  0.00000000000E+00  0.00000000000E+00  0.45593999997E+02  0.45594000000E+02  0.51100000000E-03 0.  1.
         11   -1    0    0    0    0 -0.00000000000E+00 -0.00000000000E+00 -0.45593999997E+02  0.45594000000E+02  0.51100000000E-03 0. -1.
    9900012    2    1    2    0    0  0.19867176369E+02  0.10580616608E+02  0.37107536396E+02  0.47787269568E+02  0.19999993266E+02 0.  0.
         12    1    1    2    0    0 -0.19867176369E+02 -0.10580616608E+02 -0.37107536396E+02  0.43400730432E+02  0.00000000000E+00 0. -1.
         11    1    3    3    0    0  0.27419752546E+01  0.57011710502E+01  0.58860844762E+00  0.63536005387E+01  0.51100000000E-03 0. -1.
        -11    1    3    3    0    0  0.10481728115E+02  0.66529031182E+01  0.26715181662E+02  0.29458932018E+02  0.51100000000E-03 0.  1.
        -12    1    3    3    0    0  0.66434730000E+01 -0.17734575604E+01  0.98037462869E+01  0.11974737011E+02  0.00000000000E+00 0.  1.
</event>
<event>
 7    1  0.2751796E-010  0.4778727E+02  0.7816164E-02  0.1312668E+00
        -11   -1    0    0    0    0  0.00000000000E+00  0.00000000000E+00  0.45593999997E+02  0.45594000000E+02  0.51100000000E-03 0.  1.
         11   -1    0    0    0    0 -0.00000000000E+00 -0.00000000000E+00 -0.45593999997E+02  0.45594000000E+02  0.51100000000E-03 0. -1.
    9900012    2    1    2    0    0 -0.50834033061E+01 -0.12913796810E+02  0.41121967968E+02  0.47787269744E+02  0.19999994071E+02 0.  0.
         12    1    1    2    0    0  0.50834033061E+01  0.12913796810E+02 -0.41121967968E+02  0.43400730256E+02  0.00000000000E+00 0. -1.
         11    1    3    3    0    0  0.71473970743E+00 -0.63604426721E+01  0.71276522033E+01  0.95796403913E+01  0.51100000000E-03 0. -1.
        -11    1    3    3    0    0 -0.20008080090E+01 -0.14961913058E+01  0.31189526547E+02  0.31289429327E+02  0.51100000000E-03 0.  1.
        -12    1    3    3    0    0 -0.37973350045E+01 -0.50571628320E+01  0.28047892175E+01  0.69182000260E+01  0.00000000000E+00 0.  1.
</event>
<event>
 7    1  0.2751796E-010  0.4778727E+02  0.7816164E-02  0.1312668E+00
        -11   -1    0    0    0    0  0.00000000000E+00  0.00000000000E+00  0.45593999997E+02  0.45594000000E+02  0.51100000000E-03 0.  1.
         11   -1    0    0    0    0 -0.00000000000E+00 -0.00000000000E+00 -0.45593999997E+02  0.45594000000E+02  0.51100000000E-03 0. -1.
    9900012    2    1    2    0    0  0.27153452711E+01  0.41591350986E+02  0.12099982690E+02  0.47787272381E+02  0.20000006092E+02 0.  0.
         12    1    1    2    0    0 -0.27153452711E+01 -0.41591350986E+02 -0.12099982690E+02  0.43400727619E+02  0.00000000000E+00 0. -1.
         11    1    3    3    0    0 -0.68130679530E+01  0.14184907394E+02  0.55545864517E+00  0.15746047989E+02  0.51100000000E-03 0. -1.
        -11    1    3    3    0    0  0.94646352618E+00  0.13178990466E+02  0.41009840543E+01  0.13834726358E+02  0.51100000000E-03 0.  1.
         12    1    3    3    0    0  0.85819496980E+01  0.14227453126E+02  0.74435399901E+01  0.18206498034E+02  0.00000000000E+00 0. -1.
</event>
<event>
 7    1  0.2751796E-010  0.4778727E+02  0.7816164E-02  0.1312668E+00
        -11   -1    0    0    0    0  0.00000000000E+00  0.00000000000E+00  0.45593999997E+02  0.45594000000E+02  0.51100000000E-03 0.  1.
         11   -1    0    0    0    0 -0.00000000000E+00 -0.00000000000E+00 -0.45593999997E+02  0.45594000000E+02  0.51100000000E-03 0. -1.
    9900012    2    1    2    0    0 -0.18930201685E+02 -0.64009230663E+01  0.38526600821E+02  0.47787270481E+02  0.19999997432E+02 0.  0.
         12    1    1    2    0    0  0.18930201685E+02  0.64009230663E+01 -0.38526600821E+02  0.43400729519E+02  0.00000000000E+00 0. -1.
         11    1    3    3    0    0  0.90743466592E+00 -0.46309836826E+01  0.12849887268E+01  0.48908735243E+01  0.51100000000E-03 0. -1.
        -11    1    3    3    0    0 -0.16613572721E+02 -0.42221626632E+01  0.31618883167E+02  0.35966529289E+02  0.51100000000E-03 0.  1.
        -12    1    3    3    0    0 -0.32240636301E+01  0.24522232795E+01  0.56227289270E+01  0.69298676676E+01  0.00000000000E+00 0.  1.
</event>
<event>
 7    1  0.2751796E-010  0.4778727E+02  0.7816164E-02  0.1312668E+00
        -11   -1    0    0    0    0  0.00000000000E+00  0.00000000000E+00  0.45593999997E+02  0.45594000000E+02  0.51100000000E-03 0. -1.
         11   -1    0    0    0    0 -0.00000000000E+00 -0.00000000000E+00 -0.45593999997E+02  0.45594000000E+02  0.51100000000E-03 0.  1.
    9900012    2    1    2    0    0 -0.36157973266E+02 -0.23977796889E+02 -0.11356211100E+01  0.47787269480E+02  0.19999992868E+02 0.  0.
         12    1    1    2    0    0  0.36157973266E+02  0.23977796889E+02  0.11356211100E+01  0.43400730520E+02  0.00000000000E+00 0. -1.
         11    1    3    3    0    0 -0.14706651033E+02 -0.11710476773E+02  0.75269116022E+01  0.20250314797E+02  0.51100000000E-03 0. -1.
        -11    1    3    3    0    0 -0.21469988373E+02 -0.11511523627E+02 -0.64528053851E+01  0.25201473658E+02  0.51100000000E-03 0.  1.
         12    1    3    3    0    0  0.18666139884E-01 -0.75579648900E+00 -0.22097273271E+01  0.23354810249E+01  0.00000000000E+00 0. -1.
</event>
<event>
 7    1  0.2751796E-010  0.4778727E+02  0.7816164E-02  0.1312668E+00
        -11   -1    0    0    0    0  0.00000000000E+00  0.00000000000E+00  0.45593999997E+02  0.45594000000E+02  0.51100000000E-03 0. -1.
         11   -1    0    0    0    0 -0.00000000000E+00 -0.00000000000E+00 -0.45593999997E+02  0.45594000000E+02  0.51100000000E-03 0.  1.
    9900012    2    1    2    0    0  0.25273536251E+02 -0.34990422070E+02 -0.45323323016E+01  0.47787270658E+02  0.19999998240E+02 0.  0.
         12    1    1    2    0    0 -0.25273536251E+02  0.34990422070E+02  0.45323323016E+01  0.43400729342E+02  0.00000000000E+00 0. -1.
         11    1    3    3    0    0  0.41814089368E+01 -0.24951122121E+01  0.37084318458E+01  0.61206398900E+01  0.51100000000E-03 0. -1.
        -11    1    3    3    0    0  0.18791790984E+02 -0.33382005974E+02 -0.71436228771E+01  0.38968206006E+02  0.51100000000E-03 0.  1.
        -12    1    3    3    0    0  0.23003363303E+01  0.88669611556E+00 -0.10971412703E+01  0.26984247629E+01  0.00000000000E+00 0.  1.
</event>
<event>
 7    1  0.2751796E-010  0.4778727E+02  0.7816164E-02  0.1312668E+00
        -11   -1    0    0    0    0  0.00000000000E+00  0.00000000000E+00  0.45593999997E+02  0.45594000000E+02  0.51100000000E-03 0.  1.
         11   -1    0    0    0    0 -0.00000000000E+00 -0.00000000000E+00 -0.45593999997E+02  0.45594000000E+02  0.51100000000E-03 0. -1.
    9900012    2    1    2    0    0  0.27275426865E+02  0.17163744006E+02  0.29070258345E+02  0.47787274899E+02  0.20000017576E+02 0.  0.
         12    1    1    2    0    0 -0.27275426865E+02 -0.17163744006E+02 -0.29070258345E+02  0.43400725101E+02  0.00000000000E+00 0. -1.
         11    1    3    3    0    0  0.10430088355E+02  0.32746775889E+01  0.69108049494E+00  0.10953896518E+02  0.51100000000E-03 0. -1.
        -11    1    3    3    0    0  0.58593954729E+01  0.29562119631E+01  0.14944984792E+02  0.16322508238E+02  0.51100000000E-03 0.  1.
        -12    1    3    3    0    0  0.10985943037E+02  0.10932854454E+02  0.13434193058E+02  0.20510870144E+02  0.00000000000E+00 0.  1.
</event>
<event>
 7    1  0.2751796E-010  0.4778732E+02  0.7816164E-02  0.1312668E+00
        -11   -1    0    0    0    0  0.00000000000E+00  0.00000000000E+00  0.45593999997E+02  0.45594000000E+02  0.51100000000E-03 0.  1.
         11   -1    0    0    0    0 -0.00000000000E+00 -0.00000000000E+00 -0.45593999997E+02  0.45594000000E+02  0.51100000000E-03 0. -1.
    9900012    2    1    2    0    0 -0.24773729022E+01  0.17516218970E+02  0.39631601117E+02  0.47787319008E+02  0.20000218684E+02 0.  0.
         12    1    1    2    0    0  0.24773729022E+01 -0.17516218970E+02 -0.39631601117E+02  0.43400680992E+02  0.00000000000E+00 0. -1.
         11    1    3    3    0    0  0.40477350034E+01 -0.15971891352E+01  0.98948292033E+01  0.10809385598E+02  0.51100000000E-03 0. -1.
        -11    1    3    3    0    0 -0.25902148182E+01  0.85201736806E+01  0.61457407687E+01  0.10820013965E+02  0.51100000000E-03 0.  1.
         12    1    3    3    0    0 -0.39348930873E+01  0.10593234424E+02  0.23591031145E+02  0.26157919444E+02  0.00000000000E+00 0. -1.
</event>
<event>
 7    1  0.2751796E-010  0.4778726E+02  0.7816164E-02  0.1312668E+00
        -11   -1    0    0    0    0  0.00000000000E+00  0.00000000000E+00  0.45593999997E+02  0.45594000000E+02  0.51100000000E-03 0.  1.
         11   -1    0    0    0    0 -0.00000000000E+00 -0.00000000000E+00 -0.45593999997E+02  0.45594000000E+02  0.51100000000E-03 0. -1.
    9900012    2    1    2    0    0  0.20111218606E+02 -0.25423508221E+02  0.28858418844E+02  0.47787260119E+02  0.19999950184E+02 0.  0.
         12    1    1    2    0    0 -0.20111218606E+02  0.25423508221E+02 -0.28858418844E+02  0.43400739881E+02  0.00000000000E+00 0. -1.
         11    1    3    3    0    0  0.10722734308E+01 -0.63366535146E+00  0.80103974712E+01  0.81066497393E+01  0.51100000000E-03 0. -1.
        -11    1    3    3    0    0  0.65648326841E+01 -0.11211324988E+02  0.17076877121E+01  0.13103703055E+02  0.51100000000E-03 0.  1.
        -12    1    3    3    0    0  0.12474112491E+02 -0.13578517881E+02  0.19140333661E+02  0.26576907325E+02  0.00000000000E+00 0.  1.
</event>
<event>
 7    1  0.2751796E-010  0.4778727E+02  0.7816164E-02  0.1312668E+00
        -11   -1    0    0    0    0  0.00000000000E+00  0.00000000000E+00  0.45593999997E+02  0.45594000000E+02  0.51100000000E-03 0.  1.
         11   -1    0    0    0    0 -0.00000000000E+00 -0.00000000000E+00 -0.45593999997E+02  0.45594000000E+02  0.51100000000E-03 0. -1.
    9900012    2    1    2    0    0 -0.10447937179E+02 -0.56922727243E+00  0.42120541679E+02  0.47787269104E+02  0.19999991151E+02 0.  0.
         12    1    1    2    0    0  0.10447937179E+02  0.56922727243E+00 -0.42120541679E+02  0.43400730896E+02  0.00000000000E+00 0. -1.
         11    1    3    3    0    0 -0.19100475666E+01  0.61245762539E+01  0.14828025762E+02  0.16156393912E+02  0.51100000000E-03 0. -1.
        -11    1    3    3    0    0 -0.62887546547E+01 -0.52914602453E+01  0.27749714519E+02  0.28941227389E+02  0.51100000000E-03 0.  1.
         12    1    3    3    0    0 -0.22491349579E+01 -0.14023432810E+01 -0.45719860202E+00  0.26896478019E+01  0.00000000000E+00 0. -1.
</event>
<event>
 7    1  0.2751796E-010  0.4778727E+02  0.7816164E-02  0.1312668E+00
        -11   -1    0    0    0    0  0.00000000000E+00  0.00000000000E+00  0.45593999997E+02  0.45594000000E+02  0.51100000000E-03 0.  1.
         11   -1    0    0    0    0 -0.00000000000E+00 -0.00000000000E+00 -0.45593999997E+02  0.45594000000E+02  0.51100000000E-03 0. -1.
    9900012    2    1    2    0    0  0.11291833056E+02  0.39729370566E+02 -0.13330225965E+02  0.47787270702E+02  0.19999998439E+02 0.  0.
         12    1    1    2    0    0 -0.11291833056E+02 -0.39729370566E+02  0.13330225965E+02  0.43400729298E+02  0.00000000000E+00 0. -1.
         11    1    3    3    0    0  0.30987890582E+01  0.10898483062E+02 -0.91098624489E+01  0.14538535716E+02  0.51100000000E-03 0. -1.
        -11    1    3    3    0    0  0.78304446738E+01  0.23381540772E+02  0.22748172162E+01  0.24762615093E+02  0.51100000000E-03 0.  1.
        -12    1    3    3    0    0  0.36259932381E+00  0.54493467323E+01 -0.64951807324E+01  0.84861198922E+01  0.00000000000E+00 0.  1.
</event>
<event>
 7    1  0.2751796E-010  0.4778727E+02  0.7816164E-02  0.1312668E+00
        -11   -1    0    0    0    0  0.00000000000E+00  0.00000000000E+00  0.45593999997E+02  0.45594000000E+02  0.51100000000E-03 0.  1.
         11   -1    0    0    0    0 -0.00000000000E+00 -0.00000000000E+00 -0.45593999997E+02  0.45594000000E+02  0.51100000000E-03 0. -1.
    9900012    2    1    2    0    0  0.39796621043E+02  0.12518894650E+02 -0.11963678887E+02  0.47787269796E+02  0.19999994308E+02 0.  0.
         12    1    1    2    0    0 -0.39796621043E+02 -0.12518894650E+02  0.11963678887E+02  0.43400730204E+02  0.00000000000E+00 0. -1.
         11    1    3    3    0    0 -0.54812959870E+00 -0.16525404893E+01  0.12591305876E+01  0.21486614957E+01  0.51100000000E-03 0. -1.
        -11    1    3    3    0    0  0.11130247514E+02  0.29524638616E-01 -0.46923497183E+01  0.12078966329E+02  0.51100000000E-03 0.  1.
         12    1    3    3    0    0  0.29214503128E+02  0.14141910501E+02 -0.85304597560E+01  0.33559641972E+02  0.00000000000E+00 0. -1.
</event>
<event>
 7    1  0.2751796E-010  0.4778727E+02  0.7816164E-02  0.1312668E+00
        -11   -1    0    0    0    0  0.00000000000E+00  0.00000000000E+00  0.45593999997E+02  0.45594000000E+02  0.51100000000E-03 0. -1.
         11   -1    0    0    0    0 -0.00000000000E+00 -0.00000000000E+00 -0.45593999997E+02  0.45594000000E+02  0.51100000000E-03 0.  1.
    9900012    2    1    2    0    0 -0.10006222402E+02  0.31168720180E+02 -0.28495780991E+02  0.47787272602E+02  0.20000007100E+02 0.  0.
         12    1    1    2    0    0  0.10006222402E+02 -0.31168720180E+02  0.28495780991E+02  0.43400727398E+02  0.00000000000E+00 0. -1.
         11    1    3    3    0    0 -0.23988924642E+01 -0.17768990266E+01 -0.61449956154E+01  0.68317659927E+01  0.51100000000E-03 0. -1.
        -11    1    3    3    0    0 -0.69198431583E+01  0.31862705489E+02 -0.22568880682E+02  0.39654389491E+02  0.51100000000E-03 0.  1.
        -12    1    3    3    0    0 -0.68748677980E+00  0.10829137171E+01  0.21809530643E+00  0.13011171176E+01  0.00000000000E+00 0.  1.
</event>
<event>
 7    1  0.2751796E-010  0.4778727E+02  0.7816164E-02  0.1312668E+00
        -11   -1    0    0    0    0  0.00000000000E+00  0.00000000000E+00  0.45593999997E+02  0.45594000000E+02  0.51100000000E-03 0.  1.
         11   -1    0    0    0    0 -0.00000000000E+00 -0.00000000000E+00 -0.45593999997E+02  0.45594000000E+02  0.51100000000E-03 0. -1.
    9900012    2    1    2    0    0  0.15865600825E+02 -0.39280226483E+01  0.40205429760E+02  0.47787271508E+02  0.20000002113E+02 0.  0.
         12    1    1    2    0    0 -0.15865600825E+02  0.39280226483E+01 -0.40205429760E+02  0.43400728492E+02  0.00000000000E+00 0. -1.
         11    1    3    3    0    0  0.61630321257E+00 -0.80968072826E+01  0.89792676136E+01  0.12106418337E+02  0.51100000000E-03 0. -1.
        -11    1    3    3    0    0  0.81863624366E+01  0.41599393114E+01  0.23408419381E+02  0.25145093422E+02  0.51100000000E-03 0.  1.
        -12    1    3    3    0    0  0.70629351758E+01  0.88453229913E-02  0.78177427657E+01  0.10535759749E+02  0.00000000000E+00 0.  1.
</event>
<event>
 7    1  0.2751796E-010  0.4778727E+02  0.7816164E-02  0.1312668E+00
        -11   -1    0    0    0    0  0.00000000000E+00  0.00000000000E+00  0.45593999997E+02  0.45594000000E+02  0.51100000000E-03 0.  1.
         11   -1    0    0    0    0 -0.00000000000E+00 -0.00000000000E+00 -0.45593999997E+02  0.45594000000E+02  0.51100000000E-03 0. -1.
    9900012    2    1    2    0    0  0.18272471185E+02 -0.23474956053E+02  0.31601689828E+02  0.47787267692E+02  0.19999984714E+02 0.  0.
         12    1    1    2    0    0 -0.18272471185E+02  0.23474956053E+02 -0.31601689828E+02  0.43400732308E+02  0.00000000000E+00 0. -1.
         11    1    3    3    0    0  0.11793772285E+02 -0.79356925103E+01  0.24497199788E+02  0.28322801380E+02  0.51100000000E-03 0. -1.
        -11    1    3    3    0    0  0.29582552484E+01 -0.12577570445E+02  0.73359535405E+01  0.14858087596E+02  0.51100000000E-03 0.  1.
         12    1    3    3    0    0  0.35204436525E+01 -0.29616930981E+01 -0.23146350039E+00  0.46063787154E+01  0.00000000000E+00 0. -1.
</event>
<event>
 7    1  0.2751796E-010  0.4778727E+02  0.7816164E-02  0.1312668E+00
        -11   -1    0    0    0    0  0.00000000000E+00  0.00000000000E+00  0.45593999997E+02  0.45594000000E+02  0.51100000000E-03 0.  1.
         11   -1    0    0    0    0 -0.00000000000E+00 -0.00000000000E+00 -0.45593999997E+02  0.45594000000E+02  0.51100000000E-03 0. -1.
    9900012    2    1    2    0    0 -0.32635474251E+02 -0.15478832909E+02 -0.24061482603E+02  0.47787269674E+02  0.19999993750E+02 0.  0.
         12    1    1    2    0    0  0.32635474251E+02  0.15478832909E+02  0.24061482603E+02  0.43400730326E+02  0.00000000000E+00 0. -1.
         11    1    3    3    0    0 -0.80387672735E+01  0.22958988557E-01 -0.12241732874E+02  0.14645215274E+02  0.51100000000E-03 0. -1.
        -11    1    3    3    0    0 -0.19052145712E+02 -0.99513833895E+01 -0.36263194771E+01  0.21798267840E+02  0.51100000000E-03 0.  1.
         12    1    3    3    0    0 -0.55445612653E+01 -0.55504085083E+01 -0.81934302513E+01  0.11343786560E+02  0.00000000000E+00 0. -1.
</event>
<event>
 7    1  0.2751796E-010  0.4778727E+02  0.7816164E-02  0.1312668E+00
        -11   -1    0    0    0    0  0.00000000000E+00  0.00000000000E+00  0.45593999997E+02  0.45594000000E+02  0.51100000000E-03 0.  1.
         11   -1    0    0    0    0 -0.00000000000E+00 -0.00000000000E+00 -0.45593999997E+02  0.45594000000E+02  0.51100000000E-03 0. -1.
    9900012    2    1    2    0    0 -0.17545368617E+02 -0.42929784913E+01  0.39463319846E+02  0.47787271464E+02  0.20000001913E+02 0.  0.
         12    1    1    2    0    0  0.17545368617E+02  0.42929784913E+01 -0.39463319846E+02  0.43400728536E+02  0.00000000000E+00 0. -1.
         11    1    3    3    0    0 -0.91247592456E+01  0.13401052713E+01  0.37977153529E+01  0.99739538595E+01  0.51100000000E-03 0. -1.
        -11    1    3    3    0    0 -0.97321485529E+01 -0.43503940236E+01  0.28900420097E+02  0.30803813492E+02  0.51100000000E-03 0.  1.
        -12    1    3    3    0    0  0.13115391819E+01 -0.12826897389E+01  0.67651843956E+01  0.70095041121E+01  0.00000000000E+00 0.  1.
</event>
<event>
 7    1  0.2751796E-010  0.4778727E+02  0.7816164E-02  0.1312668E+00
        -11   -1    0    0    0    0  0.00000000000E+00  0.00000000000E+00  0.45593999997E+02  0.45594000000E+02  0.51100000000E-03 0.  1.
         11   -1    0    0    0    0 -0.00000000000E+00 -0.00000000000E+00 -0.45593999997E+02  0.45594000000E+02  0.51100000000E-03 0. -1.
    9900012    2    1    2    0    0  0.29264759575E+02  0.23210292909E+02  0.22101569318E+02  0.47787271709E+02  0.20000003029E+02 0.  0.
         12    1    1    2    0    0 -0.29264759575E+02 -0.23210292909E+02 -0.22101569318E+02  0.43400728291E+02  0.00000000000E+00 0. -1.
         11    1    3    3    0    0  0.82035072359E+01 -0.64030936697E+00  0.10588941168E+02  0.13410190244E+02  0.51100000000E-03 0. -1.
        -11    1    3    3    0    0  0.14751460588E+02  0.18594999159E+02  0.10967883612E+02  0.26147161498E+02  0.51100000000E-03 0.  1.
        -12    1    3    3    0    0  0.63097917509E+01  0.52556031164E+01  0.54474453867E+00  0.82299199674E+01  0.00000000000E+00 0.  1.
</event>
<event>
 7    1  0.2751796E-010  0.4778727E+02  0.7816164E-02  0.1312668E+00
        -11   -1    0    0    0    0  0.00000000000E+00  0.00000000000E+00  0.45593999997E+02  0.45594000000E+02  0.51100000000E-03 0.  1.
         11   -1    0    0    0    0 -0.00000000000E+00 -0.00000000000E+00 -0.45593999997E+02  0.45594000000E+02  0.51100000000E-03 0. -1.
    9900012    2    1    2    0    0 -0.35343547831E+02 -0.10263393337E+02 -0.23002609120E+02  0.47787266799E+02  0.19999980642E+02 0.  0.
         12    1    1    2    0    0  0.35343547831E+02  0.10263393337E+02  0.23002609120E+02  0.43400733201E+02  0.00000000000E+00 0. -1.
         11    1    3    3    0    0 -0.32681467429E+01  0.32699461249E+01 -0.24490850603E+01  0.52317634394E+01  0.51100000000E-03 0. -1.
        -11    1    3    3    0    0 -0.15340074944E+02 -0.99412341047E+01 -0.39345019885E+01  0.18698297810E+02  0.51100000000E-03 0.  1.
        -12    1    3    3    0    0 -0.16735326144E+02 -0.35921053577E+01 -0.16619022071E+02  0.23857205550E+02  0.00000000000E+00 0.  1.
</event>
<event>
 7    1  0.2751796E-010  0.4778727E+02  0.7816164E-02  0.1312668E+00
        -11   -1    0    0    0    0  0.00000000000E+00  0.00000000000E+00  0.45593999997E+02  0.45594000000E+02  0.51100000000E-03 0.  1.
         11   -1    0    0    0    0 -0.00000000000E+00 -0.00000000000E+00 -0.45593999997E+02  0.45594000000E+02  0.51100000000E-03 0. -1.
    9900012    2    1    2    0    0  0.39640596695E+02  0.12447743877E+01  0.17626591777E+02  0.47787272964E+02  0.20000008751E+02 0.  0.
         12    1    1    2    0    0 -0.39640596695E+02 -0.12447743877E+01 -0.17626591777E+02  0.43400727036E+02  0.00000000000E+00 0. -1.
         11    1    3    3    0    0  0.20901783737E+02  0.57042813975E+01  0.62038242219E+01  0.22536877000E+02  0.51100000000E-03 0.  1.
        -11    1    3    3    0    0 -0.96364100611E+00  0.15186577610E+01  0.22411248880E+00  0.18124988420E+01  0.51100000000E-03 0. -1.
         12    1    3    3    0    0  0.19702453964E+02 -0.59781647708E+01  0.11198655066E+02  0.23437897122E+02  0.00000000000E+00 0. -1.
</event>
<event>
 7    1  0.2751796E-010  0.4778726E+02  0.7816164E-02  0.1312668E+00
        -11   -1    0    0    0    0  0.00000000000E+00  0.00000000000E+00  0.45593999997E+02  0.45594000000E+02  0.51100000000E-03 0. -1.
         11   -1    0    0    0    0 -0.00000000000E+00 -0.00000000000E+00 -0.45593999997E+02  0.45594000000E+02  0.51100000000E-03 0.  1.
    9900012    2    1    2    0    0 -0.14155723164E+02 -0.14253860345E+02 -0.38471637312E+02  0.47787263710E+02  0.19999966560E+02 0.  0.
         12    1    1    2    0    0  0.14155723164E+02  0.14253860345E+02  0.38471637312E+02  0.43400736290E+02  0.00000000000E+00 0. -1.
         11    1    3    3    0    0  0.44703484335E-01 -0.44559680303E+01 -0.59695930803E+01  0.74494087882E+01  0.51100000000E-03 0. -1.
        -11    1    3    3    0    0 -0.10670263144E+01 -0.73622592086E+01 -0.22364141425E+02  0.23568967473E+02  0.51100000000E-03 0.  1.
        -12    1    3    3    0    0 -0.13133400334E+02 -0.24356331064E+01 -0.10137902807E+02  0.16768887449E+02  0.00000000000E+00 0.  1.
</event>
<event>
 7    1  0.2751796E-010  0.4778728E+02  0.7816164E-02  0.1312668E+00
        -11   -1    0    0    0    0  0.00000000000E+00  0.00000000000E+00  0.45593999997E+02  0.45594000000E+02  0.51100000000E-03 0.  1.
         11   -1    0    0    0    0 -0.00000000000E+00 -0.00000000000E+00 -0.45593999997E+02  0.45594000000E+02  0.51100000000E-03 0. -1.
    9900012    2    1    2    0    0 -0.67858190820E+01  0.98320782381E+01  0.41724157523E+02  0.47787280834E+02  0.20000044635E+02 0.  0.
         12    1    1    2    0    0  0.67858190820E+01 -0.98320782381E+01 -0.41724157523E+02  0.43400719166E+02  0.00000000000E+00 0. -1.
         11    1    3    3    0    0 -0.52106355261E+00  0.16638925105E+01  0.78758042683E+00  0.19131985528E+01  0.51100000000E-03 0. -1.
        -11    1    3    3    0    0 -0.37807987591E+01  0.11898735459E+02  0.14830266855E+02  0.19385849479E+02  0.51100000000E-03 0.  1.
        -12    1    3    3    0    0 -0.24839567703E+01 -0.37305497318E+01  0.26106310242E+02  0.26488232802E+02  0.00000000000E+00 0.  1.
</event>
<event>
 7    1  0.2751796E-010  0.4778727E+02  0.7816164E-02  0.1312668E+00
        -11   -1    0    0    0    0  0.00000000000E+00  0.00000000000E+00  0.45593999997E+02  0.45594000000E+02  0.51100000000E-03 0.  1.
         11   -1    0    0    0    0 -0.00000000000E+00 -0.00000000000E+00 -0.45593999997E+02  0.45594000000E+02  0.51100000000E-03 0. -1.
    9900012    2    1    2    0    0  0.96956064654E+01 -0.54924783896E+01  0.41945814171E+02  0.47787269245E+02  0.19999991795E+02 0.  0.
         12    1    1    2    0    0 -0.96956064654E+01  0.54924783896E+01 -0.41945814171E+02  0.43400730755E+02  0.00000000000E+00 0. -1.
         11    1    3    3    0    0  0.32600759554E+01 -0.92951124326E+00  0.31203915286E+02  0.31387520065E+02  0.51100000000E-03 0.  1.
        -11    1    3    3    0    0  0.80836987881E+01 -0.59312680403E+01  0.99229367494E+01  0.14106409914E+02  0.51100000000E-03 0. -1.
        -12    1    3    3    0    0 -0.16481682781E+01  0.13683008940E+01  0.81896213543E+00  0.22933392659E+01  0.00000000000E+00 0.  1.
</event>
<event>
 7    1  0.2751796E-010  0.4778728E+02  0.7816164E-02  0.1312668E+00
        -11   -1    0    0    0    0  0.00000000000E+00  0.00000000000E+00  0.45593999997E+02  0.45594000000E+02  0.51100000000E-03 0.  1.
         11   -1    0    0    0    0 -0.00000000000E+00 -0.00000000000E+00 -0.45593999997E+02  0.45594000000E+02  0.51100000000E-03 0. -1.
    9900012    2    1    2    0    0  0.24723828276E+02  0.29503362251E+02  0.20047610811E+02  0.47787276873E+02  0.20000026574E+02 0.  0.
         12    1    1    2    0    0 -0.24723828276E+02 -0.29503362251E+02 -0.20047610811E+02  0.43400723127E+02  0.00000000000E+00 0. -1.
         11    1    3    3    0    0  0.17489830111E+02  0.24327746239E+02  0.92131281506E+01  0.31346692409E+02  0.51100000000E-03 0. -1.
        -11    1    3    3    0    0  0.51895684632E+01  0.72242844861E+01  0.57550917538E+01  0.10594479153E+02  0.51100000000E-03 0.  1.
         12    1    3    3    0    0  0.20444297020E+01 -0.20486684745E+01  0.50793909062E+01  0.58461053106E+01  0.00000000000E+00 0. -1.
</event>
<event>
 7    1  0.2751796E-010  0.4778727E+02  0.7816164E-02  0.1312668E+00
        -11   -1    0    0    0    0  0.00000000000E+00  0.00000000000E+00  0.45593999997E+02  0.45594000000E+02  0.51100000000E-03 0. -1.
         11   -1    0    0    0    0 -0.00000000000E+00 -0.00000000000E+00 -0.45593999997E+02  0.45594000000E+02  0.51100000000E-03 0.  1.
    9900012    2    1    2    0    0  0.37288690104E+02  0.95878191175E+01 -0.20031239379E+02  0.47787271479E+02  0.20000001979E+02 0.  0.
         12    1    1    2    0    0 -0.37288690104E+02 -0.95878191175E+01  0.20031239379E+02  0.43400728521E+02  0.00000000000E+00 0. -1.
         11    1    3    3    0    0  0.12292517402E+02  0.23811039774E+00 -0.10616177951E+02  0.16243950110E+02  0.51100000000E-03 0. -1.
        -11    1    3    3    0    0  0.16212814903E+02  0.76169423598E+01  0.83702091150E+00  0.17932478419E+02  0.51100000000E-03 0.  1.
        -12    1    3    3    0    0  0.87833578003E+01  0.17327663600E+01 -0.10252082339E+02  0.13610842949E+02  0.00000000000E+00 0.  1.
</event>
<event>
 7    1  0.2751796E-010  0.4778727E+02  0.7816164E-02  0.1312668E+00
        -11   -1    0    0    0    0  0.00000000000E+00  0.00000000000E+00  0.45593999997E+02  0.45594000000E+02  0.51100000000E-03 0. -1.
         11   -1    0    0    0    0 -0.00000000000E+00 -0.00000000000E+00 -0.45593999997E+02  0.45594000000E+02  0.51100000000E-03 0.  1.
    9900012    2    1    2    0    0 -0.76252605076E+01 -0.42704879456E+02  0.13310293117E+01  0.47787274589E+02  0.20000016160E+02 0.  0.
         12    1    1    2    0    0  0.76252605076E+01  0.42704879456E+02 -0.13310293117E+01  0.43400725411E+02  0.00000000000E+00 0. -1.
         11    1    3    3    0    0  0.12861856677E+01 -0.72013616217E+01 -0.60359962460E+01  0.94840462737E+01  0.51100000000E-03 0. -1.
        -11    1    3    3    0    0 -0.37287884277E+01 -0.40210340964E+01  0.25042055313E+01  0.60285673213E+01  0.51100000000E-03 0.  1.
         12    1    3    3    0    0 -0.51826577476E+01 -0.31482483738E+02  0.48628200264E+01  0.32274660994E+02  0.00000000000E+00 0. -1.
</event>
<event>
 7    1  0.2751796E-010  0.4778727E+02  0.7816164E-02  0.1312668E+00
        -11   -1    0    0    0    0  0.00000000000E+00  0.00000000000E+00  0.45593999997E+02  0.45594000000E+02  0.51100000000E-03 0.  1.
         11   -1    0    0    0    0 -0.00000000000E+00 -0.00000000000E+00 -0.45593999997E+02  0.45594000000E+02  0.51100000000E-03 0. -1.
    9900012    2    1    2    0    0  0.41854769037E+00  0.26998814885E+02  0.33978118169E+02  0.47787266116E+02  0.19999977527E+02 0.  0.
         12    1    1    2    0    0 -0.41854769037E+00 -0.26998814885E+02 -0.33978118169E+02  0.43400733884E+02  0.00000000000E+00 0. -1.
         11    1    3    3    0    0  0.38205734228E+01  0.45040474276E+01  0.11355985624E+02  0.12800063838E+02  0.51100000000E-03 0. -1.
        -11    1    3    3    0    0 -0.71926544643E+01  0.12310444819E+02  0.18518581666E+02  0.23371332804E+02  0.51100000000E-03 0.  1.
        -12    1    3    3    0    0  0.37906287319E+01  0.10184322639E+02  0.41035508798E+01  0.11615869473E+02  0.00000000000E+00 0.  1.
</event>
<event>
 7    1  0.2751796E-010  0.4778727E+02  0.7816164E-02  0.1312668E+00
        -11   -1    0    0    0    0  0.00000000000E+00  0.00000000000E+00  0.45593999997E+02  0.45594000000E+02  0.51100000000E-03 0.  1.
         11   -1    0    0    0    0 -0.00000000000E+00 -0.00000000000E+00 -0.45593999997E+02  0.45594000000E+02  0.51100000000E-03 0. -1.
    9900012    2    1    2    0    0 -0.35754774532E+02 -0.24592851449E+02 -0.64142458760E+00  0.47787266484E+02  0.19999979206E+02 0.  0.
         12    1    1    2    0    0  0.35754774532E+02  0.24592851449E+02  0.64142458760E+00  0.43400733516E+02  0.00000000000E+00 0. -1.
         11    1    3    3    0    0 -0.12155229517E+02 -0.10796606612E+02 -0.97105737862E+01  0.18937042072E+02  0.51100000000E-03 0. -1.
        -11    1    3    3    0    0 -0.10620837003E+02 -0.70124126487E+01  0.47092561462E+01  0.13570305948E+02  0.51100000000E-03 0.  1.
         12    1    3    3    0    0 -0.12978708012E+02 -0.67838321885E+01  0.43598930524E+01  0.15279918463E+02  0.00000000000E+00 0. -1.
</event>
<event>
 7    1  0.2751796E-010  0.4778727E+02  0.7816164E-02  0.1312668E+00
        -11   -1    0    0    0    0  0.00000000000E+00  0.00000000000E+00  0.45593999997E+02  0.45594000000E+02  0.51100000000E-03 0.  1.
         11   -1    0    0    0    0 -0.00000000000E+00 -0.00000000000E+00 -0.45593999997E+02  0.45594000000E+02  0.51100000000E-03 0. -1.
    9900012    2    1    2    0    0  0.78787964614E+01  0.18927246309E+02  0.38253197694E+02  0.47787271661E+02  0.20000002813E+02 0.  0.
         12    1    1    2    0    0 -0.78787964614E+01 -0.18927246309E+02 -0.38253197694E+02  0.43400728339E+02  0.00000000000E+00 0. -1.
         11    1    3    3    0    0 -0.24076704763E+01  0.79299050810E+01  0.99893088000E+01  0.12979466949E+02  0.51100000000E-03 0. -1.
        -11    1    3    3    0    0  0.97507082431E+01  0.16973276550E+01  0.20169350691E+02  0.22466863154E+02  0.51100000000E-03 0.  1.
        -12    1    3    3    0    0  0.53575869460E+00  0.93000135730E+01  0.80945382029E+01  0.12340941559E+02  0.00000000000E+00 0.  1.
</event>
<event>
 7    1  0.2751796E-010  0.4778727E+02  0.7816164E-02  0.1312668E+00
        -11   -1    0    0    0    0  0.00000000000E+00  0.00000000000E+00  0.45593999997E+02  0.45594000000E+02  0.51100000000E-03 0. -1.
         11   -1    0    0    0    0 -0.00000000000E+00 -0.00000000000E+00 -0.45593999997E+02  0.45594000000E+02  0.51100000000E-03 0.  1.
    9900012    2    1    2    0    0 -0.37627322607E+02 -0.48793536033E-01 -0.21628819960E+02  0.47787266824E+02  0.19999980759E+02 0.  0.
         12    1    1    2    0    0  0.37627322607E+02  0.48793536033E-01  0.21628819960E+02  0.43400733176E+02  0.00000000000E+00 0. -1.
         11    1    3    3    0    0 -0.31786062759E+01  0.55918440794E+01 -0.28992584893E+01  0.70553496097E+01  0.51100000000E-03 0. -1.
        -11    1    3    3    0    0 -0.28022345764E+02 -0.79373555666E+01 -0.13333064020E+02  0.32031610511E+02  0.51100000000E-03 0.  1.
        -12    1    3    3    0    0 -0.64263705663E+01  0.22967179511E+01 -0.53964974500E+01  0.87003067032E+01  0.00000000000E+00 0.  1.
</event>
<event>
 7    1  0.2751796E-010  0.4778727E+02  0.7816164E-02  0.1312668E+00
        -11   -1    0    0    0    0  0.00000000000E+00  0.00000000000E+00  0.45593999997E+02  0.45594000000E+02  0.51100000000E-03 0.  1.
         11   -1    0    0    0    0 -0.00000000000E+00 -0.00000000000E+00 -0.45593999997E+02  0.45594000000E+02  0.51100000000E-03 0. -1.
    9900012    2    1    2    0    0  0.83994766007E+01  0.28280200509E+02  0.31832408198E+02  0.47787272360E+02  0.20000005998E+02 0.  0.
         12    1    1    2    0    0 -0.83994766007E+01 -0.28280200509E+02 -0.31832408198E+02  0.43400727640E+02  0.00000000000E+00 0. -1.
         11    1    3    3    0    0  0.10515902434E+02  0.56662336594E+01  0.10705896618E+02  0.16040780235E+02  0.51100000000E-03 0.  1.
        -11    1    3    3    0    0 -0.36184960141E+01  0.61007742934E+01  0.69595069175E+01  0.99371875890E+01  0.51100000000E-03 0. -1.
         12    1    3    3    0    0  0.15020701805E+01  0.16513192556E+02  0.14167004662E+02  0.21809304536E+02  0.00000000000E+00 0. -1.
</event>
<event>
 7    1  0.2751796E-010  0.4778727E+02  0.7816164E-02  0.1312668E+00
        -11   -1    0    0    0    0  0.00000000000E+00  0.00000000000E+00  0.45593999997E+02  0.45594000000E+02  0.51100000000E-03 0.  1.
         11   -1    0    0    0    0 -0.00000000000E+00 -0.00000000000E+00 -0.45593999997E+02  0.45594000000E+02  0.51100000000E-03 0. -1.
    9900012    2    1    2    0    0 -0.84739777546E+00 -0.21469370972E+02  0.37709032670E+02  0.47787272842E+02  0.20000008196E+02 0.  0.
         12    1    1    2    0    0  0.84739777546E+00  0.21469370972E+02 -0.37709032670E+02  0.43400727158E+02  0.00000000000E+00 0. -1.
         11    1    3    3    0    0 -0.30977681647E+01 -0.12096476520E+02  0.58047520517E+01  0.13770114685E+02  0.51100000000E-03 0. -1.
        -11    1    3    3    0    0  0.18648501806E+01 -0.31463285584E+01  0.39834100094E+01  0.54078281368E+01  0.51100000000E-03 0.  1.
         12    1    3    3    0    0  0.38552020865E+00 -0.62265658945E+01  0.27920870609E+02  0.28609330020E+02  0.00000000000E+00 0. -1.
</event>
<event>
 7    1  0.2751796E-010  0.4778727E+02  0.7816164E-02  0.1312668E+00
        -11   -1    0    0    0    0  0.00000000000E+00  0.00000000000E+00  0.45593999997E+02  0.45594000000E+02  0.51100000000E-03 0.  1.
         11   -1    0    0    0    0 -0.00000000000E+00 -0.00000000000E+00 -0.45593999997E+02  0.45594000000E+02  0.51100000000E-03 0. -1.
    9900012    2    1    2    0    0 -0.39063853797E+01 -0.35315579548E+02  0.24923344054E+02  0.47787273227E+02  0.20000009952E+02 0.  0.
         12    1    1    2    0    0  0.39063853797E+01  0.35315579548E+02 -0.24923344054E+02  0.43400726773E+02  0.00000000000E+00 0. -1.
         11    1    3    3    0    0 -0.61840381239E+01 -0.26328250741E+01  0.26503868126E+01  0.72248630371E+01  0.51100000000E-03 0. -1.
        -11    1    3    3    0    0 -0.26653297750E+01 -0.15910089546E+02  0.13306349194E+02  0.20911572425E+02  0.51100000000E-03 0.  1.
         12    1    3    3    0    0  0.49429825192E+01 -0.16772664928E+02  0.89666080481E+01  0.19650837765E+02  0.00000000000E+00 0. -1.
</event>
<event>
 7    1  0.2751796E-010  0.4778727E+02  0.7816164E-02  0.1312668E+00
        -11   -1    0    0    0    0  0.00000000000E+00  0.00000000000E+00  0.45593999997E+02  0.45594000000E+02  0.51100000000E-03 0. -1.
         11   -1    0    0    0    0 -0.00000000000E+00 -0.00000000000E+00 -0.45593999997E+02  0.45594000000E+02  0.51100000000E-03 0.  1.
    9900012    2    1    2    0    0 -0.95347427678E+01 -0.39707522442E+02  0.14697789515E+02  0.47787266426E+02  0.19999978942E+02 0.  0.
         12    1    1    2    0    0  0.95347427678E+01  0.39707522442E+02 -0.14697789515E+02  0.43400733574E+02  0.00000000000E+00 0. -1.
         11    1    3    3    0    0 -0.55638679942E+01 -0.22143634608E+02  0.70533604211E+01  0.23896591267E+02  0.51100000000E-03 0. -1.
        -11    1    3    3    0    0  0.29386317968E+01 -0.35290910775E+01  0.68244639953E+01  0.82257735049E+01  0.51100000000E-03 0.  1.
        -12    1    3    3    0    0 -0.69095065704E+01 -0.14034796757E+02  0.81996509828E+00  0.15664901654E+02  0.00000000000E+00 0.  1.
</event>
<event>
 7    1  0.2751796E-010  0.4778727E+02  0.7816164E-02  0.1312668E+00
        -11   -1    0    0    0    0  0.00000000000E+00  0.00000000000E+00  0.45593999997E+02  0.45594000000E+02  0.51100000000E-03 0.  1.
         11   -1    0    0    0    0 -0.00000000000E+00 -0.00000000000E+00 -0.45593999997E+02  0.45594000000E+02  0.51100000000E-03 0. -1.
    9900012    2    1    2    0    0  0.17364705929E+02  0.22725820698E+02  0.32643944152E+02  0.47787273875E+02  0.20000012905E+02 0.  0.
         12    1    1    2    0    0 -0.17364705929E+02 -0.22725820698E+02 -0.32643944152E+02  0.43400726125E+02  0.00000000000E+00 0. -1.
         11    1    3    3    0    0 -0.20664272578E+01  0.94757400837E+01  0.53777341978E+01  0.11089625652E+02  0.51100000000E-03 0. -1.
        -11    1    3    3    0    0  0.12720089312E+02  0.12017935467E+02  0.21800541433E+02  0.27955232999E+02  0.51100000000E-03 0.  1.
         12    1    3    3    0    0  0.67110438747E+01  0.12321451466E+01  0.54656685211E+01  0.87424152231E+01  0.00000000000E+00 0. -1.
</event>
<event>
 7    1  0.2751796E-010  0.4778728E+02  0.7816164E-02  0.1312668E+00
        -11   -1    0    0    0    0  0.00000000000E+00  0.00000000000E+00  0.45593999997E+02  0.45594000000E+02  0.51100000000E-03 0.  1.
         11   -1    0    0    0    0 -0.00000000000E+00 -0.00000000000E+00 -0.45593999997E+02  0.45594000000E+02  0.51100000000E-03 0. -1.
    9900012    2    1    2    0    0 -0.11078212951E+02 -0.19221247358E+02  0.37302005659E+02  0.47787276753E+02  0.20000026027E+02 0.  0.
         12    1    1    2    0    0  0.11078212951E+02  0.19221247358E+02 -0.37302005659E+02  0.43400723247E+02  0.00000000000E+00 0. -1.
         11    1    3    3    0    0 -0.91468562827E+00 -0.14057894417E+02  0.87659739664E+01  0.16592267629E+02  0.51100000000E-03 0. -1.
        -11    1    3    3    0    0 -0.78295556710E+01 -0.42288046695E+01  0.15109798859E+02  0.17535414245E+02  0.51100000000E-03 0.  1.
         12    1    3    3    0    0 -0.23339716522E+01 -0.93454827167E+00  0.13426232834E+02  0.13659594879E+02  0.00000000000E+00 0. -1.
</event>
<event>
 7    1  0.2751796E-010  0.4778727E+02  0.7816164E-02  0.1312668E+00
        -11   -1    0    0    0    0  0.00000000000E+00  0.00000000000E+00  0.45593999997E+02  0.45594000000E+02  0.51100000000E-03 0.  1.
         11   -1    0    0    0    0 -0.00000000000E+00 -0.00000000000E+00 -0.45593999997E+02  0.45594000000E+02  0.51100000000E-03 0. -1.
    9900012    2    1    2    0    0  0.91991422624E+01 -0.16703058373E+02  0.38987265007E+02  0.47787271779E+02  0.20000003349E+02 0.  0.
         12    1    1    2    0    0 -0.91991422624E+01  0.16703058373E+02 -0.38987265007E+02  0.43400728221E+02  0.00000000000E+00 0. -1.
         11    1    3    3    0    0  0.69277047398E+01 -0.10589101436E+02  0.16948066852E+02  0.21150865998E+02  0.51100000000E-03 0. -1.
        -11    1    3    3    0    0  0.72659768557E+01 -0.62612229819E+01  0.17124860206E+02  0.19627994554E+02  0.51100000000E-03 0.  1.
         12    1    3    3    0    0 -0.49945393331E+01  0.14726604507E+00  0.49143379499E+01  0.70084112268E+01  0.00000000000E+00 0. -1.
</event>
<event>
 7    1  0.2751796E-010  0.4778727E+02  0.7816164E-02  0.1312668E+00
        -11   -1    0    0    0    0  0.00000000000E+00  0.00000000000E+00  0.45593999997E+02  0.45594000000E+02  0.51100000000E-03 0.  1.
         11   -1    0    0    0    0 -0.00000000000E+00 -0.00000000000E+00 -0.45593999997E+02  0.45594000000E+02  0.51100000000E-03 0. -1.
    9900012    2    1    2    0    0 -0.10240324635E+02  0.68144310042E+01  0.41621175222E+02  0.47787274829E+02  0.20000017255E+02 0.  0.
         12    1    1    2    0    0  0.10240324635E+02 -0.68144310042E+01 -0.41621175222E+02  0.43400725171E+02  0.00000000000E+00 0. -1.
         11    1    3    3    0    0 -0.72257003238E+00  0.88961334831E+01  0.20841689392E+02  0.22672435145E+02  0.51100000000E-03 0. -1.
        -11    1    3    3    0    0 -0.87252994231E+01  0.53825395018E+00  0.73855437718E+01  0.11444073768E+02  0.51100000000E-03 0.  1.
         12    1    3    3    0    0 -0.79245517960E+00 -0.26199564291E+01  0.13393942057E+02  0.13670765916E+02  0.00000000000E+00 0. -1.
</event>
<event>
 7    1  0.2751796E-010  0.4778725E+02  0.7816164E-02  0.1312668E+00
        -11   -1    0    0    0    0  0.00000000000E+00  0.00000000000E+00  0.45593999997E+02  0.45594000000E+02  0.51100000000E-03 0. -1.
         11   -1    0    0    0    0 -0.00000000000E+00 -0.00000000000E+00 -0.45593999997E+02  0.45594000000E+02  0.51100000000E-03 0.  1.
    9900012    2    1    2    0    0 -0.40663425836E+02  0.11173745742E+02  0.10259527716E+02  0.47787254573E+02  0.19999924900E+02 0.  0.
         12    1    1    2    0    0  0.40663425836E+02 -0.11173745742E+02 -0.10259527716E+02  0.43400745427E+02  0.00000000000E+00 0. -1.
         11    1    3    3    0    0 -0.20739491034E+02 -0.17899184537E+01  0.17822211467E+01  0.20892740579E+02  0.51100000000E-03 0. -1.
        -11    1    3    3    0    0 -0.24949553763E+01  0.63597011828E+01  0.30554371864E+01  0.74837355730E+01  0.51100000000E-03 0.  1.
        -12    1    3    3    0    0 -0.17428979426E+02  0.66039630131E+01  0.54218693832E+01  0.19410778421E+02  0.00000000000E+00 0.  1.
</event>
<event>
 7    1  0.2751796E-010  0.4778728E+02  0.7816164E-02  0.1312668E+00
        -11   -1    0    0    0    0  0.00000000000E+00  0.00000000000E+00  0.45593999997E+02  0.45594000000E+02  0.51100000000E-03 0. -1.
         11   -1    0    0    0    0 -0.00000000000E+00 -0.00000000000E+00 -0.45593999997E+02  0.45594000000E+02  0.51100000000E-03 0.  1.
    9900012    2    1    2    0    0  0.27329332263E+02 -0.17911409304E+02 -0.28564163979E+02  0.47787280547E+02  0.20000043325E+02 0.  0.
         12    1    1    2    0    0 -0.27329332263E+02  0.17911409304E+02  0.28564163979E+02  0.43400719453E+02  0.00000000000E+00 0. -1.
         11    1    3    3    0    0  0.10389995140E+02 -0.16880043836E+02 -0.16173035126E+02  0.25582317024E+02  0.51100000000E-03 0. -1.
        -11    1    3    3    0    0  0.16257082166E+02  0.93422382760E+00 -0.11532908929E+02  0.19954284836E+02  0.51100000000E-03 0.  1.
        -12    1    3    3    0    0  0.68225495705E+00 -0.19655892962E+01 -0.85821992516E+00  0.22506786860E+01  0.00000000000E+00 0.  1.
</event>
<event>
 7    1  0.2751796E-010  0.4778727E+02  0.7816164E-02  0.1312668E+00
        -11   -1    0    0    0    0  0.00000000000E+00  0.00000000000E+00  0.45593999997E+02  0.45594000000E+02  0.51100000000E-03 0.  1.
         11   -1    0    0    0    0 -0.00000000000E+00 -0.00000000000E+00 -0.45593999997E+02  0.45594000000E+02  0.51100000000E-03 0. -1.
    9900012    2    1    2    0    0 -0.42876973930E+02 -0.26537651813E+01  0.61762691384E+01  0.47787266555E+02  0.19999979532E+02 0.  0.
         12    1    1    2    0    0  0.42876973930E+02  0.26537651813E+01 -0.61762691384E+01  0.43400733445E+02  0.00000000000E+00 0. -1.
         11    1    3    3    0    0  0.32788424243E+00 -0.26544909403E+01  0.23574005798E+01  0.35652724977E+01  0.51100000000E-03 0. -1.
        -11    1    3    3    0    0 -0.10250542909E+02 -0.36878562177E+01  0.11646060337E+01  0.10955830452E+02  0.51100000000E-03 0.  1.
         12    1    3    3    0    0 -0.32954315263E+02  0.36885819766E+01  0.26542625249E+01  0.33266163605E+02  0.00000000000E+00 0. -1.
</event>
<event>
 7    1  0.2751796E-010  0.4778727E+02  0.7816164E-02  0.1312668E+00
        -11   -1    0    0    0    0  0.00000000000E+00  0.00000000000E+00  0.45593999997E+02  0.45594000000E+02  0.51100000000E-03 0.  1.
         11   -1    0    0    0    0 -0.00000000000E+00 -0.00000000000E+00 -0.45593999997E+02  0.45594000000E+02  0.51100000000E-03 0. -1.
    9900012    2    1    2    0    0  0.28589220615E+02 -0.63530611485E+01  0.32029963175E+02  0.47787268873E+02  0.19999990100E+02 0.  0.
         12    1    1    2    0    0 -0.28589220615E+02  0.63530611485E+01 -0.32029963175E+02  0.43400731127E+02  0.00000000000E+00 0. -1.
         11    1    3    3    0    0  0.91657086378E+01 -0.10114892668E+02  0.15571690529E+02  0.20707457949E+02  0.51100000000E-03 0.  1.
        -11    1    3    3    0    0  0.60413981911E+01  0.17358330949E+01  0.10617558958E+02  0.12338726317E+02  0.51100000000E-03 0. -1.
         12    1    3    3    0    0  0.13382113786E+02  0.20259984248E+01  0.58407136886E+01  0.14741084607E+02  0.00000000000E+00 0. -1.
</event>
<event>
 7    1  0.2751796E-010  0.4778726E+02  0.7816164E-02  0.1312668E+00
        -11   -1    0    0    0    0  0.00000000000E+00  0.00000000000E+00  0.45593999997E+02  0.45594000000E+02  0.51100000000E-03 0. -1.
         11   -1    0    0    0    0 -0.00000000000E+00 -0.00000000000E+00 -0.45593999997E+02  0.45594000000E+02  0.51100000000E-03 0.  1.
    9900012    2    1    2    0    0  0.18188801716E+02  0.46140349962E+01 -0.39134410209E+02  0.47787263955E+02  0.19999967677E+02 0.  0.
         12    1    1    2    0    0 -0.18188801716E+02 -0.46140349962E+01  0.39134410209E+02  0.43400736045E+02  0.00000000000E+00 0. -1.
         11    1    3    3    0    0  0.17337822052E+02  0.13997276815E+01 -0.15069975839E+02  0.23014419027E+02  0.51100000000E-03 0. -1.
        -11    1    3    3    0    0  0.23636896397E+01  0.61352750124E+00 -0.63245747012E+01  0.67796526548E+01  0.51100000000E-03 0.  1.
         12    1    3    3    0    0 -0.15127099757E+01  0.26007798134E+01 -0.17739859669E+02  0.17993192273E+02  0.00000000000E+00 0. -1.
</event>
<event>
 7    1  0.2751796E-010  0.4778727E+02  0.7816164E-02  0.1312668E+00
        -11   -1    0    0    0    0  0.00000000000E+00  0.00000000000E+00  0.45593999997E+02  0.45594000000E+02  0.51100000000E-03 0.  1.
         11   -1    0    0    0    0 -0.00000000000E+00 -0.00000000000E+00 -0.45593999997E+02  0.45594000000E+02  0.51100000000E-03 0. -1.
    9900012    2    1    2    0    0 -0.42769797318E+02  0.20198139668E+01  0.70913948741E+01  0.47787273136E+02  0.20000009534E+02 0.  0.
         12    1    1    2    0    0  0.42769797318E+02 -0.20198139668E+01 -0.70913948741E+01  0.43400726864E+02  0.00000000000E+00 0. -1.
         11    1    3    3    0    0 -0.68780136975E+01 -0.44310529603E+01  0.13462030348E+01  0.82917769888E+01  0.51100000000E-03 0. -1.
        -11    1    3    3    0    0 -0.24535166654E+02  0.92474143592E+01  0.83415362964E+01  0.27514910560E+02  0.51100000000E-03 0.  1.
        -12    1    3    3    0    0 -0.11356616966E+02 -0.27965474320E+01 -0.25963444571E+01  0.11980585587E+02  0.00000000000E+00 0.  1.
</event>
<event>
 7    1  0.2751796E-010  0.4778727E+02  0.7816164E-02  0.1312668E+00
        -11   -1    0    0    0    0  0.00000000000E+00  0.00000000000E+00  0.45593999997E+02  0.45594000000E+02  0.51100000000E-03 0.  1.
         11   -1    0    0    0    0 -0.00000000000E+00 -0.00000000000E+00 -0.45593999997E+02  0.45594000000E+02  0.51100000000E-03 0. -1.
    9900012    2    1    2    0    0  0.27484671858E+02  0.33446584922E+02 -0.30889736844E+01  0.47787274332E+02  0.20000014990E+02 0.  0.
         12    1    1    2    0    0 -0.27484671858E+02 -0.33446584922E+02  0.30889736844E+01  0.43400725668E+02  0.00000000000E+00 0. -1.
         11    1    3    3    0    0  0.64898136636E+01  0.21797759848E+02 -0.23860825396E+01  0.22868174521E+02  0.51100000000E-03 0. -1.
        -11    1    3    3    0    0  0.18381198099E+02  0.12406355494E+02 -0.38727858859E+00  0.22179632215E+02  0.51100000000E-03 0.  1.
         12    1    3    3    0    0  0.26136600949E+01 -0.75753041944E+00 -0.31561255621E+00  0.27394675968E+01  0.00000000000E+00 0. -1.
</event>
<event>
 7    1  0.2751796E-010  0.4778727E+02  0.7816164E-02  0.1312668E+00
        -11   -1    0    0    0    0  0.00000000000E+00  0.00000000000E+00  0.45593999997E+02  0.45594000000E+02  0.51100000000E-03 0.  1.
         11   -1    0    0    0    0 -0.00000000000E+00 -0.00000000000E+00 -0.45593999997E+02  0.45594000000E+02  0.51100000000E-03 0. -1.
    9900012    2    1    2    0    0  0.27280094446E+02  0.19757816443E+01  0.33697421089E+02  0.47787268968E+02  0.19999990532E+02 0.  0.
         12    1    1    2    0    0 -0.27280094446E+02 -0.19757816443E+01 -0.33697421089E+02  0.43400731032E+02  0.00000000000E+00 0. -1.
         11    1    3    3    0    0  0.15054857166E+01  0.30018830808E+01 -0.11211793121E+01  0.35404565503E+01  0.51100000000E-03 0. -1.
        -11    1    3    3    0    0  0.79481247377E+01  0.12738061656E+01  0.17611726916E+02  0.19364095491E+02  0.51100000000E-03 0.  1.
         12    1    3    3    0    0  0.17826483992E+02 -0.22999076021E+01  0.17206873485E+02  0.24882716926E+02  0.00000000000E+00 0. -1.
</event>
<event>
 7    1  0.2751796E-010  0.4778727E+02  0.7816164E-02  0.1312668E+00
        -11   -1    0    0    0    0  0.00000000000E+00  0.00000000000E+00  0.45593999997E+02  0.45594000000E+02  0.51100000000E-03 0. -1.
         11   -1    0    0    0    0 -0.00000000000E+00 -0.00000000000E+00 -0.45593999997E+02  0.45594000000E+02  0.51100000000E-03 0.  1.
    9900012    2    1    2    0    0 -0.16643605091E+02  0.33013506702E+02 -0.22731522457E+02  0.47787270416E+02  0.19999997136E+02 0.  0.
         12    1    1    2    0    0  0.16643605091E+02 -0.33013506702E+02  0.22731522457E+02  0.43400729584E+02  0.00000000000E+00 0. -1.
         11    1    3    3    0    0 -0.61565789083E+01  0.42851520473E-01 -0.15102528875E+01  0.63392558043E+01  0.51100000000E-03 0. -1.
        -11    1    3    3    0    0 -0.52644780146E+01  0.26601343327E+02 -0.14122308661E+02  0.30574266921E+02  0.51100000000E-03 0.  1.
         12    1    3    3    0    0 -0.52225481685E+01  0.63693118547E+01 -0.70989609085E+01  0.10873747691E+02  0.00000000000E+00 0. -1.
</event>
<event>
 7    1  0.2751796E-010  0.4778727E+02  0.7816164E-02  0.1312668E+00
        -11   -1    0    0    0    0  0.00000000000E+00  0.00000000000E+00  0.45593999997E+02  0.45594000000E+02  0.51100000000E-03 0.  1.
         11   -1    0    0    0    0 -0.00000000000E+00 -0.00000000000E+00 -0.45593999997E+02  0.45594000000E+02  0.51100000000E-03 0. -1.
    9900012    2    1    2    0    0 -0.26769162725E+02  0.33031942377E+02  0.87135553910E+01  0.47787270309E+02  0.19999996645E+02 0.  0.
         12    1    1    2    0    0  0.26769162725E+02 -0.33031942377E+02 -0.87135553910E+01  0.43400729691E+02  0.00000000000E+00 0. -1.
         11    1    3    3    0    0 -0.16420906746E+02  0.25627446296E+02  0.76382215353E+00  0.30446602545E+02  0.51100000000E-03 0. -1.
        -11    1    3    3    0    0 -0.88935748790E+01  0.38678103891E+01  0.91492075734E+01  0.13332802812E+02  0.51100000000E-03 0.  1.
        -12    1    3    3    0    0 -0.14546810992E+01  0.35366856923E+01 -0.11994743359E+01  0.40078649515E+01  0.00000000000E+00 0.  1.
</event>
<event>
 7    1  0.2751796E-010  0.4778730E+02  0.7816164E-02  0.1312668E+00
        -11   -1    0    0    0    0  0.00000000000E+00  0.00000000000E+00  0.45593999997E+02  0.45594000000E+02  0.51100000000E-03 0. -1.
         11   -1    0    0    0    0 -0.00000000000E+00 -0.00000000000E+00 -0.45593999997E+02  0.45594000000E+02  0.51100000000E-03 0.  1.
    9900012    2    1    2    0    0  0.11697351495E+01 -0.37854765013E+02  0.21195971666E+02  0.47787300359E+02  0.20000133655E+02 0.  0.
         12    1    1    2    0    0 -0.11697351495E+01  0.37854765013E+02 -0.21195971666E+02  0.43400699641E+02  0.00000000000E+00 0. -1.
         11    1    3    3    0    0 -0.55680452215E+01 -0.82712165846E+01  0.12485869027E+02  0.15978519237E+02  0.51100000000E-03 0. -1.
        -11    1    3    3    0    0  0.19986612380E+01 -0.11681630431E+02  0.15418851435E+01  0.11951257102E+02  0.51100000000E-03 0.  1.
         12    1    3    3    0    0  0.47391191329E+01 -0.17901917997E+02  0.71682174960E+01  0.19857524020E+02  0.00000000000E+00 0. -1.
</event>
<event>
 7    1  0.2751796E-010  0.4778727E+02  0.7816164E-02  0.1312668E+00
        -11   -1    0    0    0    0  0.00000000000E+00  0.00000000000E+00  0.45593999997E+02  0.45594000000E+02  0.51100000000E-03 0. -1.
         11   -1    0    0    0    0 -0.00000000000E+00 -0.00000000000E+00 -0.45593999997E+02  0.45594000000E+02  0.51100000000E-03 0.  1.
    9900012    2    1    2    0    0 -0.41186698776E+02 -0.12330694710E+02 -0.59357673250E+01  0.47787268188E+02  0.19999986975E+02 0.  0.
         12    1    1    2    0    0  0.41186698776E+02  0.12330694710E+02  0.59357673250E+01  0.43400731812E+02  0.00000000000E+00 0. -1.
         11    1    3    3    0    0 -0.46400217549E+01 -0.27929940199E+01  0.25635754066E+00  0.54218388883E+01  0.51100000000E-03 0. -1.
        -11    1    3    3    0    0 -0.36505757440E+02 -0.46918801064E+01 -0.39230729135E+01  0.37014518321E+02  0.51100000000E-03 0.  1.
        -12    1    3    3    0    0 -0.40919581757E-01 -0.48458205833E+01 -0.22690519521E+01  0.53509109784E+01  0.00000000000E+00 0.  1.
</event>
<event>
 7    1  0.2751796E-010  0.4778727E+02  0.7816164E-02  0.1312668E+00
        -11   -1    0    0    0    0  0.00000000000E+00  0.00000000000E+00  0.45593999997E+02  0.45594000000E+02  0.51100000000E-03 0. -1.
         11   -1    0    0    0    0 -0.00000000000E+00 -0.00000000000E+00 -0.45593999997E+02  0.45594000000E+02  0.51100000000E-03 0.  1.
    9900012    2    1    2    0    0 -0.41598112324E+02 -0.12073361206E+02  0.27302210048E+01  0.47787272973E+02  0.20000008792E+02 0.  0.
         12    1    1    2    0    0  0.41598112324E+02  0.12073361206E+02 -0.27302210048E+01  0.43400727027E+02  0.00000000000E+00 0. -1.
         11    1    3    3    0    0 -0.61974308621E+01 -0.13898941466E+01  0.58878059554E+01  0.86606128109E+01  0.51100000000E-03 0. -1.
        -11    1    3    3    0    0 -0.31810511541E+02 -0.52568668057E+01 -0.95099106446E+00  0.32255971190E+02  0.51100000000E-03 0.  1.
        -12    1    3    3    0    0 -0.35901699207E+01 -0.54266002536E+01 -0.22065938862E+01  0.68706889720E+01  0.00000000000E+00 0.  1.
</event>
<event>
 7    1  0.2751796E-010  0.4778728E+02  0.7816164E-02  0.1312668E+00
        -11   -1    0    0    0    0  0.00000000000E+00  0.00000000000E+00  0.45593999997E+02  0.45594000000E+02  0.51100000000E-03 0.  1.
         11   -1    0    0    0    0 -0.00000000000E+00 -0.00000000000E+00 -0.45593999997E+02  0.45594000000E+02  0.51100000000E-03 0. -1.
    9900012    2    1    2    0    0 -0.36693950903E+02  0.20833969514E+02  0.10154913168E+02  0.47787279038E+02  0.20000036444E+02 0.  0.
         12    1    1    2    0    0  0.36693950903E+02 -0.20833969514E+02 -0.10154913168E+02  0.43400720962E+02  0.00000000000E+00 0. -1.
         11    1    3    3    0    0 -0.85894911361E+01  0.51686295326E+01  0.17232562819E+01  0.10171710854E+02  0.51100000000E-03 0. -1.
        -11    1    3    3    0    0 -0.13284963628E+02  0.16762044643E+02  0.77188922466E+01  0.22738462943E+02  0.51100000000E-03 0.  1.
        -12    1    3    3    0    0 -0.14819496139E+02 -0.10967046612E+01  0.71276463922E+00  0.14877105241E+02  0.00000000000E+00 0.  1.
</event>
<event>
 7    1  0.2751796E-010  0.4778726E+02  0.7816164E-02  0.1312668E+00
        -11   -1    0    0    0    0  0.00000000000E+00  0.00000000000E+00  0.45593999997E+02  0.45594000000E+02  0.51100000000E-03 0. -1.
         11   -1    0    0    0    0 -0.00000000000E+00 -0.00000000000E+00 -0.45593999997E+02  0.45594000000E+02  0.51100000000E-03 0.  1.
    9900012    2    1    2    0    0  0.41431198442E+02 -0.73197816702E+01 -0.10653657283E+02  0.47787264735E+02  0.19999971234E+02 0.  0.
         12    1    1    2    0    0 -0.41431198442E+02  0.73197816702E+01  0.10653657283E+02  0.43400735265E+02  0.00000000000E+00 0. -1.
         11    1    3    3    0    0  0.17755600537E+02  0.47136446603E+01 -0.13291231164E+01  0.18418641778E+02  0.51100000000E-03 0. -1.
        -11    1    3    3    0    0  0.21169073950E+02 -0.10621532090E+02 -0.10918328012E+02  0.26079810633E+02  0.51100000000E-03 0.  1.
        -12    1    3    3    0    0  0.25065239548E+01 -0.14118942408E+01  0.15937938452E+01  0.32888123242E+01  0.00000000000E+00 0.  1.
</event>
<event>
 7    1  0.2751796E-010  0.4778727E+02  0.7816164E-02  0.1312668E+00
        -11   -1    0    0    0    0  0.00000000000E+00  0.00000000000E+00  0.45593999997E+02  0.45594000000E+02  0.51100000000E-03 0.  1.
         11   -1    0    0    0    0 -0.00000000000E+00 -0.00000000000E+00 -0.45593999997E+02  0.45594000000E+02  0.51100000000E-03 0. -1.
    9900012    2    1    2    0    0 -0.25064443121E+02 -0.54778949511E+01  0.35005567442E+02  0.47787269661E+02  0.19999993691E+02 0.  0.
         12    1    1    2    0    0  0.25064443121E+02  0.54778949511E+01 -0.35005567442E+02  0.43400730339E+02  0.00000000000E+00 0. -1.
         11    1    3    3    0    0 -0.20281119720E+02 -0.84418736968E+01  0.18221194541E+02  0.28541215451E+02  0.51100000000E-03 0. -1.
        -11    1    3    3    0    0  0.18074922730E+01 -0.56162647982E+00  0.42469199315E+01  0.46496001748E+01  0.51100000000E-03 0.  1.
         12    1    3    3    0    0 -0.65908156738E+01  0.35256052256E+01  0.12537452969E+02  0.14596454035E+02  0.00000000000E+00 0. -1.
</event>
<event>
 7    1  0.2751796E-010  0.4778726E+02  0.7816164E-02  0.1312668E+00
        -11   -1    0    0    0    0  0.00000000000E+00  0.00000000000E+00  0.45593999997E+02  0.45594000000E+02  0.51100000000E-03 0.  1.
         11   -1    0    0    0    0 -0.00000000000E+00 -0.00000000000E+00 -0.45593999997E+02  0.45594000000E+02  0.51100000000E-03 0. -1.
    9900012    2    1    2    0    0  0.19204622167E+02  0.92194088462E+01  0.37812821407E+02  0.47787257209E+02  0.19999936918E+02 0.  0.
         12    1    1    2    0    0 -0.19204622167E+02 -0.92194088462E+01 -0.37812821407E+02  0.43400742791E+02  0.00000000000E+00 0. -1.
         11    1    3    3    0    0  0.44318255269E+01  0.12844563006E+01  0.12480139182E+02  0.13305817515E+02  0.51100000000E-03 0. -1.
        -11    1    3    3    0    0 -0.34511109775E+00  0.81212759540E+01  0.10734935717E+02  0.13465254172E+02  0.51100000000E-03 0.  1.
        -12    1    3    3    0    0  0.15117907738E+02 -0.18632340844E+00  0.14597746508E+02  0.21016185522E+02  0.00000000000E+00 0.  1.
</event>
<event>
 7    1  0.2751796E-010  0.4778727E+02  0.7816164E-02  0.1312668E+00
        -11   -1    0    0    0    0  0.00000000000E+00  0.00000000000E+00  0.45593999997E+02  0.45594000000E+02  0.51100000000E-03 0. -1.
         11   -1    0    0    0    0 -0.00000000000E+00 -0.00000000000E+00 -0.45593999997E+02  0.45594000000E+02  0.51100000000E-03 0.  1.
    9900012    2    1    2    0    0  0.11383879868E+02  0.37473790363E+02  0.18701495239E+02  0.47787267181E+02  0.19999982387E+02 0.  0.
         12    1    1    2    0    0 -0.11383879868E+02 -0.37473790363E+02 -0.18701495239E+02  0.43400732819E+02  0.00000000000E+00 0. -1.
         11    1    3    3    0    0 -0.14292902072E+01  0.21896990533E+01  0.22187687047E+01  0.34293712640E+01  0.51100000000E-03 0. -1.
        -11    1    3    3    0    0  0.65908438669E+01  0.16055158297E+02 -0.13458556842E+01  0.17407431131E+02  0.51100000000E-03 0.  1.
        -12    1    3    3    0    0  0.62223262088E+01  0.19228933013E+02  0.17828582218E+02  0.26950464786E+02  0.00000000000E+00 0.  1.
</event>
<event>
 7    1  0.2751796E-010  0.4778727E+02  0.7816164E-02  0.1312668E+00
        -11   -1    0    0    0    0  0.00000000000E+00  0.00000000000E+00  0.45593999997E+02  0.45594000000E+02  0.51100000000E-03 0. -1.
         11   -1    0    0    0    0 -0.00000000000E+00 -0.00000000000E+00 -0.45593999997E+02  0.45594000000E+02  0.51100000000E-03 0.  1.
    9900012    2    1    2    0    0  0.28304535877E+02  0.31281545289E+02  0.10195169176E+02  0.47787270728E+02  0.19999998556E+02 0.  0.
         12    1    1    2    0    0 -0.28304535877E+02 -0.31281545289E+02 -0.10195169176E+02  0.43400729272E+02  0.00000000000E+00 0. -1.
         11    1    3    3    0    0  0.17062316690E+02  0.21886030308E+02  0.68163937573E+01  0.28575937387E+02  0.51100000000E-03 0. -1.
        -11    1    3    3    0    0  0.71156795937E+01  0.42206562523E+00  0.56274284198E+01  0.90817942255E+01  0.51100000000E-03 0.  1.
         12    1    3    3    0    0  0.41265395931E+01  0.89734493558E+01 -0.22486530015E+01  0.10129539115E+02  0.00000000000E+00 0. -1.
</event>
<event>
 7    1  0.2751796E-010  0.4778727E+02  0.7816164E-02  0.1312668E+00
        -11   -1    0    0    0    0  0.00000000000E+00  0.00000000000E+00  0.45593999997E+02  0.45594000000E+02  0.51100000000E-03 0.  1.
         11   -1    0    0    0    0 -0.00000000000E+00 -0.00000000000E+00 -0.45593999997E+02  0.45594000000E+02  0.51100000000E-03 0. -1.
    9900012    2    1    2    0    0  0.11062071602E+02 -0.34396621350E+02  0.24044260348E+02  0.47787269083E+02  0.19999991058E+02 0.  0.
         12    1    1    2    0    0 -0.11062071602E+02  0.34396621350E+02 -0.24044260348E+02  0.43400730917E+02  0.00000000000E+00 0. -1.
         11    1    3    3    0    0  0.26528440812E+01 -0.97284124802E+01  0.56489373620E+00  0.10099440395E+02  0.51100000000E-03 0. -1.
        -11    1    3    3    0    0 -0.10907255372E+01 -0.98173808733E+01  0.15399053656E+02  0.18294849088E+02  0.51100000000E-03 0.  1.
        -12    1    3    3    0    0  0.94999530577E+01 -0.14850827997E+02  0.80803129559E+01  0.19392979600E+02  0.00000000000E+00 0.  1.
</event>
<event>
 7    1  0.3192413E-010  0.4778727E+02  0.7816164E-02  0.1312668E+00
        -11   -1    0    0    0    0  0.00000000000E+00  0.00000000000E+00  0.45593999997E+02  0.45594000000E+02  0.51100000000E-03 0.  1.
         11   -1    0    0    0    0 -0.00000000000E+00 -0.00000000000E+00 -0.45593999997E+02  0.45594000000E+02  0.51100000000E-03 0. -1.
    9900012    2    1    2    0    0 -0.32861431779E+02 -0.97159121164E+01  0.26633636218E+02  0.47787271607E+02  0.20000002567E+02 0.  0.
         12    1    1    2    0    0  0.32861431779E+02  0.97159121164E+01 -0.26633636218E+02  0.43400728393E+02  0.00000000000E+00 0. -1.
         11    1    3    3    0    0  0.24694081025E+01 -0.32283377847E+00  0.77408623640E+00  0.26079508791E+01  0.51100000000E-03 0. -1.
        -11    1    3    3    0    0 -0.15791582700E+02 -0.66383219473E+01  0.14269303637E+02  0.22294717513E+02  0.51100000000E-03 0.  1.
         12    1    3    3    0    0 -0.19539257182E+02 -0.27547563906E+01  0.11590246345E+02  0.22884603215E+02  0.00000000000E+00 0. -1.
</event>
<event>
 7    1  0.2751796E-010  0.4778725E+02  0.7816164E-02  0.1312668E+00
        -11   -1    0    0    0    0  0.00000000000E+00  0.00000000000E+00  0.45593999997E+02  0.45594000000E+02  0.51100000000E-03 0.  1.
         11   -1    0    0    0    0 -0.00000000000E+00 -0.00000000000E+00 -0.45593999997E+02  0.45594000000E+02  0.51100000000E-03 0. -1.
    9900012    2    1    2    0    0 -0.29911960222E+01 -0.14841706092E+02  0.40674340969E+02  0.47787245322E+02  0.19999882720E+02 0.  0.
         12    1    1    2    0    0  0.29911960222E+01  0.14841706092E+02 -0.40674340969E+02  0.43400754678E+02  0.00000000000E+00 0. -1.
         11    1    3    3    0    0  0.50018332784E+01 -0.42498584143E+01  0.52236071875E+01  0.83884268488E+01  0.51100000000E-03 0. -1.
        -11    1    3    3    0    0 -0.93573479943E+00 -0.35799676624E+01  0.23767418817E+02  0.24053730804E+02  0.51100000000E-03 0.  1.
         12    1    3    3    0    0 -0.70572945012E+01 -0.70118800150E+01  0.11683314964E+02  0.15345087669E+02  0.00000000000E+00 0. -1.
</event>
<event>
 7    1  0.2751796E-010  0.4778727E+02  0.7816164E-02  0.1312668E+00
        -11   -1    0    0    0    0  0.00000000000E+00  0.00000000000E+00  0.45593999997E+02  0.45594000000E+02  0.51100000000E-03 0.  1.
         11   -1    0    0    0    0 -0.00000000000E+00 -0.00000000000E+00 -0.45593999997E+02  0.45594000000E+02  0.51100000000E-03 0. -1.
    9900012    2    1    2    0    0 -0.30444941427E+02 -0.28477122405E+02  0.12074039038E+02  0.47787269849E+02  0.19999994548E+02 0.  0.
         12    1    1    2    0    0  0.30444941427E+02  0.28477122405E+02 -0.12074039038E+02  0.43400730151E+02  0.00000000000E+00 0. -1.
         11    1    3    3    0    0 -0.33418115064E+01  0.65386102450E+00  0.47754825268E+01  0.58651915578E+01  0.51100000000E-03 0. -1.
        -11    1    3    3    0    0 -0.27592681178E+02 -0.26889310825E+02  0.83112049721E+01  0.39414048506E+02  0.51100000000E-03 0.  1.
         12    1    3    3    0    0  0.48955125713E+00 -0.22416726042E+01 -0.10126484614E+01  0.25080297853E+01  0.00000000000E+00 0. -1.
</event>
<event>
 7    1  0.2751796E-010  0.4778727E+02  0.7816164E-02  0.1312668E+00
        -11   -1    0    0    0    0  0.00000000000E+00  0.00000000000E+00  0.45593999997E+02  0.45594000000E+02  0.51100000000E-03 0.  1.
         11   -1    0    0    0    0 -0.00000000000E+00 -0.00000000000E+00 -0.45593999997E+02  0.45594000000E+02  0.51100000000E-03 0. -1.
    9900012    2    1    2    0    0 -0.63735023495E+01  0.70672450906E+00  0.42924376815E+02  0.47787272856E+02  0.20000008258E+02 0.  0.
         12    1    1    2    0    0  0.63735023495E+01 -0.70672450906E+00 -0.42924376815E+02  0.43400727144E+02  0.00000000000E+00 0. -1.
         11    1    3    3    0    0  0.20271392792E+00 -0.45259025603E+01  0.32096099415E+01  0.55521602246E+01  0.51100000000E-03 0. -1.
        -11    1    3    3    0    0 -0.79566508132E+01  0.79138768733E+01  0.33449524226E+02  0.35281842505E+02  0.51100000000E-03 0.  1.
         12    1    3    3    0    0  0.13804345357E+01 -0.26812498040E+01  0.62652426472E+01  0.69532701261E+01  0.00000000000E+00 0. -1.
</event>
<event>
 7    1  0.2751796E-010  0.4778727E+02  0.7816164E-02  0.1312668E+00
        -11   -1    0    0    0    0  0.00000000000E+00  0.00000000000E+00  0.45593999997E+02  0.45594000000E+02  0.51100000000E-03 0. -1.
         11   -1    0    0    0    0 -0.00000000000E+00 -0.00000000000E+00 -0.45593999997E+02  0.45594000000E+02  0.51100000000E-03 0.  1.
    9900012    2    1    2    0    0 -0.15098706511E+02 -0.40582354728E+02  0.29537593321E+01  0.47787272497E+02  0.20000006624E+02 0.  0.
         12    1    1    2    0    0  0.15098706511E+02  0.40582354728E+02 -0.29537593321E+01  0.43400727503E+02  0.00000000000E+00 0. -1.
         11    1    3    3    0    0  0.25997269978E+01 -0.47758069755E+01  0.15416519095E+01  0.56518672668E+01  0.51100000000E-03 0. -1.
        -11    1    3    3    0    0 -0.14216734662E+02 -0.20155085231E+02  0.61428105101E+01  0.25418047257E+02  0.51100000000E-03 0.  1.
        -12    1    3    3    0    0 -0.34816988470E+01 -0.15651462521E+02 -0.47307030876E+01  0.16717357973E+02  0.00000000000E+00 0.  1.
</event>
<event>
 7    1  0.2751796E-010  0.4778727E+02  0.7816164E-02  0.1312668E+00
        -11   -1    0    0    0    0  0.00000000000E+00  0.00000000000E+00  0.45593999997E+02  0.45594000000E+02  0.51100000000E-03 0. -1.
         11   -1    0    0    0    0 -0.00000000000E+00 -0.00000000000E+00 -0.45593999997E+02  0.45594000000E+02  0.51100000000E-03 0.  1.
    9900012    2    1    2    0    0 -0.17992471143E+02  0.30034547212E+02  0.25648005943E+02  0.47787271286E+02  0.20000001101E+02 0.  0.
         12    1    1    2    0    0  0.17992471143E+02 -0.30034547212E+02 -0.25648005943E+02  0.43400728714E+02  0.00000000000E+00 0. -1.
         11    1    3    3    0    0 -0.42208758569E+00 -0.74596810225E+00  0.40235374631E+01  0.41138157856E+01  0.51100000000E-03 0. -1.
        -11    1    3    3    0    0 -0.17702110872E+02  0.26214393981E+02  0.13582063670E+02  0.34424288444E+02  0.51100000000E-03 0.  1.
        -12    1    3    3    0    0  0.13172731404E+00  0.45661213335E+01  0.80424048092E+01  0.92491670562E+01  0.00000000000E+00 0.  1.
</event>
<event>
 7    1  0.2751796E-010  0.4778726E+02  0.7816164E-02  0.1312668E+00
        -11   -1    0    0    0    0  0.00000000000E+00  0.00000000000E+00  0.45593999997E+02  0.45594000000E+02  0.51100000000E-03 0. -1.
         11   -1    0    0    0    0 -0.00000000000E+00 -0.00000000000E+00 -0.45593999997E+02  0.45594000000E+02  0.51100000000E-03 0.  1.
    9900012    2    1    2    0    0  0.10787050770E+02  0.37510004426E+02 -0.18980594263E+02  0.47787264350E+02  0.19999969478E+02 0.  0.
         12    1    1    2    0    0 -0.10787050770E+02 -0.37510004426E+02  0.18980594263E+02  0.43400735650E+02  0.00000000000E+00 0. -1.
         11    1    3    3    0    0  0.21965021080E+00  0.46753222872E+01 -0.11449460896E+01  0.48184838397E+01  0.51100000000E-03 0. -1.
        -11    1    3    3    0    0  0.15441302419E+01  0.39582788351E+01 -0.11224150554E+02  0.12001410978E+02  0.51100000000E-03 0.  1.
        -12    1    3    3    0    0  0.90232703177E+01  0.28876403304E+02 -0.66114976189E+01  0.30967369533E+02  0.00000000000E+00 0.  1.
</event>
<event>
 7    1  0.2751796E-010  0.4778727E+02  0.7816164E-02  0.1312668E+00
        -11   -1    0    0    0    0  0.00000000000E+00  0.00000000000E+00  0.45593999997E+02  0.45594000000E+02  0.51100000000E-03 0.  1.
         11   -1    0    0    0    0 -0.00000000000E+00 -0.00000000000E+00 -0.45593999997E+02  0.45594000000E+02  0.51100000000E-03 0. -1.
    9900012    2    1    2    0    0 -0.30983039123E+02 -0.12935504910E+02  0.27501768702E+02  0.47787270947E+02  0.19999999557E+02 0.  0.
         12    1    1    2    0    0  0.30983039123E+02  0.12935504910E+02 -0.27501768702E+02  0.43400729053E+02  0.00000000000E+00 0. -1.
         11    1    3    3    0    0 -0.14607866794E+01 -0.67018567903E+01  0.52604505915E+00  0.68793535907E+01  0.51100000000E-03 0. -1.
        -11    1    3    3    0    0 -0.21793444055E+02 -0.54671393367E+01  0.16544215955E+02  0.27902596620E+02  0.51100000000E-03 0.  1.
         12    1    3    3    0    0 -0.77288083885E+01 -0.76650878309E+00  0.10431507688E+02  0.13005320737E+02  0.00000000000E+00 0. -1.
</event>
<event>
 7    1  0.2751796E-010  0.4778727E+02  0.7816164E-02  0.1312668E+00
        -11   -1    0    0    0    0  0.00000000000E+00  0.00000000000E+00  0.45593999997E+02  0.45594000000E+02  0.51100000000E-03 0.  1.
         11   -1    0    0    0    0 -0.00000000000E+00 -0.00000000000E+00 -0.45593999997E+02  0.45594000000E+02  0.51100000000E-03 0. -1.
    9900012    2    1    2    0    0 -0.33806583686E+02  0.11763081194E+02  0.24543191216E+02  0.47787269421E+02  0.19999992598E+02 0.  0.
         12    1    1    2    0    0  0.33806583686E+02 -0.11763081194E+02 -0.24543191216E+02  0.43400730579E+02  0.00000000000E+00 0. -1.
         11    1    3    3    0    0 -0.44088870482E-01  0.92301259429E+00 -0.31626429331E+00  0.97668799627E+00  0.51100000000E-03 0. -1.
        -11    1    3    3    0    0 -0.10502445605E+02  0.11283735422E+02  0.15111478535E+02  0.21586589183E+02  0.51100000000E-03 0.  1.
        -12    1    3    3    0    0 -0.23260049211E+02 -0.44366682288E+00  0.97479769746E+01  0.25223992242E+02  0.00000000000E+00 0.  1.
</event>
<event>
 7    1  0.2751796E-010  0.4778727E+02  0.7816164E-02  0.1312668E+00
        -11   -1    0    0    0    0  0.00000000000E+00  0.00000000000E+00  0.45593999997E+02  0.45594000000E+02  0.51100000000E-03 0.  1.
         11   -1    0    0    0    0 -0.00000000000E+00 -0.00000000000E+00 -0.45593999997E+02  0.45594000000E+02  0.51100000000E-03 0. -1.
    9900012    2    1    2    0    0 -0.36123290872E+02  0.23002376019E+02  0.70442791973E+01  0.47787270567E+02  0.19999997821E+02 0.  0.
         12    1    1    2    0    0  0.36123290872E+02 -0.23002376019E+02 -0.70442791973E+01  0.43400729433E+02  0.00000000000E+00 0. -1.
         11    1    3    3    0    0 -0.11165504560E+02  0.14764134822E+00 -0.14860633870E+01  0.11264931189E+02  0.51100000000E-03 0. -1.
        -11    1    3    3    0    0 -0.24332442000E+02  0.20901374502E+02  0.50351445824E+01  0.32469799368E+02  0.51100000000E-03 0.  1.
        -12    1    3    3    0    0 -0.62534431207E+00  0.19533601690E+01  0.34951980019E+01  0.40525400098E+01  0.00000000000E+00 0.  1.
</event>
<event>
 7    1  0.2751796E-010  0.4778728E+02  0.7816164E-02  0.1312668E+00
        -11   -1    0    0    0    0  0.00000000000E+00  0.00000000000E+00  0.45593999997E+02  0.45594000000E+02  0.51100000000E-03 0.  1.
         11   -1    0    0    0    0 -0.00000000000E+00 -0.00000000000E+00 -0.45593999997E+02  0.45594000000E+02  0.51100000000E-03 0. -1.
    9900012    2    1    2    0    0 -0.22173803787E+02 -0.36404603246E+02 -0.81639575664E+01  0.47787275178E+02  0.20000018849E+02 0.  0.
         12    1    1    2    0    0  0.22173803787E+02  0.36404603246E+02  0.81639575664E+01  0.43400724822E+02  0.00000000000E+00 0. -1.
         11    1    3    3    0    0 -0.14425830239E+02 -0.90817789256E+01 -0.78787523822E+01  0.18779191301E+02  0.51100000000E-03 0. -1.
        -11    1    3    3    0    0 -0.80323001060E+01 -0.18626670536E+02  0.30807281839E+00  0.20287079863E+02  0.51100000000E-03 0.  1.
         12    1    3    3    0    0  0.28432655826E+00 -0.86961537846E+01 -0.59327800260E+00  0.87210040147E+01  0.00000000000E+00 0. -1.
</event>
<event>
 7    1  0.2751796E-010  0.4778726E+02  0.7816164E-02  0.1312668E+00
        -11   -1    0    0    0    0  0.00000000000E+00  0.00000000000E+00  0.45593999997E+02  0.45594000000E+02  0.51100000000E-03 0.  1.
         11   -1    0    0    0    0 -0.00000000000E+00 -0.00000000000E+00 -0.45593999997E+02  0.45594000000E+02  0.51100000000E-03 0. -1.
    9900012    2    1    2    0    0 -0.31887115881E+02  0.28314727556E+02 -0.80692297279E+01  0.47787257793E+02  0.19999939579E+02 0.  0.
         12    1    1    2    0    0  0.31887115881E+02 -0.28314727556E+02  0.80692297279E+01  0.43400742207E+02  0.00000000000E+00 0. -1.
         11    1    3    3    0    0 -0.14526579820E+00  0.33858140061E+00  0.32042911254E+01  0.32254025166E+01  0.51100000000E-03 0. -1.
        -11    1    3    3    0    0 -0.16970998283E+02  0.10422810650E+02 -0.76574383706E+01  0.21337434880E+02  0.51100000000E-03 0.  1.
         12    1    3    3    0    0 -0.14770851800E+02  0.17553335504E+02 -0.36160824827E+01  0.23224420396E+02  0.00000000000E+00 0. -1.
</event>
<event>
 7    1  0.2751796E-010  0.4778727E+02  0.7816164E-02  0.1312668E+00
        -11   -1    0    0    0    0  0.00000000000E+00  0.00000000000E+00  0.45593999997E+02  0.45594000000E+02  0.51100000000E-03 0.  1.
         11   -1    0    0    0    0 -0.00000000000E+00 -0.00000000000E+00 -0.45593999997E+02  0.45594000000E+02  0.51100000000E-03 0. -1.
    9900012    2    1    2    0    0  0.83334862716E+01 -0.16257862202E+02  0.39368240922E+02  0.47787268783E+02  0.19999989690E+02 0.  0.
         12    1    1    2    0    0 -0.83334862716E+01  0.16257862202E+02 -0.39368240922E+02  0.43400731217E+02  0.00000000000E+00 0. -1.
         11    1    3    3    0    0  0.11011174417E+02 -0.60616592065E+01  0.21782490425E+02  0.25148887923E+02  0.51100000000E-03 0. -1.
        -11    1    3    3    0    0 -0.59909320281E+01 -0.44237053479E+01  0.10928139043E+02  0.13224396348E+02  0.51100000000E-03 0.  1.
        -12    1    3    3    0    0  0.33132438825E+01 -0.57724976478E+01  0.66576114544E+01  0.94139845122E+01  0.00000000000E+00 0.  1.
</event>
<event>
 7    1  0.2751796E-010  0.4778727E+02  0.7816164E-02  0.1312668E+00
        -11   -1    0    0    0    0  0.00000000000E+00  0.00000000000E+00  0.45593999997E+02  0.45594000000E+02  0.51100000000E-03 0.  1.
         11   -1    0    0    0    0 -0.00000000000E+00 -0.00000000000E+00 -0.45593999997E+02  0.45594000000E+02  0.51100000000E-03 0. -1.
    9900012    2    1    2    0    0 -0.14541149772E+01 -0.42840758456E+02 -0.67954526382E+01  0.47787271757E+02  0.20000003251E+02 0.  0.
         12    1    1    2    0    0  0.14541149772E+01  0.42840758456E+02  0.67954526382E+01  0.43400728243E+02  0.00000000000E+00 0. -1.
         11    1    3    3    0    0 -0.65629274881E+00 -0.15087505548E+01 -0.27124878255E+01  0.31724815009E+01  0.51100000000E-03 0. -1.
        -11    1    3    3    0    0 -0.82978843738E+01 -0.19516555744E+02 -0.37955295539E+01  0.21544300361E+02  0.51100000000E-03 0.  1.
        -12    1    3    3    0    0  0.75000621454E+01 -0.21815452157E+02 -0.28743525882E+00  0.23070489896E+02  0.00000000000E+00 0.  1.
</event>
<event>
 7    1  0.2751796E-010  0.4778727E+02  0.7816164E-02  0.1312668E+00
        -11   -1    0    0    0    0  0.00000000000E+00  0.00000000000E+00  0.45593999997E+02  0.45594000000E+02  0.51100000000E-03 0.  1.
         11   -1    0    0    0    0 -0.00000000000E+00 -0.00000000000E+00 -0.45593999997E+02  0.45594000000E+02  0.51100000000E-03 0. -1.
    9900012    2    1    2    0    0 -0.25386862992E+02 -0.44215424336E+01  0.34922488814E+02  0.47787273336E+02  0.20000010446E+02 0.  0.
         12    1    1    2    0    0  0.25386862992E+02  0.44215424336E+01 -0.34922488814E+02  0.43400726664E+02  0.00000000000E+00 0. -1.
         11    1    3    3    0    0  0.24706305822E+01  0.27125587380E+01  0.41213421788E+01  0.55179209850E+01  0.51100000000E-03 0. -1.
        -11    1    3    3    0    0 -0.23027740165E+02 -0.71698703236E+01  0.25671436433E+02  0.35223664011E+02  0.51100000000E-03 0.  1.
         12    1    3    3    0    0 -0.48297534085E+01  0.35769152017E-01  0.51297102023E+01  0.70456883396E+01  0.00000000000E+00 0. -1.
</event>
<event>
 7    1  0.2751796E-010  0.4778726E+02  0.7816164E-02  0.1312668E+00
        -11   -1    0    0    0    0  0.00000000000E+00  0.00000000000E+00  0.45593999997E+02  0.45594000000E+02  0.51100000000E-03 0.  1.
         11   -1    0    0    0    0 -0.00000000000E+00 -0.00000000000E+00 -0.45593999997E+02  0.45594000000E+02  0.51100000000E-03 0. -1.
    9900012    2    1    2    0    0 -0.19050234110E+02  0.31347124086E+02  0.23196342935E+02  0.47787263443E+02  0.19999965343E+02 0.  0.
         12    1    1    2    0    0  0.19050234110E+02 -0.31347124086E+02 -0.23196342935E+02  0.43400736557E+02  0.00000000000E+00 0. -1.
         11    1    3    3    0    0 -0.36350805168E+01  0.40007032447E+01 -0.38410930693E+00  0.54191306532E+01  0.51100000000E-03 0. -1.
        -11    1    3    3    0    0 -0.10604334683E+02  0.80571110375E+01  0.16635412828E+02  0.21309760969E+02  0.51100000000E-03 0.  1.
        -12    1    3    3    0    0 -0.48108189104E+01  0.19289309804E+02  0.69450394141E+01  0.21058371821E+02  0.00000000000E+00 0.  1.
</event>
<event>
 7    1  0.2751796E-010  0.4778727E+02  0.7816164E-02  0.1312668E+00
        -11   -1    0    0    0    0  0.00000000000E+00  0.00000000000E+00  0.45593999997E+02  0.45594000000E+02  0.51100000000E-03 0.  1.
         11   -1    0    0    0    0 -0.00000000000E+00 -0.00000000000E+00 -0.45593999997E+02  0.45594000000E+02  0.51100000000E-03 0. -1.
    9900012    2    1    2    0    0  0.37543969936E+02  0.21192843948E+02 -0.49936958336E+01  0.47787270614E+02  0.19999998037E+02 0.  0.
         12    1    1    2    0    0 -0.37543969936E+02 -0.21192843948E+02  0.49936958336E+01  0.43400729386E+02  0.00000000000E+00 0. -1.
         11    1    3    3    0    0  0.13526692865E+02 -0.87739027462E+00 -0.24487499573E+00  0.13557330031E+02  0.51100000000E-03 0. -1.
        -11    1    3    3    0    0  0.62565805635E+01  0.91217573811E+01  0.19934187850E+01  0.11239438455E+02  0.51100000000E-03 0.  1.
         12    1    3    3    0    0  0.17760696508E+02  0.12948476841E+02 -0.67422396229E+01  0.22990502128E+02  0.00000000000E+00 0. -1.
</event>
<event>
 7    1  0.2751796E-010  0.4778727E+02  0.7816164E-02  0.1312668E+00
        -11   -1    0    0    0    0  0.00000000000E+00  0.00000000000E+00  0.45593999997E+02  0.45594000000E+02  0.51100000000E-03 0.  1.
         11   -1    0    0    0    0 -0.00000000000E+00 -0.00000000000E+00 -0.45593999997E+02  0.45594000000E+02  0.51100000000E-03 0. -1.
    9900012    2    1    2    0    0 -0.63518347908E+01 -0.99232470090E+01  0.41770881206E+02  0.47787272435E+02  0.20000006340E+02 0.  0.
         12    1    1    2    0    0  0.63518347908E+01  0.99232470090E+01 -0.41770881206E+02  0.43400727565E+02  0.00000000000E+00 0. -1.
         11    1    3    3    0    0 -0.54385873097E+00  0.17669979344E+01  0.15398101765E+02  0.15508694408E+02  0.51100000000E-03 0. -1.
        -11    1    3    3    0    0 -0.64633233019E+01 -0.36093591405E+01  0.38564533286E+01  0.83471105208E+01  0.51100000000E-03 0.  1.
        -12    1    3    3    0    0  0.65534724203E+00 -0.80808858029E+01  0.22516326113E+02  0.23931467506E+02  0.00000000000E+00 0.  1.
</event>
<event>
 7    1  0.2751796E-010  0.4778725E+02  0.7816164E-02  0.1312668E+00
        -11   -1    0    0    0    0  0.00000000000E+00  0.00000000000E+00  0.45593999997E+02  0.45594000000E+02  0.51100000000E-03 0.  1.
         11   -1    0    0    0    0 -0.00000000000E+00 -0.00000000000E+00 -0.45593999997E+02  0.45594000000E+02  0.51100000000E-03 0. -1.
    9900012    2    1    2    0    0 -0.53322054909E+01  0.27138790261E+02  0.33446648937E+02  0.47787254876E+02  0.19999926282E+02 0.  0.
         12    1    1    2    0    0  0.53322054909E+01 -0.27138790261E+02 -0.33446648937E+02  0.43400745124E+02  0.00000000000E+00 0. -1.
         11    1    3    3    0    0 -0.47689495354E+01  0.34645889944E+00  0.34618133197E+01  0.59031402797E+01  0.51100000000E-03 0. -1.
        -11    1    3    3    0    0  0.25087703509E+01  0.16223605438E+02  0.10444395393E+02  0.19457253082E+02  0.51100000000E-03 0.  1.
        -12    1    3    3    0    0 -0.30720263064E+01  0.10568725923E+02  0.19540440224E+02  0.22426861515E+02  0.00000000000E+00 0.  1.
</event>
<event>
 7    1  0.2751796E-010  0.4778727E+02  0.7816164E-02  0.1312668E+00
        -11   -1    0    0    0    0  0.00000000000E+00  0.00000000000E+00  0.45593999997E+02  0.45594000000E+02  0.51100000000E-03 0.  1.
         11   -1    0    0    0    0 -0.00000000000E+00 -0.00000000000E+00 -0.45593999997E+02  0.45594000000E+02  0.51100000000E-03 0. -1.
    9900012    2    1    2    0    0  0.30322291614E+02 -0.12337980628E+02  0.28494843088E+02  0.47787271696E+02  0.20000002970E+02 0.  0.
         12    1    1    2    0    0 -0.30322291614E+02  0.12337980628E+02 -0.28494843088E+02  0.43400728304E+02  0.00000000000E+00 0. -1.
         11    1    3    3    0    0  0.15544257883E+02 -0.59141499500E+01  0.26105227242E+02  0.30952932210E+02  0.51100000000E-03 0. -1.
        -11    1    3    3    0    0  0.11228482037E+02 -0.36572425357E+01  0.32595308023E+01  0.12250664191E+02  0.51100000000E-03 0.  1.
        -12    1    3    3    0    0  0.35495516940E+01 -0.27665881423E+01 -0.86991495569E+00  0.45836752948E+01  0.00000000000E+00 0.  1.
</event>
<event>
 7    1  0.2751796E-010  0.4778727E+02  0.7816164E-02  0.1312668E+00
        -11   -1    0    0    0    0  0.00000000000E+00  0.00000000000E+00  0.45593999997E+02  0.45594000000E+02  0.51100000000E-03 0.  1.
         11   -1    0    0    0    0 -0.00000000000E+00 -0.00000000000E+00 -0.45593999997E+02  0.45594000000E+02  0.51100000000E-03 0. -1.
    9900012    2    1    2    0    0  0.28463540822E+02  0.20677813638E+02  0.25414126856E+02  0.47787274466E+02  0.20000015601E+02 0.  0.
         12    1    1    2    0    0 -0.28463540822E+02 -0.20677813638E+02 -0.25414126856E+02  0.43400725534E+02  0.00000000000E+00 0. -1.
         11    1    3    3    0    0 -0.13078247735E+01 -0.14160380698E+01  0.62730724472E+00  0.20270875890E+01  0.51100000000E-03 0. -1.
        -11    1    3    3    0    0  0.21835391529E+02  0.17479179133E+02  0.23417355703E+02  0.36478467275E+02  0.51100000000E-03 0.  1.
         12    1    3    3    0    0  0.79359740672E+01  0.46146725747E+01  0.13694639085E+01  0.92817196016E+01  0.00000000000E+00 0. -1.
</event>
<event>
 7    1  0.2751796E-010  0.4778727E+02  0.7816164E-02  0.1312668E+00
        -11   -1    0    0    0    0  0.00000000000E+00  0.00000000000E+00  0.45593999997E+02  0.45594000000E+02  0.51100000000E-03 0.  1.
         11   -1    0    0    0    0 -0.00000000000E+00 -0.00000000000E+00 -0.45593999997E+02  0.45594000000E+02  0.51100000000E-03 0. -1.
    9900012    2    1    2    0    0 -0.24203575975E+02  0.14111279036E+02  0.33146371906E+02  0.47787271244E+02  0.20000000909E+02 0.  0.
         12    1    1    2    0    0  0.24203575975E+02 -0.14111279036E+02 -0.33146371906E+02  0.43400728756E+02  0.00000000000E+00 0. -1.
         11    1    3    3    0    0 -0.11042773562E+01  0.64143948911E+01  0.13904057487E+02  0.15352091231E+02  0.51100000000E-03 0. -1.
        -11    1    3    3    0    0 -0.16441952491E+02  0.73484176400E+00  0.11526828783E+02  0.20093421216E+02  0.51100000000E-03 0.  1.
        -12    1    3    3    0    0 -0.66573461283E+01  0.69620423813E+01  0.77154856361E+01  0.12341758797E+02  0.00000000000E+00 0.  1.
</event>
<event>
 7    1  0.2751796E-010  0.4778726E+02  0.7816164E-02  0.1312668E+00
        -11   -1    0    0    0    0  0.00000000000E+00  0.00000000000E+00  0.45593999997E+02  0.45594000000E+02  0.51100000000E-03 0. -1.
         11   -1    0    0    0    0 -0.00000000000E+00 -0.00000000000E+00 -0.45593999997E+02  0.45594000000E+02  0.51100000000E-03 0.  1.
    9900012    2    1    2    0    0  0.10572628265E+02  0.39888043044E+02 -0.13445743624E+02  0.47787257288E+02  0.19999937280E+02 0.  0.
         12    1    1    2    0    0 -0.10572628265E+02 -0.39888043044E+02  0.13445743624E+02  0.43400742712E+02  0.00000000000E+00 0. -1.
         11    1    3    3    0    0  0.46654796572E+01 -0.60307783268E+00 -0.14791720659E+01  0.49313642702E+01  0.51100000000E-03 0. -1.
        -11    1    3    3    0    0  0.17681149729E+01  0.15904888659E+02 -0.25503149259E+01  0.16204808554E+02  0.51100000000E-03 0.  1.
         12    1    3    3    0    0  0.41390336350E+01  0.24586232218E+02 -0.94162566326E+01  0.26651084464E+02  0.00000000000E+00 0. -1.
</event>
<event>
 7    1  0.2751796E-010  0.4778727E+02  0.7816164E-02  0.1312668E+00
        -11   -1    0    0    0    0  0.00000000000E+00  0.00000000000E+00  0.45593999997E+02  0.45594000000E+02  0.51100000000E-03 0. -1.
         11   -1    0    0    0    0 -0.00000000000E+00 -0.00000000000E+00 -0.45593999997E+02  0.45594000000E+02  0.51100000000E-03 0.  1.
    9900012    2    1    2    0    0  0.99789204431E+01 -0.92602802341E+01 -0.41210334908E+02  0.47787270208E+02  0.19999996188E+02 0.  0.
         12    1    1    2    0    0 -0.99789204431E+01  0.92602802341E+01  0.41210334908E+02  0.43400729792E+02  0.00000000000E+00 0. -1.
         11    1    3    3    0    0  0.98890132962E+01  0.17323428136E+01 -0.15818419211E+02  0.18735420524E+02  0.51100000000E-03 0. -1.
        -11    1    3    3    0    0 -0.42554306712E+01 -0.54674543388E+01 -0.10435953507E+02  0.12526407027E+02  0.51100000000E-03 0.  1.
        -12    1    3    3    0    0  0.43453378180E+01 -0.55251687089E+01 -0.14955962190E+02  0.16525442658E+02  0.00000000000E+00 0.  1.
</event>
<event>
 7    1  0.2751796E-010  0.4778726E+02  0.7816164E-02  0.1312668E+00
        -11   -1    0    0    0    0  0.00000000000E+00  0.00000000000E+00  0.45593999997E+02  0.45594000000E+02  0.51100000000E-03 0.  1.
         11   -1    0    0    0    0 -0.00000000000E+00 -0.00000000000E+00 -0.45593999997E+02  0.45594000000E+02  0.51100000000E-03 0. -1.
    9900012    2    1    2    0    0  0.22451064194E+02 -0.17465507948E+02  0.32780029052E+02  0.47787256274E+02  0.19999932656E+02 0.  0.
         12    1    1    2    0    0 -0.22451064194E+02  0.17465507948E+02 -0.32780029052E+02  0.43400743726E+02  0.00000000000E+00 0. -1.
         11    1    3    3    0    0  0.19195763850E+02 -0.57779982302E+01  0.25447014410E+02  0.32394647027E+02  0.51100000000E-03 0.  1.
        -11    1    3    3    0    0  0.40239267273E+01 -0.93555645018E+01  0.33638735248E+01  0.10725400636E+02  0.51100000000E-03 0. -1.
        -12    1    3    3    0    0 -0.76862638421E+00 -0.23319452162E+01  0.39691411174E+01  0.46672086111E+01  0.00000000000E+00 0.  1.
</event>
<event>
 7    1  0.2751796E-010  0.4778726E+02  0.7816164E-02  0.1312668E+00
        -11   -1    0    0    0    0  0.00000000000E+00  0.00000000000E+00  0.45593999997E+02  0.45594000000E+02  0.51100000000E-03 0. -1.
         11   -1    0    0    0    0 -0.00000000000E+00 -0.00000000000E+00 -0.45593999997E+02  0.45594000000E+02  0.51100000000E-03 0.  1.
    9900012    2    1    2    0    0 -0.20334701991E+02  0.38333794708E+02 -0.80247260126E+00  0.47787264015E+02  0.19999967951E+02 0.  0.
         12    1    1    2    0    0  0.20334701991E+02 -0.38333794708E+02  0.80247260126E+00  0.43400735985E+02  0.00000000000E+00 0. -1.
         11    1    3    3    0    0 -0.18043634032E+02  0.22550169013E+02 -0.65531046842E+01  0.29614625320E+02  0.51100000000E-03 0. -1.
        -11    1    3    3    0    0 -0.26649393600E+01  0.24686077396E+01 -0.76808003377E-01  0.36334316692E+01  0.51100000000E-03 0.  1.
         12    1    3    3    0    0  0.37387140131E+00  0.13315017955E+02  0.58274400863E+01  0.14539207026E+02  0.00000000000E+00 0. -1.
</event>
<event>
 7    1  0.2751796E-010  0.4778727E+02  0.7816164E-02  0.1312668E+00
        -11   -1    0    0    0    0  0.00000000000E+00  0.00000000000E+00  0.45593999997E+02  0.45594000000E+02  0.51100000000E-03 0.  1.
         11   -1    0    0    0    0 -0.00000000000E+00 -0.00000000000E+00 -0.45593999997E+02  0.45594000000E+02  0.51100000000E-03 0. -1.
    9900012    2    1    2    0    0 -0.66820479359E+01 -0.42059801376E+02  0.83634154887E+01  0.47787269879E+02  0.19999994686E+02 0.  0.
         12    1    1    2    0    0  0.66820479359E+01  0.42059801376E+02 -0.83634154887E+01  0.43400730121E+02  0.00000000000E+00 0. -1.
         11    1    3    3    0    0  0.11510682646E+01 -0.10249016332E+02 -0.27061354296E+01  0.10662573008E+02  0.51100000000E-03 0. -1.
        -11    1    3    3    0    0 -0.87496882961E+01 -0.28947462428E+02  0.13634795744E+02  0.33172583282E+02  0.51100000000E-03 0.  1.
        -12    1    3    3    0    0  0.91657209561E+00 -0.28633226156E+01 -0.25652448259E+01  0.39521135895E+01  0.00000000000E+00 0.  1.
</event>
<event>
 7    1  0.2751796E-010  0.4778727E+02  0.7816164E-02  0.1312668E+00
        -11   -1    0    0    0    0  0.00000000000E+00  0.00000000000E+00  0.45593999997E+02  0.45594000000E+02  0.51100000000E-03 0.  1.
         11   -1    0    0    0    0 -0.00000000000E+00 -0.00000000000E+00 -0.45593999997E+02  0.45594000000E+02  0.51100000000E-03 0. -1.
    9900012    2    1    2    0    0 -0.23561432160E+02  0.34970072719E+02  0.10275039633E+02  0.47787268315E+02  0.19999987554E+02 0.  0.
         12    1    1    2    0    0  0.23561432160E+02 -0.34970072719E+02 -0.10275039633E+02  0.43400731685E+02  0.00000000000E+00 0. -1.
         11    1    3    3    0    0 -0.51314981913E+01  0.25487027097E+01 -0.17131992888E+00  0.57321470645E+01  0.51100000000E-03 0. -1.
        -11    1    3    3    0    0  0.24555922275E+01  0.16610141252E+01 -0.10381615631E+01  0.31411273142E+01  0.51100000000E-03 0.  1.
        -12    1    3    3    0    0 -0.20885526196E+02  0.30760355884E+02  0.11484521125E+02  0.38913993936E+02  0.00000000000E+00 0.  1.
</event>
<event>
 7    1  0.2751796E-010  0.4778727E+02  0.7816164E-02  0.1312668E+00
        -11   -1    0    0    0    0  0.00000000000E+00  0.00000000000E+00  0.45593999997E+02  0.45594000000E+02  0.51100000000E-03 0.  1.
         11   -1    0    0    0    0 -0.00000000000E+00 -0.00000000000E+00 -0.45593999997E+02  0.45594000000E+02  0.51100000000E-03 0. -1.
    9900012    2    1    2    0    0  0.38987936832E+02 -0.39039024649E+01  0.18663436789E+02  0.47787267913E+02  0.19999985723E+02 0.  0.
         12    1    1    2    0    0 -0.38987936832E+02  0.39039024649E+01 -0.18663436789E+02  0.43400732087E+02  0.00000000000E+00 0. -1.
         11    1    3    3    0    0  0.97636609497E+01  0.45049769649E+01  0.24269670689E+01  0.11023341690E+02  0.51100000000E-03 0.  1.
        -11    1    3    3    0    0  0.64212455703E+01 -0.74115500893E+01  0.74132830382E+01  0.12293097049E+02  0.51100000000E-03 0. -1.
        -12    1    3    3    0    0  0.22803030312E+02 -0.99732934057E+00  0.88231866824E+01  0.24470829174E+02  0.00000000000E+00 0.  1.
</event>
<event>
 7    1  0.2751796E-010  0.4778727E+02  0.7816164E-02  0.1312668E+00
        -11   -1    0    0    0    0  0.00000000000E+00  0.00000000000E+00  0.45593999997E+02  0.45594000000E+02  0.51100000000E-03 0.  1.
         11   -1    0    0    0    0 -0.00000000000E+00 -0.00000000000E+00 -0.45593999997E+02  0.45594000000E+02  0.51100000000E-03 0. -1.
    9900012    2    1    2    0    0 -0.32099884078E+02 -0.27917366399E+02  0.85931166439E+01  0.47787267769E+02  0.19999985067E+02 0.  0.
         12    1    1    2    0    0  0.32099884078E+02  0.27917366399E+02 -0.85931166439E+01  0.43400732231E+02  0.00000000000E+00 0. -1.
         11    1    3    3    0    0 -0.57054046435E+01 -0.15365727140E+02  0.18820728382E+01  0.16498466932E+02  0.51100000000E-03 0. -1.
        -11    1    3    3    0    0 -0.26063007511E+02 -0.12388914969E+02  0.46924376846E+01  0.29236698622E+02  0.51100000000E-03 0.  1.
         12    1    3    3    0    0 -0.33147192425E+00 -0.16272429019E+00  0.20186061210E+01  0.20521022156E+01  0.00000000000E+00 0. -1.
</event>
<event>
 7    1  0.2751796E-010  0.4778727E+02  0.7816164E-02  0.1312668E+00
        -11   -1    0    0    0    0  0.00000000000E+00  0.00000000000E+00  0.45593999997E+02  0.45594000000E+02  0.51100000000E-03 0.  1.
         11   -1    0    0    0    0 -0.00000000000E+00 -0.00000000000E+00 -0.45593999997E+02  0.45594000000E+02  0.51100000000E-03 0. -1.
    9900012    2    1    2    0    0  0.12179020176E+02  0.14647182495E+02  0.38996857396E+02  0.47787269889E+02  0.19999994730E+02 0.  0.
         12    1    1    2    0    0 -0.12179020176E+02 -0.14647182495E+02 -0.38996857396E+02  0.43400730111E+02  0.00000000000E+00 0. -1.
         11    1    3    3    0    0  0.28953674011E+01  0.17744613289E+01 -0.11952138857E+01  0.36000558175E+01  0.51100000000E-03 0. -1.
        -11    1    3    3    0    0  0.36820489717E+01  0.12113419823E+02  0.26286656933E+02  0.29176716015E+02  0.51100000000E-03 0.  1.
        -12    1    3    3    0    0  0.56016038032E+01  0.75930134249E+00  0.13905414348E+02  0.15010498056E+02  0.00000000000E+00 0.  1.
</event>
<event>
 7    1  0.2751796E-010  0.4778727E+02  0.7816164E-02  0.1312668E+00
        -11   -1    0    0    0    0  0.00000000000E+00  0.00000000000E+00  0.45593999997E+02  0.45594000000E+02  0.51100000000E-03 0.  1.
         11   -1    0    0    0    0 -0.00000000000E+00 -0.00000000000E+00 -0.45593999997E+02  0.45594000000E+02  0.51100000000E-03 0. -1.
    9900012    2    1    2    0    0 -0.31673430853E+02 -0.27318076734E+02  0.11581866242E+02  0.47787272309E+02  0.20000005765E+02 0.  0.
         12    1    1    2    0    0  0.31673430853E+02  0.27318076734E+02 -0.11581866242E+02  0.43400727691E+02  0.00000000000E+00 0. -1.
         11    1    3    3    0    0 -0.32704725803E+01  0.14157893029E+01  0.50938493608E+01  0.62167316027E+01  0.51100000000E-03 0.  1.
        -11    1    3    3    0    0 -0.13466053965E+02 -0.15095547269E+02 -0.31242108582E+00  0.20231355959E+02  0.51100000000E-03 0. -1.
         12    1    3    3    0    0 -0.14936904308E+02 -0.13638318768E+02  0.68004379674E+01  0.21339184747E+02  0.00000000000E+00 0. -1.
</event>
<event>
 7    1  0.2751796E-010  0.4778727E+02  0.7816164E-02  0.1312668E+00
        -11   -1    0    0    0    0  0.00000000000E+00  0.00000000000E+00  0.45593999997E+02  0.45594000000E+02  0.51100000000E-03 0.  1.
         11   -1    0    0    0    0 -0.00000000000E+00 -0.00000000000E+00 -0.45593999997E+02  0.45594000000E+02  0.51100000000E-03 0. -1.
    9900012    2    1    2    0    0 -0.32029525857E+02 -0.29236398744E+02  0.17220803100E+01  0.47787273062E+02  0.20000009197E+02 0.  0.
         12    1    1    2    0    0  0.32029525857E+02  0.29236398744E+02 -0.17220803100E+01  0.43400726938E+02  0.00000000000E+00 0. -1.
         11    1    3    3    0    0 -0.19996070030E+01 -0.11820552288E+02 -0.75651348477E+00  0.12012335221E+02  0.51100000000E-03 0. -1.
        -11    1    3    3    0    0 -0.13597470194E+02 -0.34096622786E+01 -0.18470726772E+00  0.14019668668E+02  0.51100000000E-03 0.  1.
        -12    1    3    3    0    0 -0.16432448661E+02 -0.14006184178E+02  0.26633010625E+01  0.21755269173E+02  0.00000000000E+00 0.  1.
</event>
<event>
 7    1  0.2751796E-010  0.4778726E+02  0.7816164E-02  0.1312668E+00
        -11   -1    0    0    0    0  0.00000000000E+00  0.00000000000E+00  0.45593999997E+02  0.45594000000E+02  0.51100000000E-03 0.  1.
         11   -1    0    0    0    0 -0.00000000000E+00 -0.00000000000E+00 -0.45593999997E+02  0.45594000000E+02  0.51100000000E-03 0. -1.
    9900012    2    1    2    0    0  0.26381696232E+02  0.31867217885E+02  0.13119109658E+02  0.47787256803E+02  0.19999935068E+02 0.  0.
         12    1    1    2    0    0 -0.26381696232E+02 -0.31867217885E+02 -0.13119109658E+02  0.43400743197E+02  0.00000000000E+00 0. -1.
         11    1    3    3    0    0  0.53113632813E+01  0.98459101959E+01 -0.48121502998E+01  0.12178231327E+02  0.51100000000E-03 0. -1.
        -11    1    3    3    0    0  0.17036197718E+02  0.15161399295E+02  0.13172171133E+02  0.26336403587E+02  0.51100000000E-03 0.  1.
         12    1    3    3    0    0  0.40341352322E+01  0.68599083948E+01  0.47590888247E+01  0.92726218891E+01  0.00000000000E+00 0. -1.
</event>
<event>
 7    1  0.2751796E-010  0.4778727E+02  0.7816164E-02  0.1312668E+00
        -11   -1    0    0    0    0  0.00000000000E+00  0.00000000000E+00  0.45593999997E+02  0.45594000000E+02  0.51100000000E-03 0. -1.
         11   -1    0    0    0    0 -0.00000000000E+00 -0.00000000000E+00 -0.45593999997E+02  0.45594000000E+02  0.51100000000E-03 0.  1.
    9900012    2    1    2    0    0  0.17478721840E+02 -0.16961087888E+02 -0.35922688584E+02  0.47787265276E+02  0.19999973700E+02 0.  0.
         12    1    1    2    0    0 -0.17478721840E+02  0.16961087888E+02  0.35922688584E+02  0.43400734724E+02  0.00000000000E+00 0. -1.
         11    1    3    3    0    0  0.11809322184E+02 -0.53204215482E+01 -0.26957151370E+02  0.29907440314E+02  0.51100000000E-03 0.  1.
        -11    1    3    3    0    0  0.77725139905E+01 -0.10401177197E+02 -0.80218150044E+01  0.15262567839E+02  0.51100000000E-03 0. -1.
         12    1    3    3    0    0 -0.21031143350E+01 -0.12394891430E+01 -0.94372220948E+00  0.26172571234E+01  0.00000000000E+00 0. -1.
</event>
<event>
 7    1  0.2751796E-010  0.4778727E+02  0.7816164E-02  0.1312668E+00
        -11   -1    0    0    0    0  0.00000000000E+00  0.00000000000E+00  0.45593999997E+02  0.45594000000E+02  0.51100000000E-03 0. -1.
         11   -1    0    0    0    0 -0.00000000000E+00 -0.00000000000E+00 -0.45593999997E+02  0.45594000000E+02  0.51100000000E-03 0.  1.
    9900012    2    1    2    0    0 -0.42311228624E+02  0.53186838932E+00  0.96488750931E+01  0.47787265649E+02  0.19999975400E+02 0.  0.
         12    1    1    2    0    0  0.42311228624E+02 -0.53186838932E+00 -0.96488750931E+01  0.43400734351E+02  0.00000000000E+00 0. -1.
         11    1    3    3    0    0 -0.87390085016E+01 -0.71250410620E+01  0.41302309649E+01  0.12008134235E+02  0.51100000000E-03 0. -1.
        -11    1    3    3    0    0 -0.24025881767E+02  0.88101424814E+01  0.25573474782E+01  0.25717729908E+02  0.51100000000E-03 0.  1.
         12    1    3    3    0    0 -0.95463383553E+01 -0.11532330300E+01  0.29612966501E+01  0.10061401506E+02  0.00000000000E+00 0. -1.
</event>
<event>
 7    1  0.2751796E-010  0.4778728E+02  0.7816164E-02  0.1312668E+00
        -11   -1    0    0    0    0  0.00000000000E+00  0.00000000000E+00  0.45593999997E+02  0.45594000000E+02  0.51100000000E-03 0. -1.
         11   -1    0    0    0    0 -0.00000000000E+00 -0.00000000000E+00 -0.45593999997E+02  0.45594000000E+02  0.51100000000E-03 0.  1.
    9900012    2    1    2    0    0 -0.25794179181E+02  0.18976427527E+01 -0.34852286558E+02  0.47787278739E+02  0.20000035084E+02 0.  0.
         12    1    1    2    0    0  0.25794179181E+02 -0.18976427527E+01  0.34852286558E+02  0.43400721261E+02  0.00000000000E+00 0. -1.
         11    1    3    3    0    0  0.19984578231E+01  0.29881417606E+01 -0.29508891030E+01  0.46508678342E+01  0.51100000000E-03 0. -1.
        -11    1    3    3    0    0 -0.21263859118E+02 -0.33523393243E+00 -0.18405223638E+02  0.28125012779E+02  0.51100000000E-03 0.  1.
         12    1    3    3    0    0 -0.65287778861E+01 -0.75526507541E+00 -0.13496173816E+02  0.15011398126E+02  0.00000000000E+00 0. -1.
</event>
<event>
 7    1  0.2751796E-010  0.4778727E+02  0.7816164E-02  0.1312668E+00
        -11   -1    0    0    0    0  0.00000000000E+00  0.00000000000E+00  0.45593999997E+02  0.45594000000E+02  0.51100000000E-03 0. -1.
         11   -1    0    0    0    0 -0.00000000000E+00 -0.00000000000E+00 -0.45593999997E+02  0.45594000000E+02  0.51100000000E-03 0.  1.
    9900012    2    1    2    0    0  0.41842552263E+01 -0.42186155465E+02  0.92975024252E+01  0.47787271250E+02  0.20000000935E+02 0.  0.
         12    1    1    2    0    0 -0.41842552263E+01  0.42186155465E+02 -0.92975024252E+01  0.43400728750E+02  0.00000000000E+00 0. -1.
         11    1    3    3    0    0 -0.13314284417E+01  0.67466741572E-01 -0.15072977217E+00  0.13416307920E+01  0.51100000000E-03 0. -1.
        -11    1    3    3    0    0  0.15814503889E+01 -0.11135201253E+02 -0.45054111542E+01  0.12115792265E+02  0.51100000000E-03 0.  1.
        -12    1    3    3    0    0  0.39342332790E+01 -0.31118420953E+02  0.13953643352E+02  0.34329848192E+02  0.00000000000E+00 0.  1.
</event>
<event>
 7    1  0.2751796E-010  0.4778727E+02  0.7816164E-02  0.1312668E+00
        -11   -1    0    0    0    0  0.00000000000E+00  0.00000000000E+00  0.45593999997E+02  0.45594000000E+02  0.51100000000E-03 0.  1.
         11   -1    0    0    0    0 -0.00000000000E+00 -0.00000000000E+00 -0.45593999997E+02  0.45594000000E+02  0.51100000000E-03 0. -1.
    9900012    2    1    2    0    0 -0.25219096695E+02 -0.35166383708E+02  0.33084067505E+01  0.47787274932E+02  0.20000017724E+02 0.  0.
         12    1    1    2    0    0  0.25219096695E+02  0.35166383708E+02 -0.33084067505E+01  0.43400725068E+02  0.00000000000E+00 0. -1.
         11    1    3    3    0    0 -0.13332891745E+01 -0.10458876429E+02 -0.30038913053E+01  0.10963079833E+02  0.51100000000E-03 0. -1.
        -11    1    3    3    0    0 -0.17596785641E+02 -0.21498279375E+02  0.90987619773E+01  0.29233719414E+02  0.51100000000E-03 0.  1.
        -12    1    3    3    0    0 -0.62890218794E+01 -0.32092279038E+01 -0.27864639215E+01  0.75904756850E+01  0.00000000000E+00 0.  1.
</event>
<event>
 7    1  0.2751796E-010  0.4778726E+02  0.7816164E-02  0.1312668E+00
        -11   -1    0    0    0    0  0.00000000000E+00  0.00000000000E+00  0.45593999997E+02  0.45594000000E+02  0.51100000000E-03 0.  1.
         11   -1    0    0    0    0 -0.00000000000E+00 -0.00000000000E+00 -0.45593999997E+02  0.45594000000E+02  0.51100000000E-03 0. -1.
    9900012    2    1    2    0    0  0.30029079492E+02 -0.11067152511E+02  0.29315463716E+02  0.47787263915E+02  0.19999967494E+02 0.  0.
         12    1    1    2    0    0 -0.30029079492E+02  0.11067152511E+02 -0.29315463716E+02  0.43400736085E+02  0.00000000000E+00 0. -1.
         11    1    3    3    0    0  0.13752374156E+02 -0.10825726432E+02  0.19527513994E+02  0.26223042362E+02  0.51100000000E-03 0. -1.
        -11    1    3    3    0    0  0.99004557503E+01  0.33981714232E+01  0.96258754448E+01  0.14220551024E+02  0.51100000000E-03 0.  1.
         12    1    3    3    0    0  0.63762495859E+01 -0.36395975022E+01  0.16207427724E+00  0.73436705285E+01  0.00000000000E+00 0. -1.
</event>
<event>
 7    1  0.2751796E-010  0.4778727E+02  0.7816164E-02  0.1312668E+00
        -11   -1    0    0    0    0  0.00000000000E+00  0.00000000000E+00  0.45593999997E+02  0.45594000000E+02  0.51100000000E-03 0.  1.
         11   -1    0    0    0    0 -0.00000000000E+00 -0.00000000000E+00 -0.45593999997E+02  0.45594000000E+02  0.51100000000E-03 0. -1.
    9900012    2    1    2    0    0  0.22592684465E+02  0.20871222881E+02  0.30620019832E+02  0.47787274771E+02  0.20000016993E+02 0.  0.
         12    1    1    2    0    0 -0.22592684465E+02 -0.20871222881E+02 -0.30620019832E+02  0.43400725229E+02  0.00000000000E+00 0. -1.
         11    1    3    3    0    0  0.14332035629E+02  0.16701309302E+01  0.12111318634E+02  0.18838275449E+02  0.51100000000E-03 0. -1.
        -11    1    3    3    0    0  0.85927837794E+01  0.18542282389E+02  0.19123535610E+02  0.27988600961E+02  0.51100000000E-03 0.  1.
         12    1    3    3    0    0 -0.33213494302E+00  0.65880956167E+00 -0.61483441171E+00  0.96039836148E+00  0.00000000000E+00 0. -1.
</event>
<event>
 7    1  0.2751796E-010  0.4778727E+02  0.7816164E-02  0.1312668E+00
        -11   -1    0    0    0    0  0.00000000000E+00  0.00000000000E+00  0.45593999997E+02  0.45594000000E+02  0.51100000000E-03 0. -1.
         11   -1    0    0    0    0 -0.00000000000E+00 -0.00000000000E+00 -0.45593999997E+02  0.45594000000E+02  0.51100000000E-03 0.  1.
    9900012    2    1    2    0    0  0.20081509838E+02  0.24440266561E+02 -0.29715815317E+02  0.47787270203E+02  0.19999996165E+02 0.  0.
         12    1    1    2    0    0 -0.20081509838E+02 -0.24440266561E+02  0.29715815317E+02  0.43400729797E+02  0.00000000000E+00 0. -1.
         11    1    3    3    0    0  0.10769261837E+02  0.22583062221E+02 -0.23462973081E+02  0.34299895128E+02  0.51100000000E-03 0. -1.
        -11    1    3    3    0    0  0.18566758443E+01  0.18095770926E+01 -0.53909654417E+01  0.59819999247E+01  0.51100000000E-03 0.  1.
         12    1    3    3    0    0  0.74555721565E+01  0.47627247414E-01 -0.86187679486E+00  0.75053751502E+01  0.00000000000E+00 0. -1.
</event>
<event>
 7    1  0.2751796E-010  0.4778728E+02  0.7816164E-02  0.1312668E+00
        -11   -1    0    0    0    0  0.00000000000E+00  0.00000000000E+00  0.45593999997E+02  0.45594000000E+02  0.51100000000E-03 0. -1.
         11   -1    0    0    0    0 -0.00000000000E+00 -0.00000000000E+00 -0.45593999997E+02  0.45594000000E+02  0.51100000000E-03 0.  1.
    9900012    2    1    2    0    0  0.42965577644E+02  0.34383895702E+01 -0.50753814685E+01  0.47787275557E+02  0.20000020574E+02 0.  0.
         12    1    1    2    0    0 -0.42965577644E+02 -0.34383895702E+01  0.50753814685E+01  0.43400724443E+02  0.00000000000E+00 0. -1.
         11    1    3    3    0    0  0.15229330313E+02 -0.74386126170E+01 -0.10224118246E+01  0.16979716890E+02  0.51100000000E-03 0. -1.
        -11    1    3    3    0    0  0.95057847994E+01  0.53851589618E+00 -0.21703290849E+01  0.97652584513E+01  0.51100000000E-03 0.  1.
         12    1    3    3    0    0  0.18230462532E+02  0.10338486291E+02 -0.18826405590E+01  0.21042300216E+02  0.00000000000E+00 0. -1.
</event>
<event>
 7    1  0.2751796E-010  0.4778728E+02  0.7816164E-02  0.1312668E+00
        -11   -1    0    0    0    0  0.00000000000E+00  0.00000000000E+00  0.45593999997E+02  0.45594000000E+02  0.51100000000E-03 0.  1.
         11   -1    0    0    0    0 -0.00000000000E+00 -0.00000000000E+00 -0.45593999997E+02  0.45594000000E+02  0.51100000000E-03 0. -1.
    9900012    2    1    2    0    0 -0.28579273120E+02  0.81522332032E+01  0.31628916515E+02  0.47787284359E+02  0.20000060705E+02 0.  0.
         12    1    1    2    0    0  0.28579273120E+02 -0.81522332032E+01 -0.31628916515E+02  0.43400715641E+02  0.00000000000E+00 0. -1.
         11    1    3    3    0    0  0.13470012379E+01  0.44740537902E+01  0.66080822233E+01  0.80931032727E+01  0.51100000000E-03 0. -1.
        -11    1    3    3    0    0 -0.29042444714E+02  0.45973921954E+01  0.24640604889E+02  0.38363511564E+02  0.51100000000E-03 0.  1.
         12    1    3    3    0    0 -0.88382964332E+00 -0.91921278235E+00  0.38022940281E+00  0.13306695219E+01  0.00000000000E+00 0. -1.
</event>
<event>
 7    1  0.2751796E-010  0.4778727E+02  0.7816164E-02  0.1312668E+00
        -11   -1    0    0    0    0  0.00000000000E+00  0.00000000000E+00  0.45593999997E+02  0.45594000000E+02  0.51100000000E-03 0.  1.
         11   -1    0    0    0    0 -0.00000000000E+00 -0.00000000000E+00 -0.45593999997E+02  0.45594000000E+02  0.51100000000E-03 0. -1.
    9900012    2    1    2    0    0 -0.39729643282E+02  0.31975220181E+01 -0.17174243170E+02  0.47787270388E+02  0.19999997009E+02 0.  0.
         12    1    1    2    0    0  0.39729643282E+02 -0.31975220181E+01  0.17174243170E+02  0.43400729612E+02  0.00000000000E+00 0. -1.
         11    1    3    3    0    0 -0.55562439403E+01  0.52950476017E+01 -0.66752901305E+01  0.10171965121E+02  0.51100000000E-03 0. -1.
        -11    1    3    3    0    0 -0.34513005920E+02 -0.15988652049E+01 -0.85739681239E+01  0.35597989792E+02  0.51100000000E-03 0.  1.
         12    1    3    3    0    0  0.33960657878E+00 -0.49866037868E+00 -0.19249849160E+01  0.20173154757E+01  0.00000000000E+00 0. -1.
</event>
<event>
 7    1  0.2751796E-010  0.4778727E+02  0.7816164E-02  0.1312668E+00
        -11   -1    0    0    0    0  0.00000000000E+00  0.00000000000E+00  0.45593999997E+02  0.45594000000E+02  0.51100000000E-03 0. -1.
         11   -1    0    0    0    0 -0.00000000000E+00 -0.00000000000E+00 -0.45593999997E+02  0.45594000000E+02  0.51100000000E-03 0.  1.
    9900012    2    1    2    0    0 -0.27376140929E+02 -0.12298074062E+02 -0.31351675471E+02  0.47787271059E+02  0.20000000067E+02 0.  0.
         12    1    1    2    0    0  0.27376140929E+02  0.12298074062E+02  0.31351675471E+02  0.43400728941E+02  0.00000000000E+00 0. -1.
         11    1    3    3    0    0 -0.12293685049E+02 -0.11119664187E+02 -0.52658690120E+01  0.17392843368E+02  0.51100000000E-03 0. -1.
        -11    1    3    3    0    0 -0.43104025296E+01 -0.11522650181E+01 -0.10883130017E+02  0.11762219343E+02  0.51100000000E-03 0.  1.
         12    1    3    3    0    0 -0.10772053350E+02 -0.26144856495E-01 -0.15202676442E+02  0.18632208348E+02  0.00000000000E+00 0. -1.
</event>
<event>
 7    1  0.2751796E-010  0.4778727E+02  0.7816164E-02  0.1312668E+00
        -11   -1    0    0    0    0  0.00000000000E+00  0.00000000000E+00  0.45593999997E+02  0.45594000000E+02  0.51100000000E-03 0.  1.
         11   -1    0    0    0    0 -0.00000000000E+00 -0.00000000000E+00 -0.45593999997E+02  0.45594000000E+02  0.51100000000E-03 0. -1.
    9900012    2    1    2    0    0 -0.95544561264E+01 -0.33782611214E+02  0.25516088167E+02  0.47787271807E+02  0.20000003478E+02 0.  0.
         12    1    1    2    0    0  0.95544561264E+01  0.33782611214E+02 -0.25516088167E+02  0.43400728193E+02  0.00000000000E+00 0. -1.
         11    1    3    3    0    0 -0.49766546623E+01 -0.23825733031E+01  0.26714974537E+01  0.61303055453E+01  0.51100000000E-03 0. -1.
        -11    1    3    3    0    0 -0.52165103835E+01 -0.31415441994E+02  0.24306332552E+02  0.40061699647E+02  0.51100000000E-03 0.  1.
        -12    1    3    3    0    0  0.63870891950E+00  0.15404083164E-01 -0.14617418384E+01  0.15952666147E+01  0.00000000000E+00 0.  1.
</event>
<event>
 7    1  0.2751796E-010  0.4778727E+02  0.7816164E-02  0.1312668E+00
        -11   -1    0    0    0    0  0.00000000000E+00  0.00000000000E+00  0.45593999997E+02  0.45594000000E+02  0.51100000000E-03 0. -1.
         11   -1    0    0    0    0 -0.00000000000E+00 -0.00000000000E+00 -0.45593999997E+02  0.45594000000E+02  0.51100000000E-03 0.  1.
    9900012    2    1    2    0    0  0.33041328004E+02 -0.26849431079E+02 -0.84262828239E+01  0.47787267888E+02  0.19999985611E+02 0.  0.
         12    1    1    2    0    0 -0.33041328004E+02  0.26849431079E+02  0.84262828239E+01  0.43400732112E+02  0.00000000000E+00 0. -1.
         11    1    3    3    0    0  0.37044165750E+01 -0.39931457448E+01  0.48294662652E+01  0.72795370573E+01  0.51100000000E-03 0. -1.
        -11    1    3    3    0    0  0.16066838744E+02 -0.10704617952E+02 -0.23032285752E+01  0.19443173991E+02  0.51100000000E-03 0.  1.
         12    1    3    3    0    0  0.13270072686E+02 -0.12151667383E+02 -0.10952520514E+02  0.21064556840E+02  0.00000000000E+00 0. -1.
</event>
<event>
 7    1  0.2751796E-010  0.4778727E+02  0.7816164E-02  0.1312668E+00
        -11   -1    0    0    0    0  0.00000000000E+00  0.00000000000E+00  0.45593999997E+02  0.45594000000E+02  0.51100000000E-03 0.  1.
         11   -1    0    0    0    0 -0.00000000000E+00 -0.00000000000E+00 -0.45593999997E+02  0.45594000000E+02  0.51100000000E-03 0. -1.
    9900012    2    1    2    0    0 -0.17714270002E+02 -0.38119401948E+02  0.10804586526E+02  0.47787271244E+02  0.20000000910E+02 0.  0.
         12    1    1    2    0    0  0.17714270002E+02  0.38119401948E+02 -0.10804586526E+02  0.43400728756E+02  0.00000000000E+00 0. -1.
         11    1    3    3    0    0 -0.39030533741E+01 -0.97139546562E+01 -0.20945692008E+01  0.10676233470E+02  0.51100000000E-03 0. -1.
        -11    1    3    3    0    0 -0.50889380936E+01 -0.18255643407E+02  0.14176876460E+02  0.23667480507E+02  0.51100000000E-03 0.  1.
        -12    1    3    3    0    0 -0.87222785344E+01 -0.10149803884E+02 -0.12777207331E+01  0.13443557267E+02  0.00000000000E+00 0.  1.
</event>
<event>
 7    1  0.2751796E-010  0.4778727E+02  0.7816164E-02  0.1312668E+00
        -11   -1    0    0    0    0  0.00000000000E+00  0.00000000000E+00  0.45593999997E+02  0.45594000000E+02  0.51100000000E-03 0.  1.
         11   -1    0    0    0    0 -0.00000000000E+00 -0.00000000000E+00 -0.45593999997E+02  0.45594000000E+02  0.51100000000E-03 0. -1.
    9900012    2    1    2    0    0 -0.32098860298E+02 -0.25232730776E+02  0.14717182546E+02  0.47787274235E+02  0.20000014547E+02 0.  0.
         12    1    1    2    0    0  0.32098860298E+02  0.25232730776E+02 -0.14717182546E+02  0.43400725765E+02  0.00000000000E+00 0. -1.
         11    1    3    3    0    0 -0.85326824004E+01 -0.21483993079E+01 -0.29142682144E+01  0.92690478485E+01  0.51100000000E-03 0. -1.
        -11    1    3    3    0    0 -0.13341657969E+02 -0.16259402392E+02  0.15292980078E+02  0.26004677338E+02  0.51100000000E-03 0.  1.
        -12    1    3    3    0    0 -0.10224519928E+02 -0.68249290766E+01  0.23384706823E+01  0.12513549049E+02  0.00000000000E+00 0.  1.
</event>
<event>
 7    1  0.2751796E-010  0.4778726E+02  0.7816164E-02  0.1312668E+00
        -11   -1    0    0    0    0  0.00000000000E+00  0.00000000000E+00  0.45593999997E+02  0.45594000000E+02  0.51100000000E-03 0. -1.
         11   -1    0    0    0    0 -0.00000000000E+00 -0.00000000000E+00 -0.45593999997E+02  0.45594000000E+02  0.51100000000E-03 0.  1.
    9900012    2    1    2    0    0 -0.28478532956E+02 -0.24999671862E+02 -0.21156876977E+02  0.47787264108E+02  0.19999968373E+02 0.  0.
         12    1    1    2    0    0  0.28478532956E+02  0.24999671862E+02  0.21156876977E+02  0.43400735892E+02  0.00000000000E+00 0. -1.
         11    1    3    3    0    0 -0.90433920632E+01 -0.96296680019E+01  0.53023093620E+00  0.13220990543E+02  0.51100000000E-03 0. -1.
        -11    1    3    3    0    0 -0.56310373445E+01 -0.89073744582E+01 -0.13921052442E+02  0.17459828254E+02  0.51100000000E-03 0.  1.
        -12    1    3    3    0    0 -0.13804103549E+02 -0.64626294017E+01 -0.77660554713E+01  0.17106445310E+02  0.00000000000E+00 0.  1.
</event>
<event>
 7    1  0.2751796E-010  0.4778726E+02  0.7816164E-02  0.1312668E+00
        -11   -1    0    0    0    0  0.00000000000E+00  0.00000000000E+00  0.45593999997E+02  0.45594000000E+02  0.51100000000E-03 0.  1.
         11   -1    0    0    0    0 -0.00000000000E+00 -0.00000000000E+00 -0.45593999997E+02  0.45594000000E+02  0.51100000000E-03 0. -1.
    9900012    2    1    2    0    0 -0.45488778472E+01 -0.23477990480E+01  0.43097797751E+02  0.47787255524E+02  0.19999929236E+02 0.  0.
         12    1    1    2    0    0  0.45488778472E+01  0.23477990480E+01 -0.43097797751E+02  0.43400744476E+02  0.00000000000E+00 0. -1.
         11    1    3    3    0    0  0.45591422960E-02 -0.93976272039E+00 -0.64344551271E+00  0.11389456288E+01  0.51100000000E-03 0. -1.
        -11    1    3    3    0    0  0.26780418942E+01  0.54727391151E+01  0.19587066807E+02  0.20512824481E+02  0.51100000000E-03 0.  1.
        -12    1    3    3    0    0 -0.72314788837E+01 -0.68807754427E+01  0.24154176457E+02  0.26135485414E+02  0.00000000000E+00 0.  1.
</event>
<event>
 7    1  0.2751796E-010  0.4778725E+02  0.7816164E-02  0.1312668E+00
        -11   -1    0    0    0    0  0.00000000000E+00  0.00000000000E+00  0.45593999997E+02  0.45594000000E+02  0.51100000000E-03 0.  1.
         11   -1    0    0    0    0 -0.00000000000E+00 -0.00000000000E+00 -0.45593999997E+02  0.45594000000E+02  0.51100000000E-03 0. -1.
    9900012    2    1    2    0    0 -0.36473213036E+02  0.21092871977E+02  0.10412517579E+02  0.47787250701E+02  0.19999907245E+02 0.  0.
         12    1    1    2    0    0  0.36473213036E+02 -0.21092871977E+02 -0.10412517579E+02  0.43400749299E+02  0.00000000000E+00 0. -1.
         11    1    3    3    0    0 -0.17199813137E+01 -0.96729080806E+00  0.39792817845E+01  0.44416968614E+01  0.51100000000E-03 0. -1.
        -11    1    3    3    0    0 -0.32491474523E+02  0.15642490872E+02  0.54465550402E+01  0.36469828618E+02  0.51100000000E-03 0.  1.
        -12    1    3    3    0    0 -0.22617571991E+01  0.64176719127E+01  0.98668075454E+00  0.68757252213E+01  0.00000000000E+00 0.  1.
</event>
<event>
 7    1  0.2751796E-010  0.4778727E+02  0.7816164E-02  0.1312668E+00
        -11   -1    0    0    0    0  0.00000000000E+00  0.00000000000E+00  0.45593999997E+02  0.45594000000E+02  0.51100000000E-03 0. -1.
         11   -1    0    0    0    0 -0.00000000000E+00 -0.00000000000E+00 -0.45593999997E+02  0.45594000000E+02  0.51100000000E-03 0.  1.
    9900012    2    1    2    0    0 -0.19165794638E+02 -0.26073218706E+02 -0.28922015397E+02  0.47787269679E+02  0.19999993774E+02 0.  0.
         12    1    1    2    0    0  0.19165794638E+02  0.26073218706E+02  0.28922015397E+02  0.43400730321E+02  0.00000000000E+00 0. -1.
         11    1    3    3    0    0 -0.16052093284E+02 -0.17974403459E+02 -0.16492699245E+02  0.29202020600E+02  0.51100000000E-03 0. -1.
        -11    1    3    3    0    0  0.21415939871E+01 -0.80026328791E+01 -0.93559434673E+01  0.12496488956E+02  0.51100000000E-03 0.  1.
         12    1    3    3    0    0 -0.52552953414E+01 -0.96182367959E-01 -0.30733726843E+01  0.60887601226E+01  0.00000000000E+00 0. -1.
</event>
<event>
 7    1  0.2751796E-010  0.4778727E+02  0.7816164E-02  0.1312668E+00
        -11   -1    0    0    0    0  0.00000000000E+00  0.00000000000E+00  0.45593999997E+02  0.45594000000E+02  0.51100000000E-03 0.  1.
         11   -1    0    0    0    0 -0.00000000000E+00 -0.00000000000E+00 -0.45593999997E+02  0.45594000000E+02  0.51100000000E-03 0. -1.
    9900012    2    1    2    0    0  0.17743996495E+02  0.29809304813E+02  0.26080247403E+02  0.47787269941E+02  0.19999994970E+02 0.  0.
         12    1    1    2    0    0 -0.17743996495E+02 -0.29809304813E+02 -0.26080247403E+02  0.43400730059E+02  0.00000000000E+00 0. -1.
         11    1    3    3    0    0  0.49230320890E+00 -0.13509929939E+01  0.29715323702E+01  0.33011436514E+01  0.51100000000E-03 0. -1.
        -11    1    3    3    0    0  0.89433913878E+01  0.25057112563E+02  0.21161253672E+02  0.33994731897E+02  0.51100000000E-03 0.  1.
        -12    1    3    3    0    0  0.83083018980E+01  0.61031852442E+01  0.19474613604E+01  0.10491394393E+02  0.00000000000E+00 0.  1.
</event>
<event>
 7    1  0.2751796E-010  0.4778727E+02  0.7816164E-02  0.1312668E+00
        -11   -1    0    0    0    0  0.00000000000E+00  0.00000000000E+00  0.45593999997E+02  0.45594000000E+02  0.51100000000E-03 0.  1.
         11   -1    0    0    0    0 -0.00000000000E+00 -0.00000000000E+00 -0.45593999997E+02  0.45594000000E+02  0.51100000000E-03 0. -1.
    9900012    2    1    2    0    0 -0.30643202382E+01  0.11763444616E+02  0.41663587226E+02  0.47787272030E+02  0.20000004496E+02 0.  0.
         12    1    1    2    0    0  0.30643202382E+01 -0.11763444616E+02 -0.41663587226E+02  0.43400727970E+02  0.00000000000E+00 0. -1.
         11    1    3    3    0    0  0.36609601365E+00 -0.31796742538E+01  0.62163399367E+00  0.32604882663E+01  0.51100000000E-03 0. -1.
        -11    1    3    3    0    0 -0.47174922283E+01  0.15090648351E+02  0.39256359609E+02  0.42320729798E+02  0.51100000000E-03 0.  1.
        -12    1    3    3    0    0  0.12870759764E+01 -0.14752948105E+00  0.17855936229E+01  0.22060539665E+01  0.00000000000E+00 0.  1.
</event>
<event>
 7    1  0.2751796E-010  0.4778727E+02  0.7816164E-02  0.1312668E+00
        -11   -1    0    0    0    0  0.00000000000E+00  0.00000000000E+00  0.45593999997E+02  0.45594000000E+02  0.51100000000E-03 0.  1.
         11   -1    0    0    0    0 -0.00000000000E+00 -0.00000000000E+00 -0.45593999997E+02  0.45594000000E+02  0.51100000000E-03 0. -1.
    9900012    2    1    2    0    0 -0.19063904567E+02  0.13489718005E+01  0.38966277896E+02  0.47787274253E+02  0.20000014630E+02 0.  0.
         12    1    1    2    0    0  0.19063904567E+02 -0.13489718005E+01 -0.38966277896E+02  0.43400725747E+02  0.00000000000E+00 0. -1.
         11    1    3    3    0    0 -0.94011870556E+01 -0.24170611115E+00  0.38887167843E+01  0.10176583827E+02  0.51100000000E-03 0. -1.
        -11    1    3    3    0    0  0.17626726703E+00 -0.58825201580E+00  0.16200778202E+02  0.16212412689E+02  0.51100000000E-03 0.  1.
        -12    1    3    3    0    0 -0.98389847785E+01  0.21789299275E+01  0.18876782910E+02  0.21398277737E+02  0.00000000000E+00 0.  1.
</event>
<event>
 7    1  0.2751796E-010  0.4778727E+02  0.7816164E-02  0.1312668E+00
        -11   -1    0    0    0    0  0.00000000000E+00  0.00000000000E+00  0.45593999997E+02  0.45594000000E+02  0.51100000000E-03 0.  1.
         11   -1    0    0    0    0 -0.00000000000E+00 -0.00000000000E+00 -0.45593999997E+02  0.45594000000E+02  0.51100000000E-03 0. -1.
    9900012    2    1    2    0    0  0.22091573525E+02  0.15292264599E+02  0.34084191226E+02  0.47787273406E+02  0.20000010766E+02 0.  0.
         12    1    1    2    0    0 -0.22091573525E+02 -0.15292264599E+02 -0.34084191226E+02  0.43400726594E+02  0.00000000000E+00 0. -1.
         11    1    3    3    0    0 -0.14263142401E+00 -0.25125589734E+01  0.27370272234E+00  0.25314442043E+01  0.51100000000E-03 0. -1.
        -11    1    3    3    0    0  0.13076494298E+02  0.13119230741E+02  0.15075904282E+02  0.23882876890E+02  0.51100000000E-03 0.  1.
        -12    1    3    3    0    0  0.91577106505E+01  0.46855928320E+01  0.18734584222E+02  0.21372952312E+02  0.00000000000E+00 0.  1.
</event>
<event>
 7    1  0.2751796E-010  0.4778727E+02  0.7816164E-02  0.1312668E+00
        -11   -1    0    0    0    0  0.00000000000E+00  0.00000000000E+00  0.45593999997E+02  0.45594000000E+02  0.51100000000E-03 0.  1.
         11   -1    0    0    0    0 -0.00000000000E+00 -0.00000000000E+00 -0.45593999997E+02  0.45594000000E+02  0.51100000000E-03 0. -1.
    9900012    2    1    2    0    0  0.24489094236E+01  0.11181683238E+02  0.41864020749E+02  0.47787269238E+02  0.19999991764E+02 0.  0.
         12    1    1    2    0    0 -0.24489094236E+01 -0.11181683238E+02 -0.41864020749E+02  0.43400730762E+02  0.00000000000E+00 0. -1.
         11    1    3    3    0    0  0.43139669324E+01  0.98096783731E+01  0.84710860449E+01  0.13660139074E+02  0.51100000000E-03 0. -1.
        -11    1    3    3    0    0 -0.42946109406E+01  0.11895036129E+01  0.18050527317E+02  0.18592475324E+02  0.51100000000E-03 0.  1.
         12    1    3    3    0    0  0.24295534318E+01  0.18250125221E+00  0.15342407387E+02  0.15534654840E+02  0.00000000000E+00 0. -1.
</event>
<event>
 7    1  0.2751796E-010  0.4778727E+02  0.7816164E-02  0.1312668E+00
        -11   -1    0    0    0    0  0.00000000000E+00  0.00000000000E+00  0.45593999997E+02  0.45594000000E+02  0.51100000000E-03 0. -1.
         11   -1    0    0    0    0 -0.00000000000E+00 -0.00000000000E+00 -0.45593999997E+02  0.45594000000E+02  0.51100000000E-03 0.  1.
    9900012    2    1    2    0    0  0.18673186867E+02  0.39140825223E+02 -0.17120465035E+01  0.47787271779E+02  0.20000003347E+02 0.  0.
         12    1    1    2    0    0 -0.18673186867E+02 -0.39140825223E+02  0.17120465035E+01  0.43400728221E+02  0.00000000000E+00 0. -1.
         11    1    3    3    0    0  0.94312298446E+01  0.27105439592E+01 -0.96009418676E+00  0.98598644030E+01  0.51100000000E-03 0. -1.
        -11    1    3    3    0    0  0.83016713643E+01  0.25484640331E+02  0.90077421498E+00  0.26817830536E+02  0.51100000000E-03 0.  1.
         12    1    3    3    0    0  0.94028565838E+00  0.10945640933E+02 -0.16527265318E+01  0.11109576839E+02  0.00000000000E+00 0. -1.
</event>
<event>
 7    1  0.2751796E-010  0.4778728E+02  0.7816164E-02  0.1312668E+00
        -11   -1    0    0    0    0  0.00000000000E+00  0.00000000000E+00  0.45593999997E+02  0.45594000000E+02  0.51100000000E-03 0.  1.
         11   -1    0    0    0    0 -0.00000000000E+00 -0.00000000000E+00 -0.45593999997E+02  0.45594000000E+02  0.51100000000E-03 0. -1.
    9900012    2    1    2    0    0  0.34332465078E+02  0.26399337046E+02 -0.28247541317E+01  0.47787281219E+02  0.20000046391E+02 0.  0.
         12    1    1    2    0    0 -0.34332465078E+02 -0.26399337046E+02  0.28247541317E+01  0.43400718781E+02  0.00000000000E+00 0. -1.
         11    1    3    3    0    0 -0.10805486890E+01  0.52657727207E+01 -0.26267065985E+01  0.59829370406E+01  0.51100000000E-03 0. -1.
        -11    1    3    3    0    0  0.75035382675E+01  0.66246764765E+01  0.22314722978E+01  0.10255188630E+02  0.51100000000E-03 0.  1.
         12    1    3    3    0    0  0.27909475500E+02  0.14508887848E+02 -0.24295198310E+01  0.31549155549E+02  0.00000000000E+00 0. -1.
</event>
<event>
 7    1  0.2751796E-010  0.4778727E+02  0.7816164E-02  0.1312668E+00
        -11   -1    0    0    0    0  0.00000000000E+00  0.00000000000E+00  0.45593999997E+02  0.45594000000E+02  0.51100000000E-03 0.  1.
         11   -1    0    0    0    0 -0.00000000000E+00 -0.00000000000E+00 -0.45593999997E+02  0.45594000000E+02  0.51100000000E-03 0. -1.
    9900012    2    1    2    0    0  0.57633615234E+01  0.99240058061E+01  0.41855954437E+02  0.47787272481E+02  0.20000006551E+02 0.  0.
         12    1    1    2    0    0 -0.57633615234E+01 -0.99240058061E+01 -0.41855954437E+02  0.43400727519E+02  0.00000000000E+00 0. -1.
         11    1    3    3    0    0  0.57548150968E+01  0.29762916603E+01  0.23342797446E+01  0.68865863120E+01  0.51100000000E-03 0. -1.
        -11    1    3    3    0    0  0.33139968884E+01  0.74282374863E+00  0.10312813765E+02  0.10857646638E+02  0.51100000000E-03 0.  1.
         12    1    3    3    0    0 -0.33054504617E+01  0.62048903971E+01  0.29208860928E+02  0.30043039532E+02  0.00000000000E+00 0. -1.
</event>
<event>
 7    1  0.2751796E-010  0.4778727E+02  0.7816164E-02  0.1312668E+00
        -11   -1    0    0    0    0  0.00000000000E+00  0.00000000000E+00  0.45593999997E+02  0.45594000000E+02  0.51100000000E-03 0.  1.
         11   -1    0    0    0    0 -0.00000000000E+00 -0.00000000000E+00 -0.45593999997E+02  0.45594000000E+02  0.51100000000E-03 0. -1.
    9900012    2    1    2    0    0 -0.25657357279E+02 -0.22230431558E+02  0.27039442097E+02  0.47787268454E+02  0.19999988190E+02 0.  0.
         12    1    1    2    0    0  0.25657357279E+02  0.22230431558E+02 -0.27039442097E+02  0.43400731546E+02  0.00000000000E+00 0. -1.
         11    1    3    3    0    0  0.48926447647E+00  0.11129004298E+01  0.43686677730E+01  0.45346648681E+01  0.51100000000E-03 0. -1.
        -11    1    3    3    0    0 -0.18360837876E+02 -0.17619985024E+02  0.10056947213E+02  0.27362865845E+02  0.51100000000E-03 0.  1.
        -12    1    3    3    0    0 -0.77857838790E+01 -0.57233469638E+01  0.12613827111E+02  0.15889737741E+02  0.00000000000E+00 0.  1.
</event>
<event>
 7    1  0.2751796E-010  0.4778727E+02  0.7816164E-02  0.1312668E+00
        -11   -1    0    0    0    0  0.00000000000E+00  0.00000000000E+00  0.45593999997E+02  0.45594000000E+02  0.51100000000E-03 0. -1.
         11   -1    0    0    0    0 -0.00000000000E+00 -0.00000000000E+00 -0.45593999997E+02  0.45594000000E+02  0.51100000000E-03 0.  1.
    9900012    2    1    2    0    0 -0.43084142395E+02  0.46007450921E+01  0.24926189091E+01  0.47787270394E+02  0.19999997035E+02 0.  0.
         12    1    1    2    0    0  0.43084142395E+02 -0.46007450921E+01 -0.24926189091E+01  0.43400729606E+02  0.00000000000E+00 0. -1.
         11    1    3    3    0    0 -0.36686816818E+02  0.15274145500E+00  0.54734351515E+01  0.37093184695E+02  0.51100000000E-03 0. -1.
        -11    1    3    3    0    0  0.25002965320E+00  0.20961856701E+01  0.12672196781E+01  0.24621850386E+01  0.51100000000E-03 0.  1.
         12    1    3    3    0    0 -0.66473552300E+01  0.23518179671E+01 -0.42480359204E+01  0.82319006605E+01  0.00000000000E+00 0. -1.
</event>
<event>
 7    1  0.2751796E-010  0.4778727E+02  0.7816164E-02  0.1312668E+00
        -11   -1    0    0    0    0  0.00000000000E+00  0.00000000000E+00  0.45593999997E+02  0.45594000000E+02  0.51100000000E-03 0. -1.
         11   -1    0    0    0    0 -0.00000000000E+00 -0.00000000000E+00 -0.45593999997E+02  0.45594000000E+02  0.51100000000E-03 0.  1.
    9900012    2    1    2    0    0 -0.29694676203E+02 -0.31561171316E+02  0.23962001965E+01  0.47787272989E+02  0.20000008867E+02 0.  0.
         12    1    1    2    0    0  0.29694676203E+02  0.31561171316E+02 -0.23962001965E+01  0.43400727011E+02  0.00000000000E+00 0. -1.
         11    1    3    3    0    0 -0.27293178732E+01 -0.59266670654E+01 -0.26907035934E+01  0.70579348712E+01  0.51100000000E-03 0. -1.
        -11    1    3    3    0    0 -0.16688879792E+02 -0.60146730678E+01 -0.97535598126E+00  0.17766438033E+02  0.51100000000E-03 0.  1.
        -12    1    3    3    0    0 -0.10276478538E+02 -0.19619831183E+02  0.60622597712E+01  0.22962900086E+02  0.00000000000E+00 0.  1.
</event>
<event>
 7    1  0.2751796E-010  0.4778727E+02  0.7816164E-02  0.1312668E+00
        -11   -1    0    0    0    0  0.00000000000E+00  0.00000000000E+00  0.45593999997E+02  0.45594000000E+02  0.51100000000E-03 0. -1.
         11   -1    0    0    0    0 -0.00000000000E+00 -0.00000000000E+00 -0.45593999997E+02  0.45594000000E+02  0.51100000000E-03 0.  1.
    9900012    2    1    2    0    0  0.41467342978E+02  0.18195081986E+01 -0.12679588023E+02  0.47787273091E+02  0.20000009333E+02 0.  0.
         12    1    1    2    0    0 -0.41467342978E+02 -0.18195081986E+01  0.12679588023E+02  0.43400726909E+02  0.00000000000E+00 0. -1.
         11    1    3    3    0    0  0.26695852109E+01 -0.86057984013E-01 -0.45892555369E+01  0.53099301143E+01  0.51100000000E-03 0. -1.
        -11    1    3    3    0    0  0.18672277882E+02  0.81934742855E+01 -0.61764669856E+01  0.21305767455E+02  0.51100000000E-03 0.  1.
        -12    1    3    3    0    0  0.20125479886E+02 -0.62879081029E+01 -0.19138655004E+01  0.21171575522E+02  0.00000000000E+00 0.  1.
</event>
<event>
 7    1  0.2751796E-010  0.4778726E+02  0.7816164E-02  0.1312668E+00
        -11   -1    0    0    0    0  0.00000000000E+00  0.00000000000E+00  0.45593999997E+02  0.45594000000E+02  0.51100000000E-03 0.  1.
         11   -1    0    0    0    0 -0.00000000000E+00 -0.00000000000E+00 -0.45593999997E+02  0.45594000000E+02  0.51100000000E-03 0. -1.
    9900012    2    1    2    0    0  0.13962839921E+02 -0.26239514174E+02  0.31625166453E+02  0.47787260883E+02  0.19999953668E+02 0.  0.
         12    1    1    2    0    0 -0.13962839921E+02  0.26239514174E+02 -0.31625166453E+02  0.43400739117E+02  0.00000000000E+00 0. -1.
         11    1    3    3    0    0  0.65971771215E+01 -0.92871747136E+01  0.71732694443E+01  0.13462174970E+02  0.51100000000E-03 0. -1.
        -11    1    3    3    0    0 -0.43776456250E+00 -0.72683773050E+01  0.45362603125E+00  0.72956646920E+01  0.51100000000E-03 0.  1.
        -12    1    3    3    0    0  0.78034273620E+01 -0.96839621549E+01  0.23998270978E+02  0.27029421221E+02  0.00000000000E+00 0.  1.
</event>
<event>
 7    1  0.2751796E-010  0.4778727E+02  0.7816164E-02  0.1312668E+00
        -11   -1    0    0    0    0  0.00000000000E+00  0.00000000000E+00  0.45593999997E+02  0.45594000000E+02  0.51100000000E-03 0.  1.
         11   -1    0    0    0    0 -0.00000000000E+00 -0.00000000000E+00 -0.45593999997E+02  0.45594000000E+02  0.51100000000E-03 0. -1.
    9900012    2    1    2    0    0 -0.38232618346E+02  0.15983196567E+02  0.12900680689E+02  0.47787271431E+02  0.20000001763E+02 0.  0.
         12    1    1    2    0    0  0.38232618346E+02 -0.15983196567E+02 -0.12900680689E+02  0.43400728569E+02  0.00000000000E+00 0. -1.
         11    1    3    3    0    0 -0.24561162233E+02  0.41247848495E+01  0.19413329789E+01  0.24980658804E+02  0.51100000000E-03 0. -1.
        -11    1    3    3    0    0 -0.13848626550E+02  0.93758626701E+01  0.69997011064E+01  0.18129729010E+02  0.51100000000E-03 0.  1.
         12    1    3    3    0    0  0.17717043797E+00  0.24825490474E+01  0.39596466038E+01  0.46768836166E+01  0.00000000000E+00 0. -1.
</event>
<event>
 7    1  0.2751796E-010  0.4778728E+02  0.7816164E-02  0.1312668E+00
        -11   -1    0    0    0    0  0.00000000000E+00  0.00000000000E+00  0.45593999997E+02  0.45594000000E+02  0.51100000000E-03 0.  1.
         11   -1    0    0    0    0 -0.00000000000E+00 -0.00000000000E+00 -0.45593999997E+02  0.45594000000E+02  0.51100000000E-03 0. -1.
    9900012    2    1    2    0    0  0.34369737230E+02  0.22802743676E+02  0.13504747951E+02  0.47787283720E+02  0.20000057791E+02 0.  0.
         12    1    1    2    0    0 -0.34369737230E+02 -0.22802743676E+02 -0.13504747951E+02  0.43400716280E+02  0.00000000000E+00 0. -1.
         11    1    3    3    0    0  0.27582327963E+02  0.22329708502E+02  0.14555469781E+02  0.38357038447E+02  0.51100000000E-03 0. -1.
        -11    1    3    3    0    0  0.64172327905E+01  0.26394695080E+01  0.12033374807E+00  0.69398959966E+01  0.51100000000E-03 0.  1.
         12    1    3    3    0    0  0.37017647662E+00 -0.21664343337E+01 -0.11710555785E+01  0.24903492755E+01  0.00000000000E+00 0. -1.
</event>
<event>
 7    1  0.2751796E-010  0.4778727E+02  0.7816164E-02  0.1312668E+00
        -11   -1    0    0    0    0  0.00000000000E+00  0.00000000000E+00  0.45593999997E+02  0.45594000000E+02  0.51100000000E-03 0.  1.
         11   -1    0    0    0    0 -0.00000000000E+00 -0.00000000000E+00 -0.45593999997E+02  0.45594000000E+02  0.51100000000E-03 0. -1.
    9900012    2    1    2    0    0 -0.21610703042E+02  0.32842896769E+02 -0.18383290429E+02  0.47787265891E+02  0.19999976505E+02 0.  0.
         12    1    1    2    0    0  0.21610703042E+02 -0.32842896769E+02  0.18383290429E+02  0.43400734109E+02  0.00000000000E+00 0. -1.
         11    1    3    3    0    0  0.17799436796E+01  0.13614937889E+01  0.54317184271E+00  0.23058405737E+01  0.51100000000E-03 0. -1.
        -11    1    3    3    0    0 -0.24151172245E+02  0.28486207249E+02 -0.14455162062E+02  0.40046158802E+02  0.51100000000E-03 0.  1.
        -12    1    3    3    0    0  0.76052552325E+00  0.29951957312E+01 -0.44713002092E+01  0.54352665161E+01  0.00000000000E+00 0.  1.
</event>
<event>
 7    1  0.2751796E-010  0.4778727E+02  0.7816164E-02  0.1312668E+00
        -11   -1    0    0    0    0  0.00000000000E+00  0.00000000000E+00  0.45593999997E+02  0.45594000000E+02  0.51100000000E-03 0.  1.
         11   -1    0    0    0    0 -0.00000000000E+00 -0.00000000000E+00 -0.45593999997E+02  0.45594000000E+02  0.51100000000E-03 0. -1.
    9900012    2    1    2    0    0  0.20754391321E+01  0.18403015052E+02  0.39251049268E+02  0.47787270983E+02  0.19999999718E+02 0.  0.
         12    1    1    2    0    0 -0.20754391321E+01 -0.18403015052E+02 -0.39251049268E+02  0.43400729017E+02  0.00000000000E+00 0. -1.
         11    1    3    3    0    0  0.71610512555E+01  0.42730412787E+01  0.52178835534E+01  0.98369632454E+01  0.51100000000E-03 0. -1.
        -11    1    3    3    0    0 -0.20867382066E+01  0.35478529521E+01  0.31984783875E+01  0.52126769677E+01  0.51100000000E-03 0.  1.
         12    1    3    3    0    0 -0.29988739167E+01  0.10582120821E+02  0.30834687327E+02  0.32737630770E+02  0.00000000000E+00 0. -1.
</event>
<event>
 7    1  0.2751796E-010  0.4778727E+02  0.7816164E-02  0.1312668E+00
        -11   -1    0    0    0    0  0.00000000000E+00  0.00000000000E+00  0.45593999997E+02  0.45594000000E+02  0.51100000000E-03 0.  1.
         11   -1    0    0    0    0 -0.00000000000E+00 -0.00000000000E+00 -0.45593999997E+02  0.45594000000E+02  0.51100000000E-03 0. -1.
    9900012    2    1    2    0    0  0.23223077831E+02 -0.32879383248E+02 -0.16225219801E+02  0.47787274841E+02  0.20000017312E+02 0.  0.
         12    1    1    2    0    0 -0.23223077831E+02  0.32879383248E+02  0.16225219801E+02  0.43400725159E+02  0.00000000000E+00 0. -1.
         11    1    3    3    0    0  0.12689601596E+02 -0.25578627332E+02 -0.12685683574E+02  0.31244499242E+02  0.51100000000E-03 0. -1.
        -11    1    3    3    0    0  0.11887371503E+02 -0.60941410515E+01 -0.96451715151E+00  0.13393224034E+02  0.51100000000E-03 0.  1.
        -12    1    3    3    0    0 -0.13538952688E+01 -0.12066148644E+01 -0.25750190753E+01  0.31495515662E+01  0.00000000000E+00 0.  1.
</event>
<event>
 7    1  0.2751796E-010  0.4778727E+02  0.7816164E-02  0.1312668E+00
        -11   -1    0    0    0    0  0.00000000000E+00  0.00000000000E+00  0.45593999997E+02  0.45594000000E+02  0.51100000000E-03 0.  1.
         11   -1    0    0    0    0 -0.00000000000E+00 -0.00000000000E+00 -0.45593999997E+02  0.45594000000E+02  0.51100000000E-03 0. -1.
    9900012    2    1    2    0    0 -0.27056576795E+02 -0.22152926667E+02  0.25706282211E+02  0.47787268982E+02  0.19999990595E+02 0.  0.
         12    1    1    2    0    0  0.27056576795E+02  0.22152926667E+02 -0.25706282211E+02  0.43400731018E+02  0.00000000000E+00 0. -1.
         11    1    3    3    0    0 -0.97973612504E+01 -0.72864962753E+01 -0.51801214066E+00  0.12220869539E+02  0.51100000000E-03 0. -1.
        -11    1    3    3    0    0 -0.64292698978E+01 -0.65402871119E+01  0.53443327611E+01  0.10614742571E+02  0.51100000000E-03 0.  1.
         12    1    3    3    0    0 -0.10829945647E+02 -0.83261432799E+01  0.20879961591E+02  0.24951656872E+02  0.00000000000E+00 0. -1.
</event>
<event>
 7    1  0.2751796E-010  0.4778727E+02  0.7816164E-02  0.1312668E+00
        -11   -1    0    0    0    0  0.00000000000E+00  0.00000000000E+00  0.45593999997E+02  0.45594000000E+02  0.51100000000E-03 0. -1.
         11   -1    0    0    0    0 -0.00000000000E+00 -0.00000000000E+00 -0.45593999997E+02  0.45594000000E+02  0.51100000000E-03 0.  1.
    9900012    2    1    2    0    0  0.11576470043E+02  0.33201340582E+02 -0.25441689187E+02  0.47787271622E+02  0.20000002633E+02 0.  0.
         12    1    1    2    0    0 -0.11576470043E+02 -0.33201340582E+02  0.25441689187E+02  0.43400728378E+02  0.00000000000E+00 0. -1.
         11    1    3    3    0    0  0.18944138028E+01  0.20052618618E+01 -0.68589310340E+00  0.28425918456E+01  0.51100000000E-03 0. -1.
        -11    1    3    3    0    0  0.31022140546E+01  0.43821944687E+01  0.26980818239E+01  0.60089105662E+01  0.51100000000E-03 0.  1.
        -12    1    3    3    0    0  0.65798421855E+01  0.26813884251E+02 -0.27453877908E+02  0.38935769210E+02  0.00000000000E+00 0.  1.
</event>
<event>
 7    1  0.2751796E-010  0.4778728E+02  0.7816164E-02  0.1312668E+00
        -11   -1    0    0    0    0  0.00000000000E+00  0.00000000000E+00  0.45593999997E+02  0.45594000000E+02  0.51100000000E-03 0. -1.
         11   -1    0    0    0    0 -0.00000000000E+00 -0.00000000000E+00 -0.45593999997E+02  0.45594000000E+02  0.51100000000E-03 0.  1.
    9900012    2    1    2    0    0  0.37061041994E+02 -0.98105792497E+01  0.20343413428E+02  0.47787276863E+02  0.20000026530E+02 0.  0.
         12    1    1    2    0    0 -0.37061041994E+02  0.98105792497E+01 -0.20343413428E+02  0.43400723137E+02  0.00000000000E+00 0. -1.
         11    1    3    3    0    0  0.71686465092E+01  0.28026788831E+01 -0.12255703987E+01  0.77940056941E+01  0.51100000000E-03 0. -1.
        -11    1    3    3    0    0  0.28845037209E+02 -0.10343186632E+02  0.21603406510E+02  0.37492997405E+02  0.51100000000E-03 0.  1.
        -12    1    3    3    0    0  0.10473582755E+01 -0.22700715004E+01 -0.34422683317E-01  0.25002737641E+01  0.00000000000E+00 0.  1.
</event>
<event>
 7    1  0.2751796E-010  0.4778727E+02  0.7816164E-02  0.1312668E+00
        -11   -1    0    0    0    0  0.00000000000E+00  0.00000000000E+00  0.45593999997E+02  0.45594000000E+02  0.51100000000E-03 0.  1.
         11   -1    0    0    0    0 -0.00000000000E+00 -0.00000000000E+00 -0.45593999997E+02  0.45594000000E+02  0.51100000000E-03 0. -1.
    9900012    2    1    2    0    0  0.24364079432E+02  0.30414509969E+02  0.19104254372E+02  0.47787270532E+02  0.19999997664E+02 0.  0.
         12    1    1    2    0    0 -0.24364079432E+02 -0.30414509969E+02 -0.19104254372E+02  0.43400729468E+02  0.00000000000E+00 0. -1.
         11    1    3    3    0    0  0.48642862657E+01  0.48139208215E+01  0.13464163513E+02  0.15103602680E+02  0.51100000000E-03 0. -1.
        -11    1    3    3    0    0  0.15670893428E+02  0.21043887384E+02  0.47902515867E+01  0.26671494289E+02  0.51100000000E-03 0.  1.
         12    1    3    3    0    0  0.38288997380E+01  0.45567017637E+01  0.84983927266E+00  0.60121735634E+01  0.00000000000E+00 0. -1.
</event>
<event>
 7    1  0.2751796E-010  0.4778727E+02  0.7816164E-02  0.1312668E+00
        -11   -1    0    0    0    0  0.00000000000E+00  0.00000000000E+00  0.45593999997E+02  0.45594000000E+02  0.51100000000E-03 0.  1.
         11   -1    0    0    0    0 -0.00000000000E+00 -0.00000000000E+00 -0.45593999997E+02  0.45594000000E+02  0.51100000000E-03 0. -1.
    9900012    2    1    2    0    0  0.17133896108E+01  0.29579452051E+02  0.31713467021E+02  0.47787266388E+02  0.19999978769E+02 0.  0.
         12    1    1    2    0    0 -0.17133896108E+01 -0.29579452051E+02 -0.31713467021E+02  0.43400733612E+02  0.00000000000E+00 0. -1.
         11    1    3    3    0    0  0.39757311558E+00  0.50522897274E+01  0.12311870846E+02  0.13314122572E+02  0.51100000000E-03 0. -1.
        -11    1    3    3    0    0 -0.55778057282E+01  0.14928228362E+02  0.72019137147E+01  0.17488038203E+02  0.51100000000E-03 0.  1.
        -12    1    3    3    0    0  0.68936222234E+01  0.95989339617E+01  0.12199682460E+02  0.16985105613E+02  0.00000000000E+00 0.  1.
</event>
<event>
 7    1  0.2751796E-010  0.4778727E+02  0.7816164E-02  0.1312668E+00
        -11   -1    0    0    0    0  0.00000000000E+00  0.00000000000E+00  0.45593999997E+02  0.45594000000E+02  0.51100000000E-03 0. -1.
         11   -1    0    0    0    0 -0.00000000000E+00 -0.00000000000E+00 -0.45593999997E+02  0.45594000000E+02  0.51100000000E-03 0.  1.
    9900012    2    1    2    0    0 -0.21740223254E+02 -0.46328713115E+01 -0.37276301555E+02  0.47787268885E+02  0.19999990153E+02 0.  0.
         12    1    1    2    0    0  0.21740223254E+02  0.46328713115E+01  0.37276301555E+02  0.43400731115E+02  0.00000000000E+00 0. -1.
         11    1    3    3    0    0 -0.17551135660E+01 -0.22332315180E+01 -0.11509077085E+02  0.11854391686E+02  0.51100000000E-03 0. -1.
        -11    1    3    3    0    0  0.15472658195E+01 -0.27150293281E+01 -0.56854822322E+01  0.64876902086E+01  0.51100000000E-03 0.  1.
        -12    1    3    3    0    0 -0.21532375508E+02  0.31538953461E+00 -0.20081742238E+02  0.29445186990E+02  0.00000000000E+00 0.  1.
</event>
<event>
 7    1  0.2751796E-010  0.4778727E+02  0.7816164E-02  0.1312668E+00
        -11   -1    0    0    0    0  0.00000000000E+00  0.00000000000E+00  0.45593999997E+02  0.45594000000E+02  0.51100000000E-03 0.  1.
         11   -1    0    0    0    0 -0.00000000000E+00 -0.00000000000E+00 -0.45593999997E+02  0.45594000000E+02  0.51100000000E-03 0. -1.
    9900012    2    1    2    0    0 -0.11624150197E+02 -0.67786411855E+01  0.41261996969E+02  0.47787271458E+02  0.20000001885E+02 0.  0.
         12    1    1    2    0    0  0.11624150197E+02  0.67786411855E+01 -0.41261996969E+02  0.43400728542E+02  0.00000000000E+00 0. -1.
         11    1    3    3    0    0  0.10849934660E+01 -0.52736926381E+01  0.20097423065E+02  0.20806139934E+02  0.51100000000E-03 0. -1.
        -11    1    3    3    0    0 -0.11510046889E+02  0.16086909808E+01  0.20520409248E+02  0.23582965505E+02  0.51100000000E-03 0.  1.
        -12    1    3    3    0    0 -0.11990967739E+01 -0.31136395281E+01  0.64416465625E+00  0.33981660184E+01  0.00000000000E+00 0.  1.
</event>
<event>
 7    1  0.2751796E-010  0.4778726E+02  0.7816164E-02  0.1312668E+00
        -11   -1    0    0    0    0  0.00000000000E+00  0.00000000000E+00  0.45593999997E+02  0.45594000000E+02  0.51100000000E-03 0.  1.
         11   -1    0    0    0    0 -0.00000000000E+00 -0.00000000000E+00 -0.45593999997E+02  0.45594000000E+02  0.51100000000E-03 0. -1.
    9900012    2    1    2    0    0 -0.66341840319E+01 -0.12822199452E+02  0.40929239579E+02  0.47787264418E+02  0.19999969787E+02 0.  0.
         12    1    1    2    0    0  0.66341840319E+01  0.12822199452E+02 -0.40929239579E+02  0.43400735582E+02  0.00000000000E+00 0. -1.
         11    1    3    3    0    0 -0.76089133726E+01 -0.32421267736E+01  0.33322110374E+02  0.34333219901E+02  0.51100000000E-03 0. -1.
        -11    1    3    3    0    0 -0.55561654485E+00 -0.33750740183E+01 -0.12477595109E+00  0.34227771871E+01  0.51100000000E-03 0.  1.
         12    1    3    3    0    0  0.15303458855E+01 -0.62049986598E+01  0.77319051559E+01  0.10031267330E+02  0.00000000000E+00 0. -1.
</event>
<event>
 7    1  0.2751796E-010  0.4778727E+02  0.7816164E-02  0.1312668E+00
        -11   -1    0    0    0    0  0.00000000000E+00  0.00000000000E+00  0.45593999997E+02  0.45594000000E+02  0.51100000000E-03 0. -1.
         11   -1    0    0    0    0 -0.00000000000E+00 -0.00000000000E+00 -0.45593999997E+02  0.45594000000E+02  0.51100000000E-03 0.  1.
    9900012    2    1    2    0    0 -0.23896889110E+02  0.33507692378E+02  0.13776676965E+02  0.47787267450E+02  0.19999983613E+02 0.  0.
         12    1    1    2    0    0  0.23896889110E+02 -0.33507692378E+02 -0.13776676965E+02  0.43400732550E+02  0.00000000000E+00 0. -1.
         11    1    3    3    0    0 -0.78538374027E+00  0.99444315098E+01  0.78658981570E+01  0.12703578226E+02  0.51100000000E-03 0. -1.
        -11    1    3    3    0    0 -0.12680055253E+02  0.59928223661E+01  0.38658293402E+01  0.14547933114E+02  0.51100000000E-03 0.  1.
         12    1    3    3    0    0 -0.10431450116E+02  0.17570438502E+02  0.20449494683E+01  0.20535756110E+02  0.00000000000E+00 0. -1.
</event>
<event>
 7    1  0.2751796E-010  0.4778727E+02  0.7816164E-02  0.1312668E+00
        -11   -1    0    0    0    0  0.00000000000E+00  0.00000000000E+00  0.45593999997E+02  0.45594000000E+02  0.51100000000E-03 0. -1.
         11   -1    0    0    0    0 -0.00000000000E+00 -0.00000000000E+00 -0.45593999997E+02  0.45594000000E+02  0.51100000000E-03 0.  1.
    9900012    2    1    2    0    0 -0.13491436968E+00 -0.43348801506E+02 -0.21181514564E+01  0.47787270059E+02  0.19999995505E+02 0.  0.
         12    1    1    2    0    0  0.13491436968E+00  0.43348801506E+02  0.21181514564E+01  0.43400729941E+02  0.00000000000E+00 0. -1.
         11    1    3    3    0    0 -0.41013561568E+00 -0.12202997165E+01 -0.15374390815E+01  0.20052585399E+01  0.51100000000E-03 0. -1.
        -11    1    3    3    0    0  0.42788475284E+01 -0.39673113943E+01 -0.42756315429E+01  0.72338870065E+01  0.51100000000E-03 0.  1.
        -12    1    3    3    0    0 -0.40036262824E+01 -0.38161190395E+02  0.36949191680E+01  0.38548124512E+02  0.00000000000E+00 0.  1.
</event>
<event>
 7    1  0.2751796E-010  0.4778727E+02  0.7816164E-02  0.1312668E+00
        -11   -1    0    0    0    0  0.00000000000E+00  0.00000000000E+00  0.45593999997E+02  0.45594000000E+02  0.51100000000E-03 0.  1.
         11   -1    0    0    0    0 -0.00000000000E+00 -0.00000000000E+00 -0.45593999997E+02  0.45594000000E+02  0.51100000000E-03 0. -1.
    9900012    2    1    2    0    0  0.49378734222E+00 -0.18503348433E+02  0.39255640159E+02  0.47787274044E+02  0.20000013676E+02 0.  0.
         12    1    1    2    0    0 -0.49378734222E+00  0.18503348433E+02 -0.39255640159E+02  0.43400725956E+02  0.00000000000E+00 0. -1.
         11    1    3    3    0    0 -0.19933652469E+01 -0.50768077102E-01  0.13924396026E+01  0.24320712804E+01  0.51100000000E-03 0. -1.
        -11    1    3    3    0    0  0.68429201718E+01 -0.46262870610E+01  0.55841032205E+01  0.99704712770E+01  0.51100000000E-03 0.  1.
        -12    1    3    3    0    0 -0.43557675826E+01 -0.13826293295E+02  0.32279097336E+02  0.35384731486E+02  0.00000000000E+00 0.  1.
</event>
<event>
 7    1  0.2751796E-010  0.4778727E+02  0.7816164E-02  0.1312668E+00
        -11   -1    0    0    0    0  0.00000000000E+00  0.00000000000E+00  0.45593999997E+02  0.45594000000E+02  0.51100000000E-03 0. -1.
         11   -1    0    0    0    0 -0.00000000000E+00 -0.00000000000E+00 -0.45593999997E+02  0.45594000000E+02  0.51100000000E-03 0.  1.
    9900012    2    1    2    0    0  0.56554987101E+01  0.42820714519E+02  0.42455667598E+01  0.47787273109E+02  0.20000009412E+02 0.  0.
         12    1    1    2    0    0 -0.56554987101E+01 -0.42820714519E+02 -0.42455667598E+01  0.43400726891E+02  0.00000000000E+00 0. -1.
         11    1    3    3    0    0  0.44029679306E+01  0.62011656102E+01  0.62205635810E+01  0.98252731794E+01  0.51100000000E-03 0. -1.
        -11    1    3    3    0    0  0.62712971814E+00  0.11233138763E+02 -0.51441611686E+01  0.12370896999E+02  0.51100000000E-03 0.  1.
         12    1    3    3    0    0  0.62540106134E+00  0.25386410145E+02  0.31691643474E+01  0.25591102931E+02  0.00000000000E+00 0. -1.
</event>
<event>
 7    1  0.2751796E-010  0.4778727E+02  0.7816164E-02  0.1312668E+00
        -11   -1    0    0    0    0  0.00000000000E+00  0.00000000000E+00  0.45593999997E+02  0.45594000000E+02  0.51100000000E-03 0.  1.
         11   -1    0    0    0    0 -0.00000000000E+00 -0.00000000000E+00 -0.45593999997E+02  0.45594000000E+02  0.51100000000E-03 0. -1.
    9900012    2    1    2    0    0 -0.29888442619E+02 -0.11290274480E+02  0.29374041415E+02  0.47787267183E+02  0.19999982394E+02 0.  0.
         12    1    1    2    0    0  0.29888442619E+02  0.11290274480E+02 -0.29374041415E+02  0.43400732817E+02  0.00000000000E+00 0. -1.
         11    1    3    3    0    0 -0.17180109212E+01 -0.43311208230E+01  0.10106168532E+01  0.47677579421E+01  0.51100000000E-03 0. -1.
        -11    1    3    3    0    0 -0.15652770263E+02  0.14392413395E+01  0.78689269176E+01  0.17578414139E+02  0.51100000000E-03 0.  1.
        -12    1    3    3    0    0 -0.12517661434E+02 -0.83983949961E+01  0.20494497644E+02  0.25441095102E+02  0.00000000000E+00 0.  1.
</event>
<event>
 7    1  0.2751796E-010  0.4778727E+02  0.7816164E-02  0.1312668E+00
        -11   -1    0    0    0    0  0.00000000000E+00  0.00000000000E+00  0.45593999997E+02  0.45594000000E+02  0.51100000000E-03 0.  1.
         11   -1    0    0    0    0 -0.00000000000E+00 -0.00000000000E+00 -0.45593999997E+02  0.45594000000E+02  0.51100000000E-03 0. -1.
    9900012    2    1    2    0    0 -0.17356325912E+02 -0.24120242533E+02  0.31632185372E+02  0.47787270739E+02  0.19999998606E+02 0.  0.
         12    1    1    2    0    0  0.17356325912E+02  0.24120242533E+02 -0.31632185372E+02  0.43400729261E+02  0.00000000000E+00 0. -1.
         11    1    3    3    0    0 -0.93088513482E+01 -0.20000898863E+02  0.11820729086E+02  0.25028389983E+02  0.51100000000E-03 0. -1.
        -11    1    3    3    0    0 -0.32895348919E+01  0.13454763603E+01  0.39071582555E+01  0.52817830641E+01  0.51100000000E-03 0.  1.
         12    1    3    3    0    0 -0.47579396717E+01 -0.54648200302E+01  0.15904298031E+02  0.17477097692E+02  0.00000000000E+00 0. -1.
</event>
<event>
 7    1  0.2751796E-010  0.4778728E+02  0.7816164E-02  0.1312668E+00
        -11   -1    0    0    0    0  0.00000000000E+00  0.00000000000E+00  0.45593999997E+02  0.45594000000E+02  0.51100000000E-03 0.  1.
         11   -1    0    0    0    0 -0.00000000000E+00 -0.00000000000E+00 -0.45593999997E+02  0.45594000000E+02  0.51100000000E-03 0. -1.
    9900012    2    1    2    0    0  0.18679631282E+02  0.26744615128E+02  0.28625502456E+02  0.47787280490E+02  0.20000043065E+02 0.  0.
         12    1    1    2    0    0 -0.18679631282E+02 -0.26744615128E+02 -0.28625502456E+02  0.43400719510E+02  0.00000000000E+00 0. -1.
         11    1    3    3    0    0 -0.93385152638E+00  0.28594193025E+01  0.22029284946E+01  0.37284382299E+01  0.51100000000E-03 0. -1.
        -11    1    3    3    0    0  0.48569567988E+01  0.16578086428E+02  0.71143102993E+01  0.18682515630E+02  0.51100000000E-03 0.  1.
        -12    1    3    3    0    0  0.14756526009E+02  0.73071093973E+01  0.19308263662E+02  0.25376326630E+02  0.00000000000E+00 0.  1.
</event>
<event>
 7    1  0.2751796E-010  0.4778727E+02  0.7816164E-02  0.1312668E+00
        -11   -1    0    0    0    0  0.00000000000E+00  0.00000000000E+00  0.45593999997E+02  0.45594000000E+02  0.51100000000E-03 0.  1.
         11   -1    0    0    0    0 -0.00000000000E+00 -0.00000000000E+00 -0.45593999997E+02  0.45594000000E+02  0.51100000000E-03 0. -1.
    9900012    2    1    2    0    0 -0.34802923327E+02  0.15059898718E+01  0.25886511594E+02  0.47787274659E+02  0.20000016482E+02 0.  0.
         12    1    1    2    0    0  0.34802923327E+02 -0.15059898718E+01 -0.25886511594E+02  0.43400725341E+02  0.00000000000E+00 0. -1.
         11    1    3    3    0    0  0.10378440932E+01  0.35078822372E+00  0.44532256848E+01  0.45859995640E+01  0.51100000000E-03 0. -1.
        -11    1    3    3    0    0 -0.22254169447E+02  0.59012134856E+01  0.11684919849E+02  0.25818786387E+02  0.51100000000E-03 0.  1.
        -12    1    3    3    0    0 -0.13586597973E+02 -0.47460118375E+01  0.97483660601E+01  0.17382488708E+02  0.00000000000E+00 0.  1.
</event>
<event>
 7    1  0.2751796E-010  0.4778727E+02  0.7816164E-02  0.1312668E+00
        -11   -1    0    0    0    0  0.00000000000E+00  0.00000000000E+00  0.45593999997E+02  0.45594000000E+02  0.51100000000E-03 0.  1.
         11   -1    0    0    0    0 -0.00000000000E+00 -0.00000000000E+00 -0.45593999997E+02  0.45594000000E+02  0.51100000000E-03 0. -1.
    9900012    2    1    2    0    0  0.26206616070E+02 -0.20472282422E+02  0.27887671926E+02  0.47787270527E+02  0.19999997639E+02 0.  0.
         12    1    1    2    0    0 -0.26206616070E+02  0.20472282422E+02 -0.27887671926E+02  0.43400729473E+02  0.00000000000E+00 0. -1.
         11    1    3    3    0    0  0.43618108279E+01 -0.35789027436E+01  0.15133406281E+02  0.16150972865E+02  0.51100000000E-03 0. -1.
        -11    1    3    3    0    0  0.23192235028E+01  0.93329037094E+00  0.13634364349E+01  0.28475933252E+01  0.51100000000E-03 0.  1.
         12    1    3    3    0    0  0.19525581739E+02 -0.17826670049E+02  0.11390829209E+02  0.28788704336E+02  0.00000000000E+00 0. -1.
</event>
<event>
 7    1 -0.2751796E-010  0.4778727E+02  0.7816164E-02  0.1312668E+00
        -11   -1    0    0    0    0  0.00000000000E+00  0.00000000000E+00  0.45593999997E+02  0.45594000000E+02  0.51100000000E-03 0. -1.
         11   -1    0    0    0    0 -0.00000000000E+00 -0.00000000000E+00 -0.45593999997E+02  0.45594000000E+02  0.51100000000E-03 0.  1.
    9900012    2    1    2    0    0 -0.41131194157E+02  0.94168272029E+01  0.10157337910E+02  0.47787270965E+02  0.19999999636E+02 0.  0.
         12    1    1    2    0    0  0.41131194157E+02 -0.94168272029E+01 -0.10157337910E+02  0.43400729035E+02  0.00000000000E+00 0. -1.
         11    1    3    3    0    0 -0.49816838175E+01  0.49148017799E+01  0.10598019913E+00  0.69988343498E+01  0.51100000000E-03 0. -1.
        -11    1    3    3    0    0 -0.29551473220E+02  0.32223315332E+01  0.13013514180E+01  0.29755108902E+02  0.51100000000E-03 0.  1.
        -12    1    3    3    0    0 -0.65980371201E+01  0.12796938898E+01  0.87500062933E+01  0.11033327713E+02  0.00000000000E+00 0.  1.
</event>
<event>
 7    1  0.2751796E-010  0.4778727E+02  0.7816164E-02  0.1312668E+00
        -11   -1    0    0    0    0  0.00000000000E+00  0.00000000000E+00  0.45593999997E+02  0.45594000000E+02  0.51100000000E-03 0. -1.
         11   -1    0    0    0    0 -0.00000000000E+00 -0.00000000000E+00 -0.45593999997E+02  0.45594000000E+02  0.51100000000E-03 0.  1.
    9900012    2    1    2    0    0  0.24214473689E+02  0.11955067826E+02 -0.33975860000E+02  0.47787269067E+02  0.19999990985E+02 0.  0.
         12    1    1    2    0    0 -0.24214473689E+02 -0.11955067826E+02  0.33975860000E+02  0.43400730933E+02  0.00000000000E+00 0. -1.
         11    1    3    3    0    0 -0.79271586970E+00 -0.22195139110E+01 -0.65608152196E+01  0.69712937865E+01  0.51100000000E-03 0. -1.
        -11    1    3    3    0    0  0.24635238180E+01  0.39806354556E+01 -0.13362140880E+01  0.48682519021E+01  0.51100000000E-03 0.  1.
         12    1    3    3    0    0  0.22543665741E+02  0.10193946282E+02 -0.26078830692E+02  0.35947723379E+02  0.00000000000E+00 0. -1.
</event>
<event>
 7    1  0.2751796E-010  0.4778722E+02  0.7816164E-02  0.1312668E+00
        -11   -1    0    0    0    0  0.00000000000E+00  0.00000000000E+00  0.45593999997E+02  0.45594000000E+02  0.51100000000E-03 0. -1.
         11   -1    0    0    0    0 -0.00000000000E+00 -0.00000000000E+00 -0.45593999997E+02  0.45594000000E+02  0.51100000000E-03 0.  1.
    9900012    2    1    2    0    0 -0.12263280133E+02  0.24624153385E+02 -0.33569198733E+02  0.47787215755E+02  0.19999747910E+02 0.  0.
         12    1    1    2    0    0  0.12263280133E+02 -0.24624153385E+02  0.33569198733E+02  0.43400784245E+02  0.00000000000E+00 0. -1.
         11    1    3    3    0    0 -0.47642822483E+01  0.22633401707E+02 -0.30316972598E+02  0.38132506945E+02  0.51100000000E-03 0. -1.
        -11    1    3    3    0    0 -0.59806340869E+01  0.15248727832E+01 -0.44972480377E+01  0.76366524905E+01  0.51100000000E-03 0.  1.
         12    1    3    3    0    0 -0.15183637977E+01  0.46587889499E+00  0.12450219030E+01  0.20180563188E+01  0.00000000000E+00 0. -1.
</event>
<event>
 7    1  0.2751796E-010  0.4778727E+02  0.7816164E-02  0.1312668E+00
        -11   -1    0    0    0    0  0.00000000000E+00  0.00000000000E+00  0.45593999997E+02  0.45594000000E+02  0.51100000000E-03 0.  1.
         11   -1    0    0    0    0 -0.00000000000E+00 -0.00000000000E+00 -0.45593999997E+02  0.45594000000E+02  0.51100000000E-03 0. -1.
    9900012    2    1    2    0    0 -0.50936837754E+00 -0.40392230576E+02  0.15869205098E+02  0.47787269390E+02  0.19999992455E+02 0.  0.
         12    1    1    2    0    0  0.50936837754E+00  0.40392230576E+02 -0.15869205098E+02  0.43400730610E+02  0.00000000000E+00 0. -1.
         11    1    3    3    0    0  0.79912962180E+01 -0.12485761860E+02  0.76895060861E+00  0.14844067831E+02  0.51100000000E-03 0. -1.
        -11    1    3    3    0    0 -0.48229702091E+01 -0.16396492969E+02  0.10205180591E+02  0.19906072804E+02  0.51100000000E-03 0.  1.
         12    1    3    3    0    0 -0.36776943864E+01 -0.11509975747E+02  0.48950738981E+01  0.13037128754E+02  0.00000000000E+00 0. -1.
</event>
<event>
 7    1  0.2751796E-010  0.4778727E+02  0.7816164E-02  0.1312668E+00
        -11   -1    0    0    0    0  0.00000000000E+00  0.00000000000E+00  0.45593999997E+02  0.45594000000E+02  0.51100000000E-03 0. -1.
         11   -1    0    0    0    0 -0.00000000000E+00 -0.00000000000E+00 -0.45593999997E+02  0.45594000000E+02  0.51100000000E-03 0.  1.
    9900012    2    1    2    0    0  0.10060271361E+02 -0.42154243268E+02  0.23310566086E+01  0.47787272929E+02  0.20000008592E+02 0.  0.
         12    1    1    2    0    0 -0.10060271361E+02  0.42154243268E+02 -0.23310566086E+01  0.43400727071E+02  0.00000000000E+00 0. -1.
         11    1    3    3    0    0  0.22073556343E+01 -0.10201130162E+02  0.89550947906E+01  0.13752425184E+02  0.51100000000E-03 0. -1.
        -11    1    3    3    0    0  0.34808197263E+01 -0.21064645696E+02 -0.64382573731E+01  0.22299922926E+02  0.51100000000E-03 0.  1.
         12    1    3    3    0    0  0.43720960008E+01 -0.10888467410E+02 -0.18578080888E+00  0.11734924818E+02  0.00000000000E+00 0. -1.
</event>
<event>
 7    1  0.2751796E-010  0.4778727E+02  0.7816164E-02  0.1312668E+00
        -11   -1    0    0    0    0  0.00000000000E+00  0.00000000000E+00  0.45593999997E+02  0.45594000000E+02  0.51100000000E-03 0.  1.
         11   -1    0    0    0    0 -0.00000000000E+00 -0.00000000000E+00 -0.45593999997E+02  0.45594000000E+02  0.51100000000E-03 0. -1.
    9900012    2    1    2    0    0  0.16504543581E+02 -0.30417023508E+00  0.40138896785E+02  0.47787268284E+02  0.19999987414E+02 0.  0.
         12    1    1    2    0    0 -0.16504543581E+02  0.30417023508E+00 -0.40138896785E+02  0.43400731716E+02  0.00000000000E+00 0. -1.
         11    1    3    3    0    0  0.60413873210E+01 -0.54320328544E+01  0.17482905248E+02  0.19278415855E+02  0.51100000000E-03 0. -1.
        -11    1    3    3    0    0  0.70983930423E+01  0.93918691900E+01  0.14026514192E+02  0.18312222457E+02  0.51100000000E-03 0.  1.
        -12    1    3    3    0    0  0.33647632179E+01 -0.42640065707E+01  0.86294773449E+01  0.10196629972E+02  0.00000000000E+00 0.  1.
</event>
<event>
 7    1  0.2751796E-010  0.4778727E+02  0.7816164E-02  0.1312668E+00
        -11   -1    0    0    0    0  0.00000000000E+00  0.00000000000E+00  0.45593999997E+02  0.45594000000E+02  0.51100000000E-03 0. -1.
         11   -1    0    0    0    0 -0.00000000000E+00 -0.00000000000E+00 -0.45593999997E+02  0.45594000000E+02  0.51100000000E-03 0.  1.
    9900012    2    1    2    0    0  0.30521580769E+02 -0.17180693510E+02 -0.25629672673E+02  0.47787271395E+02  0.20000001598E+02 0.  0.
         12    1    1    2    0    0 -0.30521580769E+02  0.17180693510E+02  0.25629672673E+02  0.43400728605E+02  0.00000000000E+00 0. -1.
         11    1    3    3    0    0  0.90707680527E+01 -0.54114189965E+01 -0.49729311110E+01  0.11674430723E+02  0.51100000000E-03 0. -1.
        -11    1    3    3    0    0  0.94910214823E+01 -0.50640494644E+01  0.64834050468E+00  0.10777032589E+02  0.51100000000E-03 0.  1.
        -12    1    3    3    0    0  0.11959791234E+02 -0.67052250489E+01 -0.21305082067E+02  0.25335808082E+02  0.00000000000E+00 0.  1.
</event>
<event>
 7    1  0.2751796E-010  0.4778727E+02  0.7816164E-02  0.1312668E+00
        -11   -1    0    0    0    0  0.00000000000E+00  0.00000000000E+00  0.45593999997E+02  0.45594000000E+02  0.51100000000E-03 0. -1.
         11   -1    0    0    0    0 -0.00000000000E+00 -0.00000000000E+00 -0.45593999997E+02  0.45594000000E+02  0.51100000000E-03 0.  1.
    9900012    2    1    2    0    0 -0.37426496163E+02  0.21326389020E+02  0.52976984643E+01  0.47787273132E+02  0.20000009519E+02 0.  0.
         12    1    1    2    0    0  0.37426496163E+02 -0.21326389020E+02 -0.52976984643E+01  0.43400726868E+02  0.00000000000E+00 0. -1.
         11    1    3    3    0    0 -0.16340130114E+02  0.80464034135E+01  0.86510422428E+01  0.20163952792E+02  0.51100000000E-03 0. -1.
        -11    1    3    3    0    0 -0.16830531148E+02  0.15253105705E+02 -0.31117313944E+01  0.22926117964E+02  0.51100000000E-03 0.  1.
         12    1    3    3    0    0 -0.42558349003E+01 -0.19731200982E+01 -0.24161238403E+00  0.46972023764E+01  0.00000000000E+00 0. -1.
</event>
<event>
 7    1  0.2751796E-010  0.4778727E+02  0.7816164E-02  0.1312668E+00
        -11   -1    0    0    0    0  0.00000000000E+00  0.00000000000E+00  0.45593999997E+02  0.45594000000E+02  0.51100000000E-03 0. -1.
         11   -1    0    0    0    0 -0.00000000000E+00 -0.00000000000E+00 -0.45593999997E+02  0.45594000000E+02  0.51100000000E-03 0.  1.
    9900012    2    1    2    0    0 -0.14928626443E+02 -0.27753287191E+02 -0.29841487507E+02  0.47787271734E+02  0.20000003144E+02 0.  0.
         12    1    1    2    0    0  0.14928626443E+02  0.27753287191E+02  0.29841487507E+02  0.43400728266E+02  0.00000000000E+00 0. -1.
         11    1    3    3    0    0  0.42814030748E+01 -0.24358282714E+01 -0.64803731989E+01  0.81399575377E+01  0.51100000000E-03 0. -1.
        -11    1    3    3    0    0 -0.14070693498E+02 -0.15400634622E+02 -0.14921266130E+02  0.25647770770E+02  0.51100000000E-03 0.  1.
         12    1    3    3    0    0 -0.51393360199E+01 -0.99168242975E+01 -0.84398481785E+01  0.13999543426E+02  0.00000000000E+00 0. -1.
</event>
<event>
 7    1  0.2751796E-010  0.4778727E+02  0.7816164E-02  0.1312668E+00
        -11   -1    0    0    0    0  0.00000000000E+00  0.00000000000E+00  0.45593999997E+02  0.45594000000E+02  0.51100000000E-03 0. -1.
         11   -1    0    0    0    0 -0.00000000000E+00 -0.00000000000E+00 -0.45593999997E+02  0.45594000000E+02  0.51100000000E-03 0.  1.
    9900012    2    1    2    0    0  0.33325595123E+02  0.17654566513E+02 -0.21478936212E+02  0.47787266022E+02  0.19999977100E+02 0.  0.
         12    1    1    2    0    0 -0.33325595123E+02 -0.17654566513E+02  0.21478936212E+02  0.43400733978E+02  0.00000000000E+00 0. -1.
         11    1    3    3    0    0  0.92228317810E+01  0.13893347031E+02 -0.11321499913E+02  0.20155943995E+02  0.51100000000E-03 0. -1.
        -11    1    3    3    0    0  0.21518245619E+02  0.37411821559E+01 -0.58549463066E+01  0.22612203231E+02  0.51100000000E-03 0.  1.
        -12    1    3    3    0    0  0.25845177227E+01  0.20037325804E-01 -0.43024899924E+01  0.50191187960E+01  0.00000000000E+00 0.  1.
</event>
<event>
 7    1  0.2751796E-010  0.4778727E+02  0.7816164E-02  0.1312668E+00
        -11   -1    0    0    0    0  0.00000000000E+00  0.00000000000E+00  0.45593999997E+02  0.45594000000E+02  0.51100000000E-03 0.  1.
         11   -1    0    0    0    0 -0.00000000000E+00 -0.00000000000E+00 -0.45593999997E+02  0.45594000000E+02  0.51100000000E-03 0. -1.
    9900012    2    1    2    0    0 -0.19289672213E+02  0.24823921853E+01  0.38799092314E+02  0.47787270865E+02  0.19999999180E+02 0.  0.
         12    1    1    2    0    0  0.19289672213E+02 -0.24823921853E+01 -0.38799092314E+02  0.43400729135E+02  0.00000000000E+00 0. -1.
         11    1    3    3    0    0 -0.44091757309E+01  0.20606137801E+01  0.24934995783E+02  0.25405530397E+02  0.51100000000E-03 0.  1.
        -11    1    3    3    0    0 -0.49246802908E+01  0.46308270728E+01  0.54878686602E+01  0.87071084774E+01  0.51100000000E-03 0. -1.
         12    1    3    3    0    0 -0.99558161916E+01 -0.42090486676E+01  0.83762278713E+01  0.13674631991E+02  0.00000000000E+00 0. -1.
</event>
<event>
 7    1  0.2751796E-010  0.4778727E+02  0.7816164E-02  0.1312668E+00
        -11   -1    0    0    0    0  0.00000000000E+00  0.00000000000E+00  0.45593999997E+02  0.45594000000E+02  0.51100000000E-03 0. -1.
         11   -1    0    0    0    0 -0.00000000000E+00 -0.00000000000E+00 -0.45593999997E+02  0.45594000000E+02  0.51100000000E-03 0.  1.
    9900012    2    1    2    0    0 -0.39094558223E+01  0.36181565888E+02 -0.23648119738E+02  0.47787272794E+02  0.20000007975E+02 0.  0.
         12    1    1    2    0    0  0.39094558223E+01 -0.36181565888E+02  0.23648119738E+02  0.43400727206E+02  0.00000000000E+00 0. -1.
         11    1    3    3    0    0 -0.53831946975E+01  0.15674783478E+01  0.11487221031E+00  0.56079380710E+01  0.51100000000E-03 0. -1.
        -11    1    3    3    0    0 -0.10977663838E+01  0.14012216002E+02 -0.10477968306E+02  0.17530975683E+02  0.51100000000E-03 0.  1.
         12    1    3    3    0    0  0.25715052590E+01  0.20601871538E+02 -0.13285023642E+02  0.24648359039E+02  0.00000000000E+00 0. -1.
</event>
<event>
 7    1  0.2751796E-010  0.4778727E+02  0.7816164E-02  0.1312668E+00
        -11   -1    0    0    0    0  0.00000000000E+00  0.00000000000E+00  0.45593999997E+02  0.45594000000E+02  0.51100000000E-03 0.  1.
         11   -1    0    0    0    0 -0.00000000000E+00 -0.00000000000E+00 -0.45593999997E+02  0.45594000000E+02  0.51100000000E-03 0. -1.
    9900012    2    1    2    0    0  0.10481821673E+02  0.35743321391E+02  0.22274860816E+02  0.47787273808E+02  0.20000012599E+02 0.  0.
         12    1    1    2    0    0 -0.10481821673E+02 -0.35743321391E+02 -0.22274860816E+02  0.43400726192E+02  0.00000000000E+00 0. -1.
         11    1    3    3    0    0  0.36940089341E+01  0.10204301196E+02 -0.24529189191E+00  0.10855120141E+02  0.51100000000E-03 0. -1.
        -11    1    3    3    0    0 -0.19316943876E+01  0.75062008070E+01  0.14960960218E+01  0.78938455350E+01  0.51100000000E-03 0.  1.
         12    1    3    3    0    0  0.87195071260E+01  0.18032819388E+02  0.21024056687E+02  0.29038308132E+02  0.00000000000E+00 0. -1.
</event>
<event>
 7    1  0.2751796E-010  0.4778730E+02  0.7816164E-02  0.1312668E+00
        -11   -1    0    0    0    0  0.00000000000E+00  0.00000000000E+00  0.45593999997E+02  0.45594000000E+02  0.51100000000E-03 0.  1.
         11   -1    0    0    0    0 -0.00000000000E+00 -0.00000000000E+00 -0.45593999997E+02  0.45594000000E+02  0.51100000000E-03 0. -1.
    9900012    2    1    2    0    0  0.15362681189E+02  0.25362102141E+02  0.31691843703E+02  0.47787295448E+02  0.20000111265E+02 0.  0.
         12    1    1    2    0    0 -0.15362681189E+02 -0.25362102141E+02 -0.31691843703E+02  0.43400704552E+02  0.00000000000E+00 0. -1.
         11    1    3    3    0    0  0.53691307935E+01 -0.18972787097E+01  0.33945538115E+01  0.66294967999E+01  0.51100000000E-03 0. -1.
        -11    1    3    3    0    0  0.10973014707E+02  0.23380443620E+02  0.25343111798E+02  0.36184603238E+02  0.51100000000E-03 0.  1.
         12    1    3    3    0    0 -0.97946431148E+00  0.38789372308E+01  0.29541780936E+01  0.49731954101E+01  0.00000000000E+00 0. -1.
</event>
<event>
 7    1  0.2751796E-010  0.4778727E+02  0.7816164E-02  0.1312668E+00
        -11   -1    0    0    0    0  0.00000000000E+00  0.00000000000E+00  0.45593999997E+02  0.45594000000E+02  0.51100000000E-03 0.  1.
         11   -1    0    0    0    0 -0.00000000000E+00 -0.00000000000E+00 -0.45593999997E+02  0.45594000000E+02  0.51100000000E-03 0. -1.
    9900012    2    1    2    0    0  0.90608810813E+01 -0.30036850080E+02  0.29988515143E+02  0.47787274554E+02  0.20000016004E+02 0.  0.
         12    1    1    2    0    0 -0.90608810813E+01  0.30036850080E+02 -0.29988515143E+02  0.43400725446E+02  0.00000000000E+00 0. -1.
         11    1    3    3    0    0  0.45080057454E+01 -0.17950481137E+02  0.63559906173E+01  0.19568865727E+02  0.51100000000E-03 0. -1.
        -11    1    3    3    0    0  0.32577127934E+01 -0.16083419599E+01  0.20005295413E+01  0.41474781749E+01  0.51100000000E-03 0.  1.
         12    1    3    3    0    0  0.12951625425E+01 -0.10478026983E+02  0.21631994984E+02  0.24070930653E+02  0.00000000000E+00 0. -1.
</event>
<event>
 7    1  0.2751796E-010  0.4778728E+02  0.7816164E-02  0.1312668E+00
        -11   -1    0    0    0    0  0.00000000000E+00  0.00000000000E+00  0.45593999997E+02  0.45594000000E+02  0.51100000000E-03 0.  1.
         11   -1    0    0    0    0 -0.00000000000E+00 -0.00000000000E+00 -0.45593999997E+02  0.45594000000E+02  0.51100000000E-03 0. -1.
    9900012    2    1    2    0    0 -0.33632605477E+02 -0.26836771779E+02  0.56796477134E+01  0.47787275711E+02  0.20000021276E+02 0.  0.
         12    1    1    2    0    0  0.33632605477E+02  0.26836771779E+02 -0.56796477134E+01  0.43400724289E+02  0.00000000000E+00 0. -1.
         11    1    3    3    0    0 -0.14434788023E+02 -0.73830047374E+01 -0.23699974181E+01  0.16385626391E+02  0.51100000000E-03 0. -1.
        -11    1    3    3    0    0 -0.22739423802E+01 -0.10631089221E+02  0.51835671425E+00  0.10883913171E+02  0.51100000000E-03 0.  1.
        -12    1    3    3    0    0 -0.16923875074E+02 -0.88226778213E+01  0.75312884172E+01  0.20517736149E+02  0.00000000000E+00 0.  1.
</event>
<event>
 7    1  0.2751796E-010  0.4778727E+02  0.7816164E-02  0.1312668E+00
        -11   -1    0    0    0    0  0.00000000000E+00  0.00000000000E+00  0.45593999997E+02  0.45594000000E+02  0.51100000000E-03 0. -1.
         11   -1    0    0    0    0 -0.00000000000E+00 -0.00000000000E+00 -0.45593999997E+02  0.45594000000E+02  0.51100000000E-03 0.  1.
    9900012    2    1    2    0    0  0.34236557275E+02 -0.23630800325E+02 -0.12372029364E+02  0.47787266266E+02  0.19999978214E+02 0.  0.
         12    1    1    2    0    0 -0.34236557275E+02  0.23630800325E+02  0.12372029364E+02  0.43400733734E+02  0.00000000000E+00 0. -1.
         11    1    3    3    0    0  0.11460980742E+02  0.57182438317E+00 -0.87058858402E+00  0.11508213911E+02  0.51100000000E-03 0. -1.
        -11    1    3    3    0    0  0.80702747487E+01 -0.13913995684E+02 -0.81112429045E+01  0.18014462860E+02  0.51100000000E-03 0.  1.
        -12    1    3    3    0    0  0.14705301785E+02 -0.10288629025E+02 -0.33901978751E+01  0.18264589495E+02  0.00000000000E+00 0.  1.
</event>
<event>
 7    1  0.2751796E-010  0.4778727E+02  0.7816164E-02  0.1312668E+00
        -11   -1    0    0    0    0  0.00000000000E+00  0.00000000000E+00  0.45593999997E+02  0.45594000000E+02  0.51100000000E-03 0.  1.
         11   -1    0    0    0    0 -0.00000000000E+00 -0.00000000000E+00 -0.45593999997E+02  0.45594000000E+02  0.51100000000E-03 0. -1.
    9900012    2    1    2    0    0 -0.20978488360E+02 -0.33506422095E+02  0.17912171203E+02  0.47787272210E+02  0.20000005314E+02 0.  0.
         12    1    1    2    0    0  0.20978488360E+02  0.33506422095E+02 -0.17912171203E+02  0.43400727790E+02  0.00000000000E+00 0. -1.
         11    1    3    3    0    0  0.13466662581E+01  0.88886066159E+00  0.20218181405E+01  0.25867609362E+01  0.51100000000E-03 0. -1.
        -11    1    3    3    0    0 -0.23291041236E+02 -0.34059816073E+02  0.15762231830E+02  0.44170030850E+02  0.51100000000E-03 0.  1.
        -12    1    3    3    0    0  0.96588661717E+00 -0.33546668312E+00  0.12812123224E+00  0.10304804233E+01  0.00000000000E+00 0.  1.
</event>
<event>
 7    1  0.2751796E-010  0.4778727E+02  0.7816164E-02  0.1312668E+00
        -11   -1    0    0    0    0  0.00000000000E+00  0.00000000000E+00  0.45593999997E+02  0.45594000000E+02  0.51100000000E-03 0. -1.
         11   -1    0    0    0    0 -0.00000000000E+00 -0.00000000000E+00 -0.45593999997E+02  0.45594000000E+02  0.51100000000E-03 0.  1.
    9900012    2    1    2    0    0  0.11828869354E+02 -0.33539869787E+02 -0.24875248184E+02  0.47787274341E+02  0.20000015031E+02 0.  0.
         12    1    1    2    0    0 -0.11828869354E+02  0.33539869787E+02  0.24875248184E+02  0.43400725659E+02  0.00000000000E+00 0. -1.
         11    1    3    3    0    0  0.45425135490E-01  0.12945310906E+01 -0.22340161019E+01  0.25823830840E+01  0.51100000000E-03 0. -1.
        -11    1    3    3    0    0  0.96086228230E+01 -0.34383078443E+02 -0.23589242855E+02  0.42789883086E+02  0.51100000000E-03 0.  1.
        -12    1    3    3    0    0  0.21748213954E+01 -0.45132243442E+00  0.94801077288E+00  0.24150081713E+01  0.00000000000E+00 0.  1.
</event>
<event>
 7    1  0.2751796E-010  0.4778726E+02  0.7816164E-02  0.1312668E+00
        -11   -1    0    0    0    0  0.00000000000E+00  0.00000000000E+00  0.45593999997E+02  0.45594000000E+02  0.51100000000E-03 0. -1.
         11   -1    0    0    0    0 -0.00000000000E+00 -0.00000000000E+00 -0.45593999997E+02  0.45594000000E+02  0.51100000000E-03 0.  1.
    9900012    2    1    2    0    0 -0.29456893575E+01 -0.25972467152E+02 -0.34646475667E+02  0.47787257934E+02  0.19999940223E+02 0.  0.
         12    1    1    2    0    0  0.29456893575E+01  0.25972467152E+02  0.34646475667E+02  0.43400742066E+02  0.00000000000E+00 0. -1.
         11    1    3    3    0    0 -0.52523872751E+01 -0.31466498304E+01 -0.46269006108E+01  0.76744502582E+01  0.51100000000E-03 0. -1.
        -11    1    3    3    0    0  0.64916634165E+01 -0.11975173681E+02 -0.97763189393E+01  0.16766719741E+02  0.51100000000E-03 0.  1.
        -12    1    3    3    0    0 -0.41849654989E+01 -0.10850643641E+02 -0.20243256117E+02  0.23346087935E+02  0.00000000000E+00 0.  1.
</event>
<event>
 7    1  0.2751796E-010  0.4778728E+02  0.7816164E-02  0.1312668E+00
        -11   -1    0    0    0    0  0.00000000000E+00  0.00000000000E+00  0.45593999997E+02  0.45594000000E+02  0.51100000000E-03 0. -1.
         11   -1    0    0    0    0 -0.00000000000E+00 -0.00000000000E+00 -0.45593999997E+02  0.45594000000E+02  0.51100000000E-03 0.  1.
    9900012    2    1    2    0    0 -0.29305336919E+02  0.21367143010E+02 -0.23838313064E+02  0.47787277171E+02  0.20000027933E+02 0.  0.
         12    1    1    2    0    0  0.29305336919E+02 -0.21367143010E+02  0.23838313064E+02  0.43400722829E+02  0.00000000000E+00 0. -1.
         11    1    3    3    0    0 -0.50462126913E-02 -0.13970419075E+01  0.12147834518E+01  0.18513375304E+01  0.51100000000E-03 0. -1.
        -11    1    3    3    0    0 -0.28530363153E+02  0.23442662063E+02 -0.25437831143E+02  0.44839974127E+02  0.51100000000E-03 0.  1.
        -12    1    3    3    0    0 -0.76992755283E+00 -0.67847714505E+00  0.38473462645E+00  0.10959655130E+01  0.00000000000E+00 0.  1.
</event>
<event>
 7    1  0.2751796E-010  0.4778727E+02  0.7816164E-02  0.1312668E+00
        -11   -1    0    0    0    0  0.00000000000E+00  0.00000000000E+00  0.45593999997E+02  0.45594000000E+02  0.51100000000E-03 0. -1.
         11   -1    0    0    0    0 -0.00000000000E+00 -0.00000000000E+00 -0.45593999997E+02  0.45594000000E+02  0.51100000000E-03 0.  1.
    9900012    2    1    2    0    0  0.40528909345E+02  0.14926600748E+02  0.42693566294E+01  0.47787270644E+02  0.19999998173E+02 0.  0.
         12    1    1    2    0    0 -0.40528909345E+02 -0.14926600748E+02 -0.42693566294E+01  0.43400729356E+02  0.00000000000E+00 0. -1.
         11    1    3    3    0    0  0.42518863741E+01 -0.67159579004E+00  0.49887749578E+01  0.65891922482E+01  0.51100000000E-03 0. -1.
        -11    1    3    3    0    0  0.36077540291E+02  0.12839747563E+02 -0.15025186917E+01  0.38323694937E+02  0.51100000000E-03 0.  1.
        -12    1    3    3    0    0  0.19948268001E+00  0.27584489749E+01  0.78310036330E+00  0.28743834584E+01  0.00000000000E+00 0.  1.
</event>
<event>
 7    1  0.2751796E-010  0.4778726E+02  0.7816164E-02  0.1312668E+00
        -11   -1    0    0    0    0  0.00000000000E+00  0.00000000000E+00  0.45593999997E+02  0.45594000000E+02  0.51100000000E-03 0. -1.
         11   -1    0    0    0    0 -0.00000000000E+00 -0.00000000000E+00 -0.45593999997E+02  0.45594000000E+02  0.51100000000E-03 0.  1.
    9900012    2    1    2    0    0  0.21759129946E+02  0.33469488111E+02  0.17028143726E+02  0.47787262113E+02  0.19999959277E+02 0.  0.
         12    1    1    2    0    0 -0.21759129946E+02 -0.33469488111E+02 -0.17028143726E+02  0.43400737887E+02  0.00000000000E+00 0. -1.
         11    1    3    3    0    0 -0.23405446111E+01  0.10287646332E+02  0.56272506308E+01  0.11957414690E+02  0.51100000000E-03 0. -1.
        -11    1    3    3    0    0  0.12245775540E+02  0.96326729093E+01  0.26171121608E+01  0.15798629126E+02  0.51100000000E-03 0.  1.
         12    1    3    3    0    0  0.11853899017E+02  0.13549168869E+02  0.87837809343E+01  0.20031218297E+02  0.00000000000E+00 0. -1.
</event>
<event>
 7    1  0.2751796E-010  0.4778727E+02  0.7816164E-02  0.1312668E+00
        -11   -1    0    0    0    0  0.00000000000E+00  0.00000000000E+00  0.45593999997E+02  0.45594000000E+02  0.51100000000E-03 0.  1.
         11   -1    0    0    0    0 -0.00000000000E+00 -0.00000000000E+00 -0.45593999997E+02  0.45594000000E+02  0.51100000000E-03 0. -1.
    9900012    2    1    2    0    0 -0.34470205210E+02  0.10698626258E+02  0.24103277634E+02  0.47787266783E+02  0.19999980572E+02 0.  0.
         12    1    1    2    0    0  0.34470205210E+02 -0.10698626258E+02 -0.24103277634E+02  0.43400733217E+02  0.00000000000E+00 0. -1.
         11    1    3    3    0    0 -0.12472552334E+02  0.11278369767E+02  0.42118020841E+01  0.17335093405E+02  0.51100000000E-03 0. -1.
        -11    1    3    3    0    0 -0.15795727752E+02  0.76817282196E+00  0.17704830510E+02  0.23739337151E+02  0.51100000000E-03 0.  1.
        -12    1    3    3    0    0 -0.62019251247E+01 -0.13479163310E+01  0.21866450397E+01  0.67128362275E+01  0.00000000000E+00 0.  1.
</event>
<event>
 7    1  0.2751796E-010  0.4778727E+02  0.7816164E-02  0.1312668E+00
        -11   -1    0    0    0    0  0.00000000000E+00  0.00000000000E+00  0.45593999997E+02  0.45594000000E+02  0.51100000000E-03 0. -1.
         11   -1    0    0    0    0 -0.00000000000E+00 -0.00000000000E+00 -0.45593999997E+02  0.45594000000E+02  0.51100000000E-03 0.  1.
    9900012    2    1    2    0    0 -0.35351845255E+02 -0.60923402793E+01  0.24428539920E+02  0.47787272637E+02  0.20000007263E+02 0.  0.
         12    1    1    2    0    0  0.35351845255E+02  0.60923402793E+01 -0.24428539920E+02  0.43400727363E+02  0.00000000000E+00 0. -1.
         11    1    3    3    0    0 -0.21411167821E+02 -0.62928884091E+01  0.19677648921E+02  0.29753124530E+02  0.51100000000E-03 0. -1.
        -11    1    3    3    0    0 -0.12211241364E+02  0.42992246148E+01  0.34007695902E+01  0.13385177698E+02  0.51100000000E-03 0.  1.
         12    1    3    3    0    0 -0.17294360693E+01 -0.40986764849E+01  0.13501214085E+01  0.46489704090E+01  0.00000000000E+00 0. -1.
</event>
<event>
 7    1  0.2751796E-010  0.4778728E+02  0.7816164E-02  0.1312668E+00
        -11   -1    0    0    0    0  0.00000000000E+00  0.00000000000E+00  0.45593999997E+02  0.45594000000E+02  0.51100000000E-03 0. -1.
         11   -1    0    0    0    0 -0.00000000000E+00 -0.00000000000E+00 -0.45593999997E+02  0.45594000000E+02  0.51100000000E-03 0.  1.
    9900012    2    1    2    0    0 -0.56787886910E+01 -0.16798903226E+02 -0.39612754147E+02  0.47787284779E+02  0.20000062620E+02 0.  0.
         12    1    1    2    0    0  0.56787886910E+01  0.16798903226E+02  0.39612754147E+02  0.43400715221E+02  0.00000000000E+00 0. -1.
         11    1    3    3    0    0  0.66551851885E+01 -0.31689930060E+01 -0.12607358236E+02  0.14604091499E+02  0.51100000000E-03 0. -1.
        -11    1    3    3    0    0 -0.31844347936E+01 -0.77323152890E+01 -0.10748154470E+02  0.13618081710E+02  0.51100000000E-03 0.  1.
         12    1    3    3    0    0 -0.91495390858E+01 -0.58975949307E+01 -0.16257241441E+02  0.19565111570E+02  0.00000000000E+00 0. -1.
</event>
<event>
 7    1  0.2751796E-010  0.4778727E+02  0.7816164E-02  0.1312668E+00
        -11   -1    0    0    0    0  0.00000000000E+00  0.00000000000E+00  0.45593999997E+02  0.45594000000E+02  0.51100000000E-03 0.  1.
         11   -1    0    0    0    0 -0.00000000000E+00 -0.00000000000E+00 -0.45593999997E+02  0.45594000000E+02  0.51100000000E-03 0. -1.
    9900012    2    1    2    0    0 -0.82659594887E+01 -0.16280045638E+01  0.42575190253E+02  0.47787270625E+02  0.19999998090E+02 0.  0.
         12    1    1    2    0    0  0.82659594887E+01  0.16280045638E+01 -0.42575190253E+02  0.43400729375E+02  0.00000000000E+00 0. -1.
         11    1    3    3    0    0 -0.12670326254E+02  0.11969514260E+01  0.21479503631E+02  0.24966756630E+02  0.51100000000E-03 0. -1.
        -11    1    3    3    0    0  0.47258248902E+01 -0.36144983259E+01  0.96060872633E+01  0.11299333246E+02  0.51100000000E-03 0.  1.
        -12    1    3    3    0    0 -0.32145812444E+00  0.78954233611E+00  0.11489599359E+02  0.11521180749E+02  0.00000000000E+00 0.  1.
</event>
<event>
 7    1  0.2751796E-010  0.4778727E+02  0.7816164E-02  0.1312668E+00
        -11   -1    0    0    0    0  0.00000000000E+00  0.00000000000E+00  0.45593999997E+02  0.45594000000E+02  0.51100000000E-03 0. -1.
         11   -1    0    0    0    0 -0.00000000000E+00 -0.00000000000E+00 -0.45593999997E+02  0.45594000000E+02  0.51100000000E-03 0.  1.
    9900012    2    1    2    0    0  0.18362539360E+02 -0.38468558839E+02 -0.81615386203E+01  0.47787267477E+02  0.19999983734E+02 0.  0.
         12    1    1    2    0    0 -0.18362539360E+02  0.38468558839E+02  0.81615386203E+01  0.43400732523E+02  0.00000000000E+00 0. -1.
         11    1    3    3    0    0  0.13727519446E+02 -0.95751830264E+01 -0.49115817067E+01  0.17442836789E+02  0.51100000000E-03 0. -1.
        -11    1    3    3    0    0  0.98523466175E+00 -0.20487890514E+02 -0.47613534295E+01  0.21056942603E+02  0.51100000000E-03 0.  1.
        -12    1    3    3    0    0  0.36497852522E+01 -0.84054852991E+01  0.15113965159E+01  0.92874880850E+01  0.00000000000E+00 0.  1.
</event>
<event>
 7    1  0.2751796E-010  0.4778727E+02  0.7816164E-02  0.1312668E+00
        -11   -1    0    0    0    0  0.00000000000E+00  0.00000000000E+00  0.45593999997E+02  0.45594000000E+02  0.51100000000E-03 0.  1.
         11   -1    0    0    0    0 -0.00000000000E+00 -0.00000000000E+00 -0.45593999997E+02  0.45594000000E+02  0.51100000000E-03 0. -1.
    9900012    2    1    2    0    0  0.18895657206E+02 -0.13334313249E+02  0.36725649596E+02  0.47787272940E+02  0.20000008643E+02 0.  0.
         12    1    1    2    0    0 -0.18895657206E+02  0.13334313249E+02 -0.36725649596E+02  0.43400727060E+02  0.00000000000E+00 0. -1.
         11    1    3    3    0    0  0.85577046646E+01 -0.16342884650E+02  0.23101494965E+02  0.29563546094E+02  0.51100000000E-03 0. -1.
        -11    1    3    3    0    0  0.99757709043E+01  0.18833812672E+01  0.13685798269E+02  0.17040076427E+02  0.51100000000E-03 0.  1.
         12    1    3    3    0    0  0.36218163750E+00  0.11251901334E+01 -0.61643638139E-01  0.11836504183E+01  0.00000000000E+00 0. -1.
</event>
<event>
 7    1  0.2751796E-010  0.4778727E+02  0.7816164E-02  0.1312668E+00
        -11   -1    0    0    0    0  0.00000000000E+00  0.00000000000E+00  0.45593999997E+02  0.45594000000E+02  0.51100000000E-03 0. -1.
         11   -1    0    0    0    0 -0.00000000000E+00 -0.00000000000E+00 -0.45593999997E+02  0.45594000000E+02  0.51100000000E-03 0.  1.
    9900012    2    1    2    0    0  0.26764819357E+02  0.33920146864E+02  0.40855223459E+01  0.47787269460E+02  0.19999992777E+02 0.  0.
         12    1    1    2    0    0 -0.26764819357E+02 -0.33920146864E+02 -0.40855223459E+01  0.43400730540E+02  0.00000000000E+00 0. -1.
         11    1    3    3    0    0  0.96224296741E+01  0.18569254777E+02  0.50544409090E+01  0.21516406507E+02  0.51100000000E-03 0. -1.
        -11    1    3    3    0    0  0.12841028341E+02  0.11769221148E+02 -0.63176089928E+01  0.18528862862E+02  0.51100000000E-03 0.  1.
        -12    1    3    3    0    0  0.43013613419E+01  0.35816709396E+01  0.53486904297E+01  0.77420000921E+01  0.00000000000E+00 0.  1.
</event>
<event>
 7    1  0.2751796E-010  0.4778727E+02  0.7816164E-02  0.1312668E+00
        -11   -1    0    0    0    0  0.00000000000E+00  0.00000000000E+00  0.45593999997E+02  0.45594000000E+02  0.51100000000E-03 0.  1.
         11   -1    0    0    0    0 -0.00000000000E+00 -0.00000000000E+00 -0.45593999997E+02  0.45594000000E+02  0.51100000000E-03 0. -1.
    9900012    2    1    2    0    0  0.36792357246E+02 -0.14733660460E+02 -0.17687988192E+02  0.47787271567E+02  0.20000002381E+02 0.  0.
         12    1    1    2    0    0 -0.36792357246E+02  0.14733660460E+02  0.17687988192E+02  0.43400728433E+02  0.00000000000E+00 0. -1.
         11    1    3    3    0    0  0.50874137046E+01  0.18052963250E+01  0.79147494816E+00  0.54559422539E+01  0.51100000000E-03 0. -1.
        -11    1    3    3    0    0  0.26354939908E+02 -0.82598980414E+01 -0.16813665599E+02  0.32334318060E+02  0.51100000000E-03 0.  1.
        -12    1    3    3    0    0  0.53500036332E+01 -0.82790587434E+01 -0.16657975406E+01  0.99970112532E+01  0.00000000000E+00 0.  1.
</event>
<event>
 7    1  0.2751796E-010  0.4778727E+02  0.7816164E-02  0.1312668E+00
        -11   -1    0    0    0    0  0.00000000000E+00  0.00000000000E+00  0.45593999997E+02  0.45594000000E+02  0.51100000000E-03 0. -1.
         11   -1    0    0    0    0 -0.00000000000E+00 -0.00000000000E+00 -0.45593999997E+02  0.45594000000E+02  0.51100000000E-03 0.  1.
    9900012    2    1    2    0    0 -0.51309359713E+01 -0.40080119030E+02 -0.15839220618E+02  0.47787270108E+02  0.19999995730E+02 0.  0.
         12    1    1    2    0    0  0.51309359713E+01  0.40080119030E+02  0.15839220618E+02  0.43400729892E+02  0.00000000000E+00 0. -1.
         11    1    3    3    0    0  0.24363816145E+01 -0.21319048372E+02 -0.75465343548E+01  0.22746163630E+02  0.51100000000E-03 0. -1.
        -11    1    3    3    0    0 -0.83309797574E+01 -0.13238147346E+02 -0.10717705960E+02  0.18961091482E+02  0.51100000000E-03 0.  1.
        -12    1    3    3    0    0  0.76366217161E+00 -0.55229233117E+01  0.24250196969E+01  0.60800149959E+01  0.00000000000E+00 0.  1.
</event>
<event>
 7    1  0.2751796E-010  0.4778728E+02  0.7816164E-02  0.1312668E+00
        -11   -1    0    0    0    0  0.00000000000E+00  0.00000000000E+00  0.45593999997E+02  0.45594000000E+02  0.51100000000E-03 0. -1.
         11   -1    0    0    0    0 -0.00000000000E+00 -0.00000000000E+00 -0.45593999997E+02  0.45594000000E+02  0.51100000000E-03 0.  1.
    9900012    2    1    2    0    0  0.30868880822E+02 -0.12905624787E+02 -0.27643805168E+02  0.47787275139E+02  0.20000018667E+02 0.  0.
         12    1    1    2    0    0 -0.30868880822E+02  0.12905624787E+02  0.27643805168E+02  0.43400724861E+02  0.00000000000E+00 0. -1.
         11    1    3    3    0    0  0.87975783124E+01 -0.28434180360E+01 -0.82989891983E+00  0.92828413090E+01  0.51100000000E-03 0. -1.
        -11    1    3    3    0    0  0.16565481094E+02 -0.10974385401E+02 -0.26210006483E+02  0.32890982638E+02  0.51100000000E-03 0.  1.
        -12    1    3    3    0    0  0.55058214156E+01  0.91217865058E+00 -0.60389976510E+00  0.56134511914E+01  0.00000000000E+00 0.  1.
</event>
<event>
 7    1  0.2751796E-010  0.4778727E+02  0.7816164E-02  0.1312668E+00
        -11   -1    0    0    0    0  0.00000000000E+00  0.00000000000E+00  0.45593999997E+02  0.45594000000E+02  0.51100000000E-03 0.  1.
         11   -1    0    0    0    0 -0.00000000000E+00 -0.00000000000E+00 -0.45593999997E+02  0.45594000000E+02  0.51100000000E-03 0. -1.
    9900012    2    1    2    0    0  0.30477305505E+00 -0.20609294032E+02  0.38194076643E+02  0.47787269848E+02  0.19999994547E+02 0.  0.
         12    1    1    2    0    0 -0.30477305505E+00  0.20609294032E+02 -0.38194076643E+02  0.43400730152E+02  0.00000000000E+00 0. -1.
         11    1    3    3    0    0  0.82440264820E+01 -0.62297944243E+01  0.17899796407E+02  0.20668261244E+02  0.51100000000E-03 0. -1.
        -11    1    3    3    0    0 -0.63625212008E+01 -0.12529340064E+02  0.20298706460E+02  0.24688125135E+02  0.51100000000E-03 0.  1.
         12    1    3    3    0    0 -0.15767322261E+01 -0.18501595434E+01 -0.44262238794E-02  0.24308834691E+01  0.00000000000E+00 0. -1.
</event>
<event>
 7    1  0.2751796E-010  0.4778727E+02  0.7816164E-02  0.1312668E+00
        -11   -1    0    0    0    0  0.00000000000E+00  0.00000000000E+00  0.45593999997E+02  0.45594000000E+02  0.51100000000E-03 0.  1.
         11   -1    0    0    0    0 -0.00000000000E+00 -0.00000000000E+00 -0.45593999997E+02  0.45594000000E+02  0.51100000000E-03 0. -1.
    9900012    2    1    2    0    0 -0.11730886833E+02 -0.35404352920E+01  0.41635016805E+02  0.47787274058E+02  0.20000013740E+02 0.  0.
         12    1    1    2    0    0  0.11730886833E+02  0.35404352920E+01 -0.41635016805E+02  0.43400725942E+02  0.00000000000E+00 0. -1.
         11    1    3    3    0    0  0.11309365857E+01 -0.22035300039E+01  0.36115117366E+01  0.43792213148E+01  0.51100000000E-03 0. -1.
        -11    1    3    3    0    0 -0.84006598964E+01 -0.79868923490E+01  0.14529054507E+02  0.18586418730E+02  0.51100000000E-03 0.  1.
         12    1    3    3    0    0 -0.44611635225E+01  0.66499870609E+01  0.23494450562E+02  0.24821634013E+02  0.00000000000E+00 0. -1.
</event>
<event>
 7    1  0.2751796E-010  0.4778733E+02  0.7816164E-02  0.1312667E+00
        -11   -1    0    0    0    0  0.00000000000E+00  0.00000000000E+00  0.45593999997E+02  0.45594000000E+02  0.51100000000E-03 0.  1.
         11   -1    0    0    0    0 -0.00000000000E+00 -0.00000000000E+00 -0.45593999997E+02  0.45594000000E+02  0.51100000000E-03 0. -1.
    9900012    2    1    2    0    0  0.31812061085E+02 -0.29330522776E+02  0.33662153016E+01  0.47787329472E+02  0.20000266395E+02 0.  0.
         12    1    1    2    0    0 -0.31812061085E+02  0.29330522776E+02 -0.33662153016E+01  0.43400670528E+02  0.00000000000E+00 0. -1.
         11    1    3    3    0    0  0.47171732668E+01  0.10480570537E-01 -0.28212756740E+01  0.54964925326E+01  0.51100000000E-03 0. -1.
        -11    1    3    3    0    0  0.24711590303E+02 -0.18865867058E+02  0.48188715686E+01  0.31461169060E+02  0.51100000000E-03 0.  1.
        -12    1    3    3    0    0  0.23832975147E+01 -0.10475136288E+02  0.13686194070E+01  0.10829667880E+02  0.00000000000E+00 0.  1.
</event>
<event>
 7    1  0.2751796E-010  0.4778727E+02  0.7816164E-02  0.1312668E+00
        -11   -1    0    0    0    0  0.00000000000E+00  0.00000000000E+00  0.45593999997E+02  0.45594000000E+02  0.51100000000E-03 0. -1.
         11   -1    0    0    0    0 -0.00000000000E+00 -0.00000000000E+00 -0.45593999997E+02  0.45594000000E+02  0.51100000000E-03 0.  1.
    9900012    2    1    2    0    0 -0.40206339461E+02  0.72887810670E+01 -0.14626931068E+02  0.47787272186E+02  0.20000005204E+02 0.  0.
         12    1    1    2    0    0  0.40206339461E+02 -0.72887810670E+01  0.14626931068E+02  0.43400727814E+02  0.00000000000E+00 0. -1.
         11    1    3    3    0    0  0.15598913433E+01  0.50085295744E+00 -0.20850577676E+01  0.26517128131E+01  0.51100000000E-03 0. -1.
        -11    1    3    3    0    0 -0.32258608648E+02  0.89116005468E+01 -0.81247137473E+01  0.34439010292E+02  0.51100000000E-03 0.  1.
         12    1    3    3    0    0 -0.95076221571E+01 -0.21236724373E+01 -0.44171595535E+01  0.10696549080E+02  0.00000000000E+00 0. -1.
</event>
<event>
 7    1  0.2751796E-010  0.4778727E+02  0.7816164E-02  0.1312668E+00
        -11   -1    0    0    0    0  0.00000000000E+00  0.00000000000E+00  0.45593999997E+02  0.45594000000E+02  0.51100000000E-03 0.  1.
         11   -1    0    0    0    0 -0.00000000000E+00 -0.00000000000E+00 -0.45593999997E+02  0.45594000000E+02  0.51100000000E-03 0. -1.
    9900012    2    1    2    0    0 -0.29194873353E+02 -0.32077523329E+02  0.15216652875E+01  0.47787267307E+02  0.19999982959E+02 0.  0.
         12    1    1    2    0    0  0.29194873353E+02  0.32077523329E+02 -0.15216652875E+01  0.43400732693E+02  0.00000000000E+00 0. -1.
         11    1    3    3    0    0  0.76096990335E+00 -0.56279000125E+01  0.39283642596E+01  0.69053877344E+01  0.51100000000E-03 0. -1.
        -11    1    3    3    0    0 -0.14808862767E+02 -0.13285300317E+02 -0.53437881205E+01  0.20599943997E+02  0.51100000000E-03 0.  1.
         12    1    3    3    0    0 -0.15146980490E+02 -0.13164323000E+02  0.29370891484E+01  0.20281935575E+02  0.00000000000E+00 0. -1.
</event>
<event>
 7    1  0.2751796E-010  0.4778727E+02  0.7816164E-02  0.1312668E+00
        -11   -1    0    0    0    0  0.00000000000E+00  0.00000000000E+00  0.45593999997E+02  0.45594000000E+02  0.51100000000E-03 0. -1.
         11   -1    0    0    0    0 -0.00000000000E+00 -0.00000000000E+00 -0.45593999997E+02  0.45594000000E+02  0.51100000000E-03 0.  1.
    9900012    2    1    2    0    0 -0.44052111002E+01  0.18920106357E+02 -0.38810394864E+02  0.47787273521E+02  0.20000011292E+02 0.  0.
         12    1    1    2    0    0  0.44052111002E+01 -0.18920106357E+02  0.38810394864E+02  0.43400726479E+02  0.00000000000E+00 0. -1.
         11    1    3    3    0    0 -0.92041672004E+01  0.60111833859E+01 -0.24244680894E+02  0.26620585483E+02  0.51100000000E-03 0.  1.
        -11    1    3    3    0    0  0.45301602511E+01  0.38714352961E+01 -0.80791142868E+01  0.10039046323E+02  0.51100000000E-03 0. -1.
         12    1    3    3    0    0  0.26879584906E+00  0.90374876751E+01 -0.64865996834E+01  0.11127641715E+02  0.00000000000E+00 0. -1.
</event>
<event>
 7    1  0.2751796E-010  0.4778727E+02  0.7816164E-02  0.1312668E+00
        -11   -1    0    0    0    0  0.00000000000E+00  0.00000000000E+00  0.45593999997E+02  0.45594000000E+02  0.51100000000E-03 0.  1.
         11   -1    0    0    0    0 -0.00000000000E+00 -0.00000000000E+00 -0.45593999997E+02  0.45594000000E+02  0.51100000000E-03 0. -1.
    9900012    2    1    2    0    0 -0.21216971663E+02  0.13690151141E+02  0.35299336816E+02  0.47787270692E+02  0.19999998393E+02 0.  0.
         12    1    1    2    0    0  0.21216971663E+02 -0.13690151141E+02 -0.35299336816E+02  0.43400729308E+02  0.00000000000E+00 0. -1.
         11    1    3    3    0    0 -0.17801259152E+02  0.80051072384E+01  0.18182085366E+02  0.26674984495E+02  0.51100000000E-03 0. -1.
        -11    1    3    3    0    0 -0.26190569742E+01 -0.11151927856E+01  0.12581332655E+02  0.12899342853E+02  0.51100000000E-03 0.  1.
         12    1    3    3    0    0 -0.79665553633E+00  0.68002366886E+01  0.45359187947E+01  0.82129433443E+01  0.00000000000E+00 0. -1.
</event>
<event>
 7    1  0.2751796E-010  0.4778728E+02  0.7816164E-02  0.1312668E+00
        -11   -1    0    0    0    0  0.00000000000E+00  0.00000000000E+00  0.45593999997E+02  0.45594000000E+02  0.51100000000E-03 0.  1.
         11   -1    0    0    0    0 -0.00000000000E+00 -0.00000000000E+00 -0.45593999997E+02  0.45594000000E+02  0.51100000000E-03 0. -1.
    9900012    2    1    2    0    0  0.32481476177E+01  0.12870648679E+02  0.41320922676E+02  0.47787277527E+02  0.20000029556E+02 0.  0.
         12    1    1    2    0    0 -0.32481476177E+01 -0.12870648679E+02 -0.41320922676E+02  0.43400722473E+02  0.00000000000E+00 0. -1.
         11    1    3    3    0    0  0.27418912918E+01 -0.13229298698E+01 -0.99688921741E-01  0.30459890740E+01  0.51100000000E-03 0. -1.
        -11    1    3    3    0    0  0.12794048694E+00 -0.59784825613E+00  0.99190233824E+01  0.99378476758E+01  0.51100000000E-03 0.  1.
         12    1    3    3    0    0  0.37831583893E+00  0.14791426805E+02  0.31501588216E+02  0.34803440777E+02  0.00000000000E+00 0. -1.
</event>
<event>
 7    1  0.2751796E-010  0.4778727E+02  0.7816164E-02  0.1312668E+00
        -11   -1    0    0    0    0  0.00000000000E+00  0.00000000000E+00  0.45593999997E+02  0.45594000000E+02  0.51100000000E-03 0.  1.
         11   -1    0    0    0    0 -0.00000000000E+00 -0.00000000000E+00 -0.45593999997E+02  0.45594000000E+02  0.51100000000E-03 0. -1.
    9900012    2    1    2    0    0  0.14258237965E+01 -0.38026978359E+02  0.20869570619E+02  0.47787273803E+02  0.20000012575E+02 0.  0.
         12    1    1    2    0    0 -0.14258237965E+01  0.38026978359E+02 -0.20869570619E+02  0.43400726197E+02  0.00000000000E+00 0. -1.
         11    1    3    3    0    0 -0.19480580166E+01 -0.18336720535E+01  0.53612208586E+01  0.59916585844E+01  0.51100000000E-03 0. -1.
        -11    1    3    3    0    0  0.43086451859E+01 -0.37180582155E+02  0.14691154691E+02  0.40209329006E+02  0.51100000000E-03 0.  1.
        -12    1    3    3    0    0 -0.93476337275E+00  0.98727584891E+00  0.81719506989E+00  0.15862862122E+01  0.00000000000E+00 0.  1.
</event>
<event>
 7    1  0.2751796E-010  0.4778727E+02  0.7816164E-02  0.1312668E+00
        -11   -1    0    0    0    0  0.00000000000E+00  0.00000000000E+00  0.45593999997E+02  0.45594000000E+02  0.51100000000E-03 0.  1.
         11   -1    0    0    0    0 -0.00000000000E+00 -0.00000000000E+00 -0.45593999997E+02  0.45594000000E+02  0.51100000000E-03 0. -1.
    9900012    2    1    2    0    0  0.82997358112E+01  0.34972563980E+01  0.42455941058E+02  0.47787270191E+02  0.19999996108E+02 0.  0.
         12    1    1    2    0    0 -0.82997358112E+01 -0.34972563980E+01 -0.42455941058E+02  0.43400729809E+02  0.00000000000E+00 0. -1.
         11    1    3    3    0    0 -0.17418214706E+01  0.68459117371E+00 -0.12064747567E+01  0.22266990614E+01  0.51100000000E-03 0. -1.
        -11    1    3    3    0    0  0.26307957821E+01 -0.15496706179E+01  0.22676137884E+02  0.22880773481E+02  0.51100000000E-03 0.  1.
         12    1    3    3    0    0  0.74107614996E+01  0.43623358422E+01  0.20986277931E+02  0.22679797649E+02  0.00000000000E+00 0. -1.
</event>
<event>
 7    1  0.2751796E-010  0.4778727E+02  0.7816164E-02  0.1312668E+00
        -11   -1    0    0    0    0  0.00000000000E+00  0.00000000000E+00  0.45593999997E+02  0.45594000000E+02  0.51100000000E-03 0. -1.
         11   -1    0    0    0    0 -0.00000000000E+00 -0.00000000000E+00 -0.45593999997E+02  0.45594000000E+02  0.51100000000E-03 0.  1.
    9900012    2    1    2    0    0  0.18017733703E+02  0.38775085093E+02  0.74482918249E+01  0.47787274167E+02  0.20000014235E+02 0.  0.
         12    1    1    2    0    0 -0.18017733703E+02 -0.38775085093E+02 -0.74482918249E+01  0.43400725833E+02  0.00000000000E+00 0. -1.
         11    1    3    3    0    0  0.10026169498E+02  0.29630134318E+02 -0.19015731280E+01  0.31338234078E+02  0.51100000000E-03 0.  1.
        -11    1    3    3    0    0  0.70838392336E+01  0.54396548523E+01  0.88982862059E+01  0.12607542221E+02  0.51100000000E-03 0. -1.
         12    1    3    3    0    0  0.90772497134E+00  0.37052959225E+01  0.45157874702E+00  0.38414978670E+01  0.00000000000E+00 0. -1.
</event>
<event>
 7    1  0.2751796E-010  0.4778727E+02  0.7816164E-02  0.1312668E+00
        -11   -1    0    0    0    0  0.00000000000E+00  0.00000000000E+00  0.45593999997E+02  0.45594000000E+02  0.51100000000E-03 0.  1.
         11   -1    0    0    0    0 -0.00000000000E+00 -0.00000000000E+00 -0.45593999997E+02  0.45594000000E+02  0.51100000000E-03 0. -1.
    9900012    2    1    2    0    0 -0.18281025597E+02  0.36283206622E+02  0.15262907748E+02  0.47787270367E+02  0.19999996914E+02 0.  0.
         12    1    1    2    0    0  0.18281025597E+02 -0.36283206622E+02 -0.15262907748E+02  0.43400729633E+02  0.00000000000E+00 0. -1.
         11    1    3    3    0    0 -0.72500016477E+00 -0.18211212849E+01  0.14490668767E+01  0.24376019051E+01  0.51100000000E-03 0. -1.
        -11    1    3    3    0    0 -0.16130387752E+02  0.25976527063E+02  0.12623300694E+02  0.33080463841E+02  0.51100000000E-03 0.  1.
         12    1    3    3    0    0 -0.14256376807E+01  0.12127800845E+02  0.11905401774E+01  0.12269204621E+02  0.00000000000E+00 0. -1.
</event>
<event>
 7    1  0.2751796E-010  0.4778727E+02  0.7816164E-02  0.1312668E+00
        -11   -1    0    0    0    0  0.00000000000E+00  0.00000000000E+00  0.45593999997E+02  0.45594000000E+02  0.51100000000E-03 0.  1.
         11   -1    0    0    0    0 -0.00000000000E+00 -0.00000000000E+00 -0.45593999997E+02  0.45594000000E+02  0.51100000000E-03 0. -1.
    9900012    2    1    2    0    0 -0.26732115956E+02  0.15516403856E+01  0.34155670351E+02  0.47787269264E+02  0.19999991880E+02 0.  0.
         12    1    1    2    0    0  0.26732115956E+02 -0.15516403856E+01 -0.34155670351E+02  0.43400730736E+02  0.00000000000E+00 0. -1.
         11    1    3    3    0    0  0.15785426275E+01  0.33048748547E+01  0.16107834461E+01  0.40010771304E+01  0.51100000000E-03 0. -1.
        -11    1    3    3    0    0 -0.24007911655E+02 -0.40629170057E+01  0.26017800893E+02  0.35634436718E+02  0.51100000000E-03 0.  1.
         12    1    3    3    0    0 -0.43027469278E+01  0.23096825367E+01  0.65270860113E+01  0.81517554149E+01  0.00000000000E+00 0. -1.
</event>
<event>
 7    1  0.2751796E-010  0.4778727E+02  0.7816164E-02  0.1312668E+00
        -11   -1    0    0    0    0  0.00000000000E+00  0.00000000000E+00  0.45593999997E+02  0.45594000000E+02  0.51100000000E-03 0.  1.
         11   -1    0    0    0    0 -0.00000000000E+00 -0.00000000000E+00 -0.45593999997E+02  0.45594000000E+02  0.51100000000E-03 0. -1.
    9900012    2    1    2    0    0 -0.30384479319E+01 -0.58992138673E+01  0.42890445358E+02  0.47787271975E+02  0.20000004241E+02 0.  0.
         12    1    1    2    0    0  0.30384479319E+01  0.58992138673E+01 -0.42890445358E+02  0.43400728025E+02  0.00000000000E+00 0. -1.
         11    1    3    3    0    0  0.63778574978E+01 -0.36373365871E+01  0.22676414526E+02  0.23835416080E+02  0.51100000000E-03 0. -1.
        -11    1    3    3    0    0 -0.95991785196E+01 -0.41625948193E+00  0.11234582263E+02  0.14782873168E+02  0.51100000000E-03 0.  1.
         12    1    3    3    0    0  0.18287308996E+00 -0.18456177982E+01  0.89794485698E+01  0.91689827266E+01  0.00000000000E+00 0. -1.
</event>
<event>
 7    1  0.2751796E-010  0.4778726E+02  0.7816164E-02  0.1312668E+00
        -11   -1    0    0    0    0  0.00000000000E+00  0.00000000000E+00  0.45593999997E+02  0.45594000000E+02  0.51100000000E-03 0.  1.
         11   -1    0    0    0    0 -0.00000000000E+00 -0.00000000000E+00 -0.45593999997E+02  0.45594000000E+02  0.51100000000E-03 0. -1.
    9900012    2    1    2    0    0  0.86743619433E+00  0.73402784640E+01  0.42766714791E+02  0.47787262362E+02  0.19999960413E+02 0.  0.
         12    1    1    2    0    0 -0.86743619433E+00 -0.73402784640E+01 -0.42766714791E+02  0.43400737638E+02  0.00000000000E+00 0. -1.
         11    1    3    3    0    0  0.47354056316E+00  0.95773255793E+01  0.93766078852E+01  0.13411568947E+02  0.51100000000E-03 0. -1.
        -11    1    3    3    0    0  0.21620271466E+01 -0.46575500097E+01  0.22680235019E+02  0.23254251101E+02  0.51100000000E-03 0.  1.
        -12    1    3    3    0    0 -0.17681315154E+01  0.24205028944E+01  0.10709871887E+02  0.11121442314E+02  0.00000000000E+00 0.  1.
</event>
<event>
 7    1  0.2751796E-010  0.4778728E+02  0.7816164E-02  0.1312668E+00
        -11   -1    0    0    0    0  0.00000000000E+00  0.00000000000E+00  0.45593999997E+02  0.45594000000E+02  0.51100000000E-03 0.  1.
         11   -1    0    0    0    0 -0.00000000000E+00 -0.00000000000E+00 -0.45593999997E+02  0.45594000000E+02  0.51100000000E-03 0. -1.
    9900012    2    1    2    0    0 -0.27566798689E+02  0.22496291535E+01  0.33445981082E+02  0.47787275677E+02  0.20000021120E+02 0.  0.
         12    1    1    2    0    0  0.27566798689E+02 -0.22496291535E+01 -0.33445981082E+02  0.43400724323E+02  0.00000000000E+00 0. -1.
         11    1    3    3    0    0 -0.21506869156E+02  0.78228027502E+01  0.31498627983E+02  0.38934627632E+02  0.51100000000E-03 0. -1.
        -11    1    3    3    0    0 -0.50422598759E+01 -0.29972532511E+01  0.13584842398E+01  0.60210789231E+01  0.51100000000E-03 0.  1.
         12    1    3    3    0    0 -0.10176696564E+01 -0.25759203456E+01  0.58886885931E+00  0.28315691215E+01  0.00000000000E+00 0. -1.
</event>
<event>
 7    1  0.2751796E-010  0.4778726E+02  0.7816164E-02  0.1312668E+00
        -11   -1    0    0    0    0  0.00000000000E+00  0.00000000000E+00  0.45593999997E+02  0.45594000000E+02  0.51100000000E-03 0. -1.
         11   -1    0    0    0    0 -0.00000000000E+00 -0.00000000000E+00 -0.45593999997E+02  0.45594000000E+02  0.51100000000E-03 0.  1.
    9900012    2    1    2    0    0 -0.15648292984E+02 -0.11395768185E+02 -0.38844456455E+02  0.47787258035E+02  0.19999940684E+02 0.  0.
         12    1    1    2    0    0  0.15648292984E+02  0.11395768185E+02  0.38844456455E+02  0.43400741965E+02  0.00000000000E+00 0. -1.
         11    1    3    3    0    0 -0.87051693621E+01  0.18391707515E+00 -0.44460586940E+01  0.97765657204E+01  0.51100000000E-03 0. -1.
        -11    1    3    3    0    0 -0.90137550041E+01 -0.10067942889E+02 -0.30294612640E+02  0.33171897874E+02  0.51100000000E-03 0.  1.
        -12    1    3    3    0    0  0.20706313824E+01 -0.15117423708E+01 -0.41037851207E+01  0.48387944401E+01  0.00000000000E+00 0.  1.
</event>
<event>
 7    1  0.2751796E-010  0.4778727E+02  0.7816164E-02  0.1312668E+00
        -11   -1    0    0    0    0  0.00000000000E+00  0.00000000000E+00  0.45593999997E+02  0.45594000000E+02  0.51100000000E-03 0.  1.
         11   -1    0    0    0    0 -0.00000000000E+00 -0.00000000000E+00 -0.45593999997E+02  0.45594000000E+02  0.51100000000E-03 0. -1.
    9900012    2    1    2    0    0  0.32393726763E+02 -0.72969075114E+01  0.27946818611E+02  0.47787273470E+02  0.20000011061E+02 0.  0.
         12    1    1    2    0    0 -0.32393726763E+02  0.72969075114E+01 -0.27946818611E+02  0.43400726530E+02  0.00000000000E+00 0. -1.
         11    1    3    3    0    0  0.31005145388E+02 -0.11015474057E+02  0.24636310404E+02  0.41104835480E+02  0.51100000000E-03 0. -1.
        -11    1    3    3    0    0  0.16796882839E+01  0.44065970054E+01  0.35446886762E+01  0.58995142149E+01  0.51100000000E-03 0.  1.
         12    1    3    3    0    0 -0.29110690852E+00 -0.68803046020E+00 -0.23418046982E+00  0.78292377586E+00  0.00000000000E+00 0. -1.
</event>
<event>
 7    1  0.2751796E-010  0.4778727E+02  0.7816164E-02  0.1312668E+00
        -11   -1    0    0    0    0  0.00000000000E+00  0.00000000000E+00  0.45593999997E+02  0.45594000000E+02  0.51100000000E-03 0.  1.
         11   -1    0    0    0    0 -0.00000000000E+00 -0.00000000000E+00 -0.45593999997E+02  0.45594000000E+02  0.51100000000E-03 0. -1.
    9900012    2    1    2    0    0  0.42685226088E+01 -0.19832345429E+02  0.38367704385E+02  0.47787274773E+02  0.20000016999E+02 0.  0.
         12    1    1    2    0    0 -0.42685226088E+01  0.19832345429E+02 -0.38367704385E+02  0.43400725227E+02  0.00000000000E+00 0. -1.
         11    1    3    3    0    0  0.64638809425E+00  0.30784691752E+01  0.81801729484E+00  0.32502219289E+01  0.51100000000E-03 0. -1.
        -11    1    3    3    0    0  0.73276898949E-01 -0.17355556668E+02  0.26986058170E+02  0.32085324567E+02  0.51100000000E-03 0.  1.
         12    1    3    3    0    0  0.35488576156E+01 -0.55552579366E+01  0.10563628920E+02  0.12451728277E+02  0.00000000000E+00 0. -1.
</event>
<event>
 7    1  0.2751796E-010  0.4778727E+02  0.7816164E-02  0.1312668E+00
        -11   -1    0    0    0    0  0.00000000000E+00  0.00000000000E+00  0.45593999997E+02  0.45594000000E+02  0.51100000000E-03 0.  1.
         11   -1    0    0    0    0 -0.00000000000E+00 -0.00000000000E+00 -0.45593999997E+02  0.45594000000E+02  0.51100000000E-03 0. -1.
    9900012    2    1    2    0    0 -0.77190598019E+01  0.42186060136E+02 -0.66615142052E+01  0.47787270450E+02  0.19999997288E+02 0.  0.
         12    1    1    2    0    0  0.77190598019E+01 -0.42186060136E+02  0.66615142052E+01  0.43400729550E+02  0.00000000000E+00 0. -1.
         11    1    3    3    0    0 -0.88976296653E+01  0.17720252735E+02 -0.87265139186E+01  0.21663961228E+02  0.51100000000E-03 0. -1.
        -11    1    3    3    0    0  0.24261400751E+01  0.16635760844E+02  0.51994546299E+01  0.17597415243E+02  0.51100000000E-03 0.  1.
        -12    1    3    3    0    0 -0.12475702117E+01  0.78300465568E+01 -0.31344549165E+01  0.85258939788E+01  0.00000000000E+00 0.  1.
</event>
<event>
 7    1  0.2751796E-010  0.4778728E+02  0.7816164E-02  0.1312668E+00
        -11   -1    0    0    0    0  0.00000000000E+00  0.00000000000E+00  0.45593999997E+02  0.45594000000E+02  0.51100000000E-03 0. -1.
         11   -1    0    0    0    0 -0.00000000000E+00 -0.00000000000E+00 -0.45593999997E+02  0.45594000000E+02  0.51100000000E-03 0.  1.
    9900012    2    1    2    0    0  0.35789810647E+02 -0.12715517234E+02 -0.21000655699E+02  0.47787280369E+02  0.20000042516E+02 0.  0.
         12    1    1    2    0    0 -0.35789810647E+02  0.12715517234E+02  0.21000655699E+02  0.43400719631E+02  0.00000000000E+00 0. -1.
         11    1    3    3    0    0  0.24180585913E+02 -0.10162465283E+02 -0.20586744205E+02  0.33343522204E+02  0.51100000000E-03 0. -1.
        -11    1    3    3    0    0 -0.27591197727E+00  0.11382555860E+01  0.14455149892E+01  0.18604480759E+01  0.51100000000E-03 0.  1.
        -12    1    3    3    0    0  0.11885136711E+02 -0.36913075377E+01 -0.18594264834E+01  0.12583310090E+02  0.00000000000E+00 0.  1.
</event>
<event>
 7    1  0.2751796E-010  0.4778727E+02  0.7816164E-02  0.1312668E+00
        -11   -1    0    0    0    0  0.00000000000E+00  0.00000000000E+00  0.45593999997E+02  0.45594000000E+02  0.51100000000E-03 0.  1.
         11   -1    0    0    0    0 -0.00000000000E+00 -0.00000000000E+00 -0.45593999997E+02  0.45594000000E+02  0.51100000000E-03 0. -1.
    9900012    2    1    2    0    0 -0.29847459510E+02 -0.14105519742E+02  0.28174220069E+02  0.47787271862E+02  0.20000003729E+02 0.  0.
         12    1    1    2    0    0  0.29847459510E+02  0.14105519742E+02 -0.28174220069E+02  0.43400728138E+02  0.00000000000E+00 0. -1.
         11    1    3    3    0    0 -0.25190383963E+02 -0.15754523951E+02  0.14301332620E+02  0.32974059260E+02  0.51100000000E-03 0. -1.
        -11    1    3    3    0    0 -0.24246051077E+01  0.61485663083E+00  0.91774430848E+01  0.95122142764E+01  0.51100000000E-03 0.  1.
         12    1    3    3    0    0 -0.22324704395E+01  0.10341475782E+01  0.46954443643E+01  0.53009983262E+01  0.00000000000E+00 0. -1.
</event>
<event>
 7    1  0.2751796E-010  0.4778728E+02  0.7816164E-02  0.1312668E+00
        -11   -1    0    0    0    0  0.00000000000E+00  0.00000000000E+00  0.45593999997E+02  0.45594000000E+02  0.51100000000E-03 0.  1.
         11   -1    0    0    0    0 -0.00000000000E+00 -0.00000000000E+00 -0.45593999997E+02  0.45594000000E+02  0.51100000000E-03 0. -1.
    9900012    2    1    2    0    0  0.14763404347E+02  0.19922041787E+02  0.35619889366E+02  0.47787281396E+02  0.20000047199E+02 0.  0.
         12    1    1    2    0    0 -0.14763404347E+02 -0.19922041787E+02 -0.35619889366E+02  0.43400718604E+02  0.00000000000E+00 0. -1.
         11    1    3    3    0    0  0.36021280075E+01 -0.38280980705E+01  0.38748304982E+01  0.65302352692E+01  0.51100000000E-03 0. -1.
        -11    1    3    3    0    0  0.69440414213E+01  0.11967860398E+02  0.16804997071E+02  0.21768264069E+02  0.51100000000E-03 0.  1.
         12    1    3    3    0    0  0.42172349177E+01  0.11782279460E+02  0.14940061797E+02  0.19488782058E+02  0.00000000000E+00 0. -1.
</event>
<event>
 7    1  0.2751796E-010  0.4778727E+02  0.7816164E-02  0.1312668E+00
        -11   -1    0    0    0    0  0.00000000000E+00  0.00000000000E+00  0.45593999997E+02  0.45594000000E+02  0.51100000000E-03 0.  1.
         11   -1    0    0    0    0 -0.00000000000E+00 -0.00000000000E+00 -0.45593999997E+02  0.45594000000E+02  0.51100000000E-03 0. -1.
    9900012    2    1    2    0    0  0.13109054159E+00 -0.29319707729E+02  0.31999385990E+02  0.47787272474E+02  0.20000006518E+02 0.  0.
         12    1    1    2    0    0 -0.13109054159E+00  0.29319707729E+02 -0.31999385990E+02  0.43400727526E+02  0.00000000000E+00 0. -1.
         11    1    3    3    0    0 -0.60124291370E+01 -0.21306064000E+02  0.21264009127E+02  0.30696184645E+02  0.51100000000E-03 0. -1.
        -11    1    3    3    0    0 -0.11047814646E+01 -0.53510849757E+01  0.55593839169E+01  0.77949600575E+01  0.51100000000E-03 0.  1.
         12    1    3    3    0    0  0.72483011432E+01 -0.26625587533E+01  0.51759929458E+01  0.92961277719E+01  0.00000000000E+00 0. -1.
</event>
<event>
 7    1  0.2751796E-010  0.4778726E+02  0.7816164E-02  0.1312668E+00
        -11   -1    0    0    0    0  0.00000000000E+00  0.00000000000E+00  0.45593999997E+02  0.45594000000E+02  0.51100000000E-03 0. -1.
         11   -1    0    0    0    0 -0.00000000000E+00 -0.00000000000E+00 -0.45593999997E+02  0.45594000000E+02  0.51100000000E-03 0.  1.
    9900012    2    1    2    0    0 -0.24920028329E+02 -0.30702799526E+02  0.17887278747E+02  0.47787257476E+02  0.19999938136E+02 0.  0.
         12    1    1    2    0    0  0.24920028329E+02  0.30702799526E+02 -0.17887278747E+02  0.43400742524E+02  0.00000000000E+00 0. -1.
         11    1    3    3    0    0  0.61400478974E+00 -0.41027739088E+01  0.40525068908E+01  0.57993592741E+01  0.51100000000E-03 0. -1.
        -11    1    3    3    0    0 -0.17887271721E+02 -0.26171051787E+02  0.90856073756E+01  0.32976153549E+02  0.51100000000E-03 0.  1.
        -12    1    3    3    0    0 -0.76467613982E+01 -0.42897383028E+00  0.47491644804E+01  0.90117446529E+01  0.00000000000E+00 0.  1.
</event>
<event>
 7    1  0.2751796E-010  0.4778728E+02  0.7816164E-02  0.1312668E+00
        -11   -1    0    0    0    0  0.00000000000E+00  0.00000000000E+00  0.45593999997E+02  0.45594000000E+02  0.51100000000E-03 0.  1.
         11   -1    0    0    0    0 -0.00000000000E+00 -0.00000000000E+00 -0.45593999997E+02  0.45594000000E+02  0.51100000000E-03 0. -1.
    9900012    2    1    2    0    0  0.13134060161E+02  0.16527964435E+02  0.37920253668E+02  0.47787276701E+02  0.20000025790E+02 0.  0.
         12    1    1    2    0    0 -0.13134060161E+02 -0.16527964435E+02 -0.37920253668E+02  0.43400723299E+02  0.00000000000E+00 0. -1.
         11    1    3    3    0    0 -0.10077682656E+01 -0.28566471665E+01  0.23517993097E+01  0.38349693826E+01  0.51100000000E-03 0. -1.
        -11    1    3    3    0    0  0.64824363328E+01  0.15633485406E+02  0.19990435344E+02  0.26192467472E+02  0.51100000000E-03 0.  1.
        -12    1    3    3    0    0  0.76593920938E+01  0.37511261951E+01  0.15578019014E+02  0.17759839846E+02  0.00000000000E+00 0.  1.
</event>
<event>
 7    1  0.2751796E-010  0.4778727E+02  0.7816164E-02  0.1312668E+00
        -11   -1    0    0    0    0  0.00000000000E+00  0.00000000000E+00  0.45593999997E+02  0.45594000000E+02  0.51100000000E-03 0.  1.
         11   -1    0    0    0    0 -0.00000000000E+00 -0.00000000000E+00 -0.45593999997E+02  0.45594000000E+02  0.51100000000E-03 0. -1.
    9900012    2    1    2    0    0  0.39167614904E+02  0.15163949986E+02  0.10935067231E+02  0.47787272682E+02  0.20000007465E+02 0.  0.
         12    1    1    2    0    0 -0.39167614904E+02 -0.15163949986E+02 -0.10935067231E+02  0.43400727318E+02  0.00000000000E+00 0. -1.
         11    1    3    3    0    0  0.22048454802E+02 -0.20886887353E+00  0.38882163617E+01  0.22389645199E+02  0.51100000000E-03 0. -1.
        -11    1    3    3    0    0  0.11625214434E+02  0.92958800951E+01  0.84044410150E+01  0.17093672116E+02  0.51100000000E-03 0.  1.
         12    1    3    3    0    0  0.54939456676E+01  0.60769387640E+01 -0.13575901453E+01  0.83039553673E+01  0.00000000000E+00 0. -1.
</event>
<event>
 7    1  0.2751796E-010  0.4778727E+02  0.7816164E-02  0.1312668E+00
        -11   -1    0    0    0    0  0.00000000000E+00  0.00000000000E+00  0.45593999997E+02  0.45594000000E+02  0.51100000000E-03 0. -1.
         11   -1    0    0    0    0 -0.00000000000E+00 -0.00000000000E+00 -0.45593999997E+02  0.45594000000E+02  0.51100000000E-03 0.  1.
    9900012    2    1    2    0    0 -0.10084699569E+02 -0.13606069175E+02 -0.39959947012E+02  0.47787266723E+02  0.19999980295E+02 0.  0.
         12    1    1    2    0    0  0.10084699569E+02  0.13606069175E+02  0.39959947012E+02  0.43400733277E+02  0.00000000000E+00 0. -1.
         11    1    3    3    0    0 -0.10285063774E+02 -0.65386246301E+01 -0.11073150058E+02  0.16466657261E+02  0.51100000000E-03 0. -1.
        -11    1    3    3    0    0  0.33447430120E+01 -0.18083395997E+00 -0.16233612633E+02  0.16575590068E+02  0.51100000000E-03 0.  1.
        -12    1    3    3    0    0 -0.31443788066E+01 -0.68866105846E+01 -0.12653184322E+02  0.14745019393E+02  0.00000000000E+00 0.  1.
</event>
<event>
 7    1  0.2751796E-010  0.4778727E+02  0.7816164E-02  0.1312668E+00
        -11   -1    0    0    0    0  0.00000000000E+00  0.00000000000E+00  0.45593999997E+02  0.45594000000E+02  0.51100000000E-03 0. -1.
         11   -1    0    0    0    0 -0.00000000000E+00 -0.00000000000E+00 -0.45593999997E+02  0.45594000000E+02  0.51100000000E-03 0.  1.
    9900012    2    1    2    0    0  0.12601577464E+02 -0.30953828039E+02 -0.27689054733E+02  0.47787274466E+02  0.20000015601E+02 0.  0.
         12    1    1    2    0    0 -0.12601577464E+02  0.30953828039E+02  0.27689054733E+02  0.43400725534E+02  0.00000000000E+00 0. -1.
         11    1    3    3    0    0  0.47597356150E+01 -0.23665123404E+02 -0.12566568704E+02  0.27214183767E+02  0.51100000000E-03 0. -1.
        -11    1    3    3    0    0  0.59695677225E+01 -0.62283139941E+01 -0.44910698458E+01  0.97261165232E+01  0.51100000000E-03 0.  1.
         12    1    3    3    0    0  0.18722741261E+01 -0.10603906411E+01 -0.10631416183E+02  0.10846974176E+02  0.00000000000E+00 0. -1.
</event>
<event>
 7    1  0.2751796E-010  0.4778727E+02  0.7816164E-02  0.1312668E+00
        -11   -1    0    0    0    0  0.00000000000E+00  0.00000000000E+00  0.45593999997E+02  0.45594000000E+02  0.51100000000E-03 0. -1.
         11   -1    0    0    0    0 -0.00000000000E+00 -0.00000000000E+00 -0.45593999997E+02  0.45594000000E+02  0.51100000000E-03 0.  1.
    9900012    2    1    2    0    0  0.34960648813E+01 -0.41977562721E+02 -0.10453945984E+02  0.47787271569E+02  0.20000002393E+02 0.  0.
         12    1    1    2    0    0 -0.34960648813E+01  0.41977562721E+02  0.10453945984E+02  0.43400728431E+02  0.00000000000E+00 0. -1.
         11    1    3    3    0    0 -0.77393738117E+00 -0.80435253763E+00 -0.31474340953E+01  0.33395065085E+01  0.51100000000E-03 0. -1.
        -11    1    3    3    0    0  0.76852836889E+01 -0.31431309165E+02 -0.10451784628E+01  0.32374112799E+02  0.51100000000E-03 0.  1.
        -12    1    3    3    0    0 -0.34152814265E+01 -0.97419010182E+01 -0.62613334264E+01  0.12073652262E+02  0.00000000000E+00 0.  1.
</event>
<event>
 7    1  0.2751796E-010  0.4778727E+02  0.7816164E-02  0.1312668E+00
        -11   -1    0    0    0    0  0.00000000000E+00  0.00000000000E+00  0.45593999997E+02  0.45594000000E+02  0.51100000000E-03 0.  1.
         11   -1    0    0    0    0 -0.00000000000E+00 -0.00000000000E+00 -0.45593999997E+02  0.45594000000E+02  0.51100000000E-03 0. -1.
    9900012    2    1    2    0    0  0.35732278976E+02  0.43468101680E+01  0.24247318593E+02  0.47787274449E+02  0.20000015521E+02 0.  0.
         12    1    1    2    0    0 -0.35732278976E+02 -0.43468101680E+01 -0.24247318593E+02  0.43400725551E+02  0.00000000000E+00 0. -1.
         11    1    3    3    0    0  0.68022838989E+00 -0.26292368520E+01  0.42385960094E+00  0.27486822859E+01  0.51100000000E-03 0. -1.
        -11    1    3    3    0    0  0.28573589812E+02  0.51095107168E+01  0.24859869486E+02  0.38217407626E+02  0.51100000000E-03 0.  1.
        -12    1    3    3    0    0  0.64784607737E+01  0.18665363032E+01 -0.10364104948E+01  0.68211845366E+01  0.00000000000E+00 0.  1.
</event>
<event>
 7    1  0.2751796E-010  0.4778726E+02  0.7816164E-02  0.1312668E+00
        -11   -1    0    0    0    0  0.00000000000E+00  0.00000000000E+00  0.45593999997E+02  0.45594000000E+02  0.51100000000E-03 0.  1.
         11   -1    0    0    0    0 -0.00000000000E+00 -0.00000000000E+00 -0.45593999997E+02  0.45594000000E+02  0.51100000000E-03 0. -1.
    9900012    2    1    2    0    0  0.37869811335E+02 -0.19739321515E+01  0.21109369911E+02  0.47787256726E+02  0.19999934717E+02 0.  0.
         12    1    1    2    0    0 -0.37869811335E+02  0.19739321515E+01 -0.21109369911E+02  0.43400743274E+02  0.00000000000E+00 0. -1.
         11    1    3    3    0    0  0.34786697412E+01 -0.45225338623E+01 -0.18433828417E-01  0.57056810085E+01  0.51100000000E-03 0. -1.
        -11    1    3    3    0    0  0.18084815154E+02  0.66321078438E+01  0.14051390608E+02  0.23842964830E+02  0.51100000000E-03 0.  1.
        -12    1    3    3    0    0  0.16306326440E+02 -0.40835061331E+01  0.70764131314E+01  0.18238610887E+02  0.00000000000E+00 0.  1.
</event>
<event>
 7    1  0.2751796E-010  0.4778727E+02  0.7816164E-02  0.1312668E+00
        -11   -1    0    0    0    0  0.00000000000E+00  0.00000000000E+00  0.45593999997E+02  0.45594000000E+02  0.51100000000E-03 0. -1.
         11   -1    0    0    0    0 -0.00000000000E+00 -0.00000000000E+00 -0.45593999997E+02  0.45594000000E+02  0.51100000000E-03 0.  1.
    9900012    2    1    2    0    0  0.24000436970E+02 -0.71977330233E+01 -0.35437195632E+02  0.47787272245E+02  0.20000005472E+02 0.  0.
         12    1    1    2    0    0 -0.24000436970E+02  0.71977330233E+01  0.35437195632E+02  0.43400727755E+02  0.00000000000E+00 0. -1.
         11    1    3    3    0    0  0.93411346297E+01 -0.43160261011E+01 -0.26187585879E+02  0.28136711462E+02  0.51100000000E-03 0. -1.
        -11    1    3    3    0    0  0.12479266754E+02 -0.56616844804E+01 -0.81803226293E+01  0.15959462662E+02  0.51100000000E-03 0.  1.
         12    1    3    3    0    0  0.21800355860E+01  0.27799775582E+01 -0.10692871240E+01  0.36910981204E+01  0.00000000000E+00 0. -1.
</event>
<event>
 7    1  0.2751796E-010  0.4778726E+02  0.7816164E-02  0.1312668E+00
        -11   -1    0    0    0    0  0.00000000000E+00  0.00000000000E+00  0.45593999997E+02  0.45594000000E+02  0.51100000000E-03 0.  1.
         11   -1    0    0    0    0 -0.00000000000E+00 -0.00000000000E+00 -0.45593999997E+02  0.45594000000E+02  0.51100000000E-03 0. -1.
    9900012    2    1    2    0    0  0.81939560079E+01  0.30707402468E+02  0.29555692909E+02  0.47787257325E+02  0.19999937447E+02 0.  0.
         12    1    1    2    0    0 -0.81939560079E+01 -0.30707402468E+02 -0.29555692909E+02  0.43400742675E+02  0.00000000000E+00 0. -1.
         11    1    3    3    0    0 -0.85544501116E-01  0.44389383597E+01  0.95401514279E+00  0.45411052373E+01  0.51100000000E-03 0. -1.
        -11    1    3    3    0    0  0.14529974551E+01  0.23773881414E+02  0.15982481085E+02  0.28683590099E+02  0.51100000000E-03 0.  1.
        -12    1    3    3    0    0  0.68265030539E+01  0.24945826940E+01  0.12619196682E+02  0.14562561988E+02  0.00000000000E+00 0.  1.
</event>
<event>
 7    1  0.2751796E-010  0.4778727E+02  0.7816164E-02  0.1312668E+00
        -11   -1    0    0    0    0  0.00000000000E+00  0.00000000000E+00  0.45593999997E+02  0.45594000000E+02  0.51100000000E-03 0. -1.
         11   -1    0    0    0    0 -0.00000000000E+00 -0.00000000000E+00 -0.45593999997E+02  0.45594000000E+02  0.51100000000E-03 0.  1.
    9900012    2    1    2    0    0  0.18078792447E+02  0.34019525034E+02 -0.19986304948E+02  0.47787271834E+02  0.20000003601E+02 0.  0.
         12    1    1    2    0    0 -0.18078792447E+02 -0.34019525034E+02  0.19986304948E+02  0.43400728166E+02  0.00000000000E+00 0. -1.
         11    1    3    3    0    0 -0.21343609817E+01  0.27606683834E+01 -0.24540705094E+00  0.34981440229E+01  0.51100000000E-03 0. -1.
        -11    1    3    3    0    0  0.19777041643E+02  0.19493189171E+02 -0.12379021104E+02  0.30403222921E+02  0.51100000000E-03 0.  1.
         12    1    3    3    0    0  0.43611178591E+00  0.11765667479E+02 -0.73618767926E+01  0.13885904891E+02  0.00000000000E+00 0. -1.
</event>
<event>
 7    1  0.2751796E-010  0.4778727E+02  0.7816164E-02  0.1312668E+00
        -11   -1    0    0    0    0  0.00000000000E+00  0.00000000000E+00  0.45593999997E+02  0.45594000000E+02  0.51100000000E-03 0. -1.
         11   -1    0    0    0    0 -0.00000000000E+00 -0.00000000000E+00 -0.45593999997E+02  0.45594000000E+02  0.51100000000E-03 0.  1.
    9900012    2    1    2    0    0 -0.96602552399E+01  0.37097203511E+02 -0.20349448976E+02  0.47787272895E+02  0.20000008437E+02 0.  0.
         12    1    1    2    0    0  0.96602552399E+01 -0.37097203511E+02  0.20349448976E+02  0.43400727105E+02  0.00000000000E+00 0. -1.
         11    1    3    3    0    0  0.52143553632E+00  0.12521031155E+02  0.98820680727E+00  0.12570786339E+02  0.51100000000E-03 0. -1.
        -11    1    3    3    0    0 -0.90744321074E+01  0.24761329046E+02 -0.18639091507E+02  0.32293721784E+02  0.51100000000E-03 0.  1.
        -12    1    3    3    0    0 -0.11072586688E+01 -0.18515669074E+00 -0.26985642764E+01  0.29227647722E+01  0.00000000000E+00 0.  1.
</event>
<event>
 7    1  0.2751796E-010  0.4778727E+02  0.7816164E-02  0.1312668E+00
        -11   -1    0    0    0    0  0.00000000000E+00  0.00000000000E+00  0.45593999997E+02  0.45594000000E+02  0.51100000000E-03 0. -1.
         11   -1    0    0    0    0 -0.00000000000E+00 -0.00000000000E+00 -0.45593999997E+02  0.45594000000E+02  0.51100000000E-03 0.  1.
    9900012    2    1    2    0    0 -0.65596778410E+01  0.28474282832E+02 -0.32090638384E+02  0.47787271572E+02  0.20000002405E+02 0.  0.
         12    1    1    2    0    0  0.65596778410E+01 -0.28474282832E+02  0.32090638384E+02  0.43400728428E+02  0.00000000000E+00 0. -1.
         11    1    3    3    0    0 -0.46229238703E+01 -0.42993887074E+00 -0.70928239601E+01  0.84772887490E+01  0.51100000000E-03 0. -1.
        -11    1    3    3    0    0 -0.28847851181E+01  0.14048544986E+02 -0.70151107979E+01  0.15965443344E+02  0.51100000000E-03 0.  1.
        -12    1    3    3    0    0  0.94803114743E+00  0.14855676716E+02 -0.17982703626E+02  0.23344539479E+02  0.00000000000E+00 0.  1.
</event>
<event>
 7    1  0.2751796E-010  0.4778727E+02  0.7816164E-02  0.1312668E+00
        -11   -1    0    0    0    0  0.00000000000E+00  0.00000000000E+00  0.45593999997E+02  0.45594000000E+02  0.51100000000E-03 0. -1.
         11   -1    0    0    0    0 -0.00000000000E+00 -0.00000000000E+00 -0.45593999997E+02  0.45594000000E+02  0.51100000000E-03 0.  1.
    9900012    2    1    2    0    0 -0.14303551353E+02 -0.26031146832E+02 -0.31645082127E+02  0.47787269482E+02  0.19999992875E+02 0.  0.
         12    1    1    2    0    0  0.14303551353E+02  0.26031146832E+02  0.31645082127E+02  0.43400730518E+02  0.00000000000E+00 0. -1.
         11    1    3    3    0    0 -0.97604664649E+00  0.12249513334E+01  0.50725282820E-01  0.15670820466E+01  0.51100000000E-03 0. -1.
        -11    1    3    3    0    0 -0.15100385096E+02 -0.22950290315E+02 -0.21080207266E+02  0.34628205183E+02  0.51100000000E-03 0.  1.
        -12    1    3    3    0    0  0.17728803890E+01 -0.43058078511E+01 -0.10615600143E+02  0.11591982252E+02  0.00000000000E+00 0.  1.
</event>
<event>
 7    1  0.2751796E-010  0.4778727E+02  0.7816164E-02  0.1312668E+00
        -11   -1    0    0    0    0  0.00000000000E+00  0.00000000000E+00  0.45593999997E+02  0.45594000000E+02  0.51100000000E-03 0.  1.
         11   -1    0    0    0    0 -0.00000000000E+00 -0.00000000000E+00 -0.45593999997E+02  0.45594000000E+02  0.51100000000E-03 0. -1.
    9900012    2    1    2    0    0 -0.15826032868E+02 -0.35814549496E+02  0.18721053927E+02  0.47787272678E+02  0.20000007449E+02 0.  0.
         12    1    1    2    0    0  0.15826032868E+02  0.35814549496E+02 -0.18721053927E+02  0.43400727322E+02  0.00000000000E+00 0. -1.
         11    1    3    3    0    0 -0.82794219766E+01 -0.14833396160E+02  0.10192671707E+02  0.19810831045E+02  0.51100000000E-03 0.  1.
        -11    1    3    3    0    0 -0.11642348780E+01 -0.12849738620E+02 -0.21884736341E+01  0.13086658953E+02  0.51100000000E-03 0. -1.
        -12    1    3    3    0    0 -0.63823760137E+01 -0.81314147155E+01  0.10716855854E+02  0.14889782680E+02  0.00000000000E+00 0.  1.
</event>
<event>
 7    1  0.2751796E-010  0.4778726E+02  0.7816164E-02  0.1312668E+00
        -11   -1    0    0    0    0  0.00000000000E+00  0.00000000000E+00  0.45593999997E+02  0.45594000000E+02  0.51100000000E-03 0.  1.
         11   -1    0    0    0    0 -0.00000000000E+00 -0.00000000000E+00 -0.45593999997E+02  0.45594000000E+02  0.51100000000E-03 0. -1.
    9900012    2    1    2    0    0  0.38613090894E+02 -0.11878039081E+02  0.15860822515E+02  0.47787259319E+02  0.19999946539E+02 0.  0.
         12    1    1    2    0    0 -0.38613090894E+02  0.11878039081E+02 -0.15860822515E+02  0.43400740681E+02  0.00000000000E+00 0. -1.
         11    1    3    3    0    0  0.76688232371E+01  0.83086901910E+00  0.58324113642E+00  0.77357199828E+01  0.51100000000E-03 0.  1.
        -11    1    3    3    0    0  0.25530995109E+02 -0.28168192740E+01  0.11664987593E+02  0.28210602934E+02  0.51100000000E-03 0. -1.
        -12    1    3    3    0    0  0.54132725477E+01 -0.98920888260E+01  0.36125937857E+01  0.11840936402E+02  0.00000000000E+00 0.  1.
</event>
<event>
 7    1  0.2751796E-010  0.4778727E+02  0.7816164E-02  0.1312668E+00
        -11   -1    0    0    0    0  0.00000000000E+00  0.00000000000E+00  0.45593999997E+02  0.45594000000E+02  0.51100000000E-03 0. -1.
         11   -1    0    0    0    0 -0.00000000000E+00 -0.00000000000E+00 -0.45593999997E+02  0.45594000000E+02  0.51100000000E-03 0.  1.
    9900012    2    1    2    0    0  0.17824592084E+02  0.22165768919E+02 -0.32780878327E+02  0.47787269837E+02  0.19999994496E+02 0.  0.
         12    1    1    2    0    0 -0.17824592084E+02 -0.22165768919E+02  0.32780878327E+02  0.43400730163E+02  0.00000000000E+00 0. -1.
         11    1    3    3    0    0 -0.58383324819E+00  0.93854633316E+01 -0.16896056251E+02  0.19336610363E+02  0.51100000000E-03 0. -1.
        -11    1    3    3    0    0  0.11671479787E+02  0.37086969221E+01 -0.72721662933E+01  0.14242972869E+02  0.51100000000E-03 0.  1.
         12    1    3    3    0    0  0.67369455452E+01  0.90716086658E+01 -0.86126557826E+01  0.14207686606E+02  0.00000000000E+00 0. -1.
</event>
<event>
 7    1  0.2751796E-010  0.4778727E+02  0.7816164E-02  0.1312668E+00
        -11   -1    0    0    0    0  0.00000000000E+00  0.00000000000E+00  0.45593999997E+02  0.45594000000E+02  0.51100000000E-03 0.  1.
         11   -1    0    0    0    0 -0.00000000000E+00 -0.00000000000E+00 -0.45593999997E+02  0.45594000000E+02  0.51100000000E-03 0. -1.
    9900012    2    1    2    0    0  0.92642643720E+01  0.42394687085E+02  0.69803575066E+00  0.47787270268E+02  0.19999996460E+02 0.  0.
         12    1    1    2    0    0 -0.92642643720E+01 -0.42394687085E+02 -0.69803575066E+00  0.43400729732E+02  0.00000000000E+00 0. -1.
         11    1    3    3    0    0  0.31042418366E+01  0.12368407379E+01 -0.33173561233E+01  0.47086032219E+01  0.51100000000E-03 0. -1.
        -11    1    3    3    0    0  0.61825790978E+00  0.30983006280E+02  0.58246331241E+00  0.30994647679E+02  0.51100000000E-03 0.  1.
         12    1    3    3    0    0  0.55417646256E+01  0.10174840067E+02  0.34329285615E+01  0.12084019367E+02  0.00000000000E+00 0. -1.
</event>
<event>
 7    1  0.2751796E-010  0.4778727E+02  0.7816164E-02  0.1312668E+00
        -11   -1    0    0    0    0  0.00000000000E+00  0.00000000000E+00  0.45593999997E+02  0.45594000000E+02  0.51100000000E-03 0.  1.
         11   -1    0    0    0    0 -0.00000000000E+00 -0.00000000000E+00 -0.45593999997E+02  0.45594000000E+02  0.51100000000E-03 0. -1.
    9900012    2    1    2    0    0  0.16206931647E+02 -0.17196060513E+02  0.36404039572E+02  0.47787271576E+02  0.20000002425E+02 0.  0.
         12    1    1    2    0    0 -0.16206931647E+02  0.17196060513E+02 -0.36404039572E+02  0.43400728424E+02  0.00000000000E+00 0. -1.
         11    1    3    3    0    0  0.40423306420E+01 -0.38309202315E+01  0.24361189501E+02  0.24989676688E+02  0.51100000000E-03 0. -1.
        -11    1    3    3    0    0  0.10250808608E+02 -0.12271520083E+02  0.73197143248E+01  0.17585434323E+02  0.51100000000E-03 0.  1.
         12    1    3    3    0    0  0.19137923974E+01 -0.10936201981E+01  0.47231357460E+01  0.52121605648E+01  0.00000000000E+00 0. -1.
</event>
<event>
 7    1  0.2751796E-010  0.4778728E+02  0.7816164E-02  0.1312668E+00
        -11   -1    0    0    0    0  0.00000000000E+00  0.00000000000E+00  0.45593999997E+02  0.45594000000E+02  0.51100000000E-03 0. -1.
         11   -1    0    0    0    0 -0.00000000000E+00 -0.00000000000E+00 -0.45593999997E+02  0.45594000000E+02  0.51100000000E-03 0.  1.
    9900012    2    1    2    0    0  0.29413473091E+02 -0.24045668286E+02  0.20982758420E+02  0.47787277500E+02  0.20000029434E+02 0.  0.
         12    1    1    2    0    0 -0.29413473091E+02  0.24045668286E+02 -0.20982758420E+02  0.43400722500E+02  0.00000000000E+00 0. -1.
         11    1    3    3    0    0 -0.64368920560E+00 -0.14158585345E+00 -0.61790149520E+00  0.90342950261E+00  0.51100000000E-03 0. -1.
        -11    1    3    3    0    0 -0.58350653430E+00 -0.16152999618E+01  0.54165632388E+01  0.56823262334E+01  0.51100000000E-03 0.  1.
        -12    1    3    3    0    0  0.30640668831E+02 -0.22288782471E+02  0.16184096677E+02  0.41201521764E+02  0.00000000000E+00 0.  1.
</event>
<event>
 7    1  0.2751796E-010  0.4778727E+02  0.7816164E-02  0.1312668E+00
        -11   -1    0    0    0    0  0.00000000000E+00  0.00000000000E+00  0.45593999997E+02  0.45594000000E+02  0.51100000000E-03 0.  1.
         11   -1    0    0    0    0 -0.00000000000E+00 -0.00000000000E+00 -0.45593999997E+02  0.45594000000E+02  0.51100000000E-03 0. -1.
    9900012    2    1    2    0    0  0.37882592496E+00 -0.29622540882E+02  0.31717271528E+02  0.47787265552E+02  0.19999974958E+02 0.  0.
         12    1    1    2    0    0 -0.37882592496E+00  0.29622540882E+02 -0.31717271528E+02  0.43400734448E+02  0.00000000000E+00 0. -1.
         11    1    3    3    0    0 -0.38825565635E+01 -0.69096578830E+01  0.10390966489E+02  0.13068657252E+02  0.51100000000E-03 0. -1.
        -11    1    3    3    0    0  0.42313719728E+01 -0.24861296618E+02  0.19201435845E+02  0.31696746159E+02  0.51100000000E-03 0.  1.
        -12    1    3    3    0    0  0.30010515681E-01  0.21484136186E+01  0.21248691947E+01  0.30218621415E+01  0.00000000000E+00 0.  1.
</event>
<event>
 7    1  0.2751796E-010  0.4778727E+02  0.7816164E-02  0.1312668E+00
        -11   -1    0    0    0    0  0.00000000000E+00  0.00000000000E+00  0.45593999997E+02  0.45594000000E+02  0.51100000000E-03 0.  1.
         11   -1    0    0    0    0 -0.00000000000E+00 -0.00000000000E+00 -0.45593999997E+02  0.45594000000E+02  0.51100000000E-03 0. -1.
    9900012    2    1    2    0    0 -0.21906458672E+02  0.60594473435E+01  0.36973143026E+02  0.47787272600E+02  0.20000007093E+02 0.  0.
         12    1    1    2    0    0  0.21906458672E+02 -0.60594473435E+01 -0.36973143026E+02  0.43400727400E+02  0.00000000000E+00 0. -1.
         11    1    3    3    0    0  0.19124665266E+01  0.49977918473E+00  0.86994794464E+01  0.89212247113E+01  0.51100000000E-03 0. -1.
        -11    1    3    3    0    0 -0.17467839476E+02  0.85091076413E+01  0.22944744071E+02  0.30066453225E+02  0.51100000000E-03 0.  1.
        -12    1    3    3    0    0 -0.63510857227E+01 -0.29494394825E+01  0.53289195085E+01  0.87995946637E+01  0.00000000000E+00 0.  1.
</event>
<event>
 7    1  0.2751796E-010  0.4778731E+02  0.7816164E-02  0.1312668E+00
        -11   -1    0    0    0    0  0.00000000000E+00  0.00000000000E+00  0.45593999997E+02  0.45594000000E+02  0.51100000000E-03 0.  1.
         11   -1    0    0    0    0 -0.00000000000E+00 -0.00000000000E+00 -0.45593999997E+02  0.45594000000E+02  0.51100000000E-03 0. -1.
    9900012    2    1    2    0    0  0.10891978129E+02  0.93367427763E+01  0.40961082976E+02  0.47787305630E+02  0.20000157688E+02 0.  0.
         12    1    1    2    0    0 -0.10891978129E+02 -0.93367427763E+01 -0.40961082976E+02  0.43400694370E+02  0.00000000000E+00 0. -1.
         11    1    3    3    0    0  0.25901827280E+01  0.96972098266E+01  0.78161482994E+01  0.12721521115E+02  0.51100000000E-03 0. -1.
        -11    1    3    3    0    0  0.84483023085E+01 -0.28662728417E+01  0.26589191439E+02  0.28045934350E+02  0.51100000000E-03 0.  1.
        -12    1    3    3    0    0 -0.14650690779E+00  0.25058057913E+01  0.65557432374E+01  0.70198501646E+01  0.00000000000E+00 0.  1.
</event>
<event>
 7    1  0.2751796E-010  0.4778727E+02  0.7816164E-02  0.1312668E+00
        -11   -1    0    0    0    0  0.00000000000E+00  0.00000000000E+00  0.45593999997E+02  0.45594000000E+02  0.51100000000E-03 0.  1.
         11   -1    0    0    0    0 -0.00000000000E+00 -0.00000000000E+00 -0.45593999997E+02  0.45594000000E+02  0.51100000000E-03 0. -1.
    9900012    2    1    2    0    0  0.17393298278E+02 -0.64302051606E+01  0.39239634005E+02  0.47787271432E+02  0.20000001768E+02 0.  0.
         12    1    1    2    0    0 -0.17393298278E+02  0.64302051606E+01 -0.39239634005E+02  0.43400728568E+02  0.00000000000E+00 0. -1.
         11    1    3    3    0    0  0.97853595302E+01  0.75408017589E+00  0.33074346050E+02  0.34499771955E+02  0.51100000000E-03 0.  1.
        -11    1    3    3    0    0  0.79692208234E+01 -0.51926520874E+01  0.39857341750E+01  0.10313010880E+02  0.51100000000E-03 0. -1.
        -12    1    3    3    0    0 -0.36128207596E+00 -0.19916332491E+01  0.21795537793E+01  0.29744885971E+01  0.00000000000E+00 0.  1.
</event>
<event>
 7    1  0.2751796E-010  0.4778726E+02  0.7816164E-02  0.1312668E+00
        -11   -1    0    0    0    0  0.00000000000E+00  0.00000000000E+00  0.45593999997E+02  0.45594000000E+02  0.51100000000E-03 0.  1.
         11   -1    0    0    0    0 -0.00000000000E+00 -0.00000000000E+00 -0.45593999997E+02  0.45594000000E+02  0.51100000000E-03 0. -1.
    9900012    2    1    2    0    0  0.32827599048E+02 -0.14741086253E+02  0.24262597985E+02  0.47787256410E+02  0.19999933274E+02 0.  0.
         12    1    1    2    0    0 -0.32827599048E+02  0.14741086253E+02 -0.24262597985E+02  0.43400743590E+02  0.00000000000E+00 0. -1.
         11    1    3    3    0    0  0.10970348829E+01  0.56077993374E+00  0.63599153763E+00  0.13865226884E+01  0.51100000000E-03 0. -1.
        -11    1    3    3    0    0  0.49157584284E+01  0.34872478779E+01  0.82772120758E+01  0.10239034070E+02  0.51100000000E-03 0.  1.
        -12    1    3    3    0    0  0.26814805737E+02 -0.18789114065E+02  0.15349394372E+02  0.36161699651E+02  0.00000000000E+00 0.  1.
</event>
<event>
 7    1  0.2751796E-010  0.4778728E+02  0.7816164E-02  0.1312668E+00
        -11   -1    0    0    0    0  0.00000000000E+00  0.00000000000E+00  0.45593999997E+02  0.45594000000E+02  0.51100000000E-03 0.  1.
         11   -1    0    0    0    0 -0.00000000000E+00 -0.00000000000E+00 -0.45593999997E+02  0.45594000000E+02  0.51100000000E-03 0. -1.
    9900012    2    1    2    0    0 -0.34718128628E+02 -0.25398325335E+02 -0.57619007354E+01  0.47787275521E+02  0.20000020410E+02 0.  0.
         12    1    1    2    0    0  0.34718128628E+02  0.25398325335E+02  0.57619007354E+01  0.43400724479E+02  0.00000000000E+00 0. -1.
         11    1    3    3    0    0 -0.10894451847E+02 -0.11098797102E+02 -0.45488932835E+00  0.15558897863E+02  0.51100000000E-03 0. -1.
        -11    1    3    3    0    0 -0.19043093399E+02 -0.12950082836E+02 -0.10262032381E+02  0.25212166914E+02  0.51100000000E-03 0.  1.
         12    1    3    3    0    0 -0.47805833820E+01 -0.13494453970E+01  0.49550209736E+01  0.70162107437E+01  0.00000000000E+00 0. -1.
</event>
<event>
 7    1  0.2751796E-010  0.4778727E+02  0.7816164E-02  0.1312668E+00
        -11   -1    0    0    0    0  0.00000000000E+00  0.00000000000E+00  0.45593999997E+02  0.45594000000E+02  0.51100000000E-03 0.  1.
         11   -1    0    0    0    0 -0.00000000000E+00 -0.00000000000E+00 -0.45593999997E+02  0.45594000000E+02  0.51100000000E-03 0. -1.
    9900012    2    1    2    0    0  0.10595199712E+02  0.99336749534E+01  0.40898499118E+02  0.47787269763E+02  0.19999994158E+02 0.  0.
         12    1    1    2    0    0 -0.10595199712E+02 -0.99336749534E+01 -0.40898499118E+02  0.43400730237E+02  0.00000000000E+00 0. -1.
         11    1    3    3    0    0 -0.15835003220E+01  0.46506258411E+01  0.24872134171E+02  0.25352689256E+02  0.51100000000E-03 0. -1.
        -11    1    3    3    0    0  0.85301928013E+01  0.50642192437E+01  0.15944443055E+02  0.18778598733E+02  0.51100000000E-03 0.  1.
         12    1    3    3    0    0  0.36485072328E+01  0.21882986868E+00  0.81921891096E-01  0.36559817745E+01  0.00000000000E+00 0. -1.
</event>
<event>
 7    1  0.2751796E-010  0.4778727E+02  0.7816164E-02  0.1312668E+00
        -11   -1    0    0    0    0  0.00000000000E+00  0.00000000000E+00  0.45593999997E+02  0.45594000000E+02  0.51100000000E-03 0.  1.
         11   -1    0    0    0    0 -0.00000000000E+00 -0.00000000000E+00 -0.45593999997E+02  0.45594000000E+02  0.51100000000E-03 0. -1.
    9900012    2    1    2    0    0 -0.87102764603E+01  0.51724855003E+00  0.42514546223E+02  0.47787273017E+02  0.20000008993E+02 0.  0.
         12    1    1    2    0    0  0.87102764603E+01 -0.51724855003E+00 -0.42514546223E+02  0.43400726983E+02  0.00000000000E+00 0. -1.
         11    1    3    3    0    0  0.13345019436E+00  0.56815818026E+01  0.11354746929E+02  0.12697576888E+02  0.51100000000E-03 0. -1.
        -11    1    3    3    0    0 -0.25275874410E+01  0.41632249572E+01  0.94836299671E+01  0.10661162129E+02  0.51100000000E-03 0.  1.
         12    1    3    3    0    0 -0.63161392137E+01 -0.93275582098E+01  0.21676169327E+02  0.24428534001E+02  0.00000000000E+00 0. -1.
</event>
<event>
 7    1  0.2751796E-010  0.4778727E+02  0.7816164E-02  0.1312668E+00
        -11   -1    0    0    0    0  0.00000000000E+00  0.00000000000E+00  0.45593999997E+02  0.45594000000E+02  0.51100000000E-03 0.  1.
         11   -1    0    0    0    0 -0.00000000000E+00 -0.00000000000E+00 -0.45593999997E+02  0.45594000000E+02  0.51100000000E-03 0. -1.
    9900012    2    1    2    0    0 -0.21238926624E+02 -0.36064690291E+02  0.11483441471E+02  0.47787270537E+02  0.19999997685E+02 0.  0.
         12    1    1    2    0    0  0.21238926624E+02  0.36064690291E+02 -0.11483441471E+02  0.43400729463E+02  0.00000000000E+00 0. -1.
         11    1    3    3    0    0 -0.11365504015E+02 -0.80305497397E+01  0.21556756485E+01  0.14082306217E+02  0.51100000000E-03 0. -1.
        -11    1    3    3    0    0 -0.12088971876E+02 -0.16414583624E+02  0.42077937788E+01  0.20815554888E+02  0.51100000000E-03 0.  1.
         12    1    3    3    0    0  0.22155492672E+01 -0.11619556928E+02  0.51199720438E+01  0.12889409431E+02  0.00000000000E+00 0. -1.
</event>
<event>
 7    1  0.2751796E-010  0.4778728E+02  0.7816164E-02  0.1312668E+00
        -11   -1    0    0    0    0  0.00000000000E+00  0.00000000000E+00  0.45593999997E+02  0.45594000000E+02  0.51100000000E-03 0.  1.
         11   -1    0    0    0    0 -0.00000000000E+00 -0.00000000000E+00 -0.45593999997E+02  0.45594000000E+02  0.51100000000E-03 0. -1.
    9900012    2    1    2    0    0  0.25157709064E+01  0.38533022764E+02  0.19811610975E+02  0.47787275628E+02  0.20000020898E+02 0.  0.
         12    1    1    2    0    0 -0.25157709064E+01 -0.38533022764E+02 -0.19811610975E+02  0.43400724372E+02  0.00000000000E+00 0. -1.
         11    1    3    3    0    0  0.71826011549E+01  0.19171654270E+02  0.58736610700E+01  0.21298872774E+02  0.51100000000E-03 0. -1.
        -11    1    3    3    0    0 -0.73490304661E+01  0.11824107341E+02  0.11688285580E+02  0.18177837695E+02  0.51100000000E-03 0.  1.
        -12    1    3    3    0    0  0.26822002176E+01  0.75372611522E+01  0.22496643255E+01  0.83105651590E+01  0.00000000000E+00 0.  1.
</event>
<event>
 7    1  0.2751796E-010  0.4778732E+02  0.7816164E-02  0.1312668E+00
        -11   -1    0    0    0    0  0.00000000000E+00  0.00000000000E+00  0.45593999997E+02  0.45594000000E+02  0.51100000000E-03 0. -1.
         11   -1    0    0    0    0 -0.00000000000E+00 -0.00000000000E+00 -0.45593999997E+02  0.45594000000E+02  0.51100000000E-03 0.  1.
    9900012    2    1    2    0    0  0.21378402210E+02 -0.48765401433E+01 -0.37454004321E+02  0.47787318387E+02  0.20000215851E+02 0.  0.
         12    1    1    2    0    0 -0.21378402210E+02  0.48765401433E+01  0.37454004321E+02  0.43400681613E+02  0.00000000000E+00 0. -1.
         11    1    3    3    0    0 -0.11851749905E+01 -0.31159206909E+01 -0.17348999706E+01  0.37581218287E+01  0.51100000000E-03 0. -1.
        -11    1    3    3    0    0  0.22514168746E+02 -0.37846855897E+01 -0.35172080647E+02  0.41931931707E+02  0.51100000000E-03 0.  1.
        -12    1    3    3    0    0  0.49408454807E-01  0.20240661373E+01 -0.54702370278E+00  0.20972648509E+01  0.00000000000E+00 0.  1.
</event>
<event>
 7    1  0.2751796E-010  0.4778726E+02  0.7816164E-02  0.1312668E+00
        -11   -1    0    0    0    0  0.00000000000E+00  0.00000000000E+00  0.45593999997E+02  0.45594000000E+02  0.51100000000E-03 0.  1.
         11   -1    0    0    0    0 -0.00000000000E+00 -0.00000000000E+00 -0.45593999997E+02  0.45594000000E+02  0.51100000000E-03 0. -1.
    9900012    2    1    2    0    0 -0.10649216292E+02  0.42071017378E+02 -0.49798234276E+00  0.47787259254E+02  0.19999946244E+02 0.  0.
         12    1    1    2    0    0  0.10649216292E+02 -0.42071017378E+02  0.49798234276E+00  0.43400740746E+02  0.00000000000E+00 0. -1.
         11    1    3    3    0    0  0.55182268661E+01  0.63054876406E+01  0.85618645431E-01  0.83795783274E+01  0.51100000000E-03 0.  1.
        -11    1    3    3    0    0 -0.15332133148E+02  0.32153679732E+02  0.18060787199E+00  0.35622549693E+02  0.51100000000E-03 0. -1.
        -12    1    3    3    0    0 -0.83531001051E+00  0.36118500052E+01 -0.76420886018E+00  0.37851312336E+01  0.00000000000E+00 0.  1.
</event>
<event>
 7    1  0.2751796E-010  0.4778727E+02  0.7816164E-02  0.1312668E+00
        -11   -1    0    0    0    0  0.00000000000E+00  0.00000000000E+00  0.45593999997E+02  0.45594000000E+02  0.51100000000E-03 0.  1.
         11   -1    0    0    0    0 -0.00000000000E+00 -0.00000000000E+00 -0.45593999997E+02  0.45594000000E+02  0.51100000000E-03 0. -1.
    9900012    2    1    2    0    0 -0.10059892725E+02  0.24337470592E+02  0.34497962944E+02  0.47787270009E+02  0.19999995279E+02 0.  0.
         12    1    1    2    0    0  0.10059892725E+02 -0.24337470592E+02 -0.34497962944E+02  0.43400729991E+02  0.00000000000E+00 0. -1.
         11    1    3    3    0    0 -0.17236312358E+01  0.20544469669E+01 -0.75652765097E+00  0.27863939644E+01  0.51100000000E-03 0. -1.
        -11    1    3    3    0    0 -0.65691011312E+01  0.17304093116E+02  0.35139823604E+02  0.39716393736E+02  0.51100000000E-03 0.  1.
        -12    1    3    3    0    0 -0.17671603579E+01  0.49789305097E+01  0.11466699105E+00  0.52844823086E+01  0.00000000000E+00 0.  1.
</event>
<event>
 7    1  0.2751796E-010  0.4778728E+02  0.7816164E-02  0.1312668E+00
        -11   -1    0    0    0    0  0.00000000000E+00  0.00000000000E+00  0.45593999997E+02  0.45594000000E+02  0.51100000000E-03 0.  1.
         11   -1    0    0    0    0 -0.00000000000E+00 -0.00000000000E+00 -0.45593999997E+02  0.45594000000E+02  0.51100000000E-03 0. -1.
    9900012    2    1    2    0    0 -0.25955440151E+02  0.22002907415E+02  0.26940860661E+02  0.47787276720E+02  0.20000025876E+02 0.  0.
         12    1    1    2    0    0  0.25955440151E+02 -0.22002907415E+02 -0.26940860661E+02  0.43400723280E+02  0.00000000000E+00 0. -1.
         11    1    3    3    0    0 -0.18966450329E+02  0.11137764930E+02  0.97696427283E+01  0.24067030665E+02  0.51100000000E-03 0. -1.
        -11    1    3    3    0    0 -0.94941899957E+01  0.73506806874E+01  0.13355178328E+02  0.17959202061E+02  0.51100000000E-03 0.  1.
         12    1    3    3    0    0  0.25052001741E+01  0.35144617975E+01  0.38160396045E+01  0.57610439941E+01  0.00000000000E+00 0. -1.
</event>
<event>
 7    1  0.2751796E-010  0.4778727E+02  0.7816164E-02  0.1312668E+00
        -11   -1    0    0    0    0  0.00000000000E+00  0.00000000000E+00  0.45593999997E+02  0.45594000000E+02  0.51100000000E-03 0.  1.
         11   -1    0    0    0    0 -0.00000000000E+00 -0.00000000000E+00 -0.45593999997E+02  0.45594000000E+02  0.51100000000E-03 0. -1.
    9900012    2    1    2    0    0  0.11883064765E+02 -0.40276218325E+02  0.10965515028E+02  0.47787268317E+02  0.19999987566E+02 0.  0.
         12    1    1    2    0    0 -0.11883064765E+02  0.40276218325E+02 -0.10965515028E+02  0.43400731683E+02  0.00000000000E+00 0. -1.
         11    1    3    3    0    0  0.14489179873E+01 -0.23502569884E+02 -0.65213500293E-01  0.23547280258E+02  0.51100000000E-03 0. -1.
        -11    1    3    3    0    0  0.11656582650E+02 -0.15675108546E+02  0.11311173971E+02  0.22572718133E+02  0.51100000000E-03 0.  1.
        -12    1    3    3    0    0 -0.12224358723E+01 -0.10985398945E+01 -0.28044544335E+00  0.16672699267E+01  0.00000000000E+00 0.  1.
</event>
<event>
 7    1  0.2751796E-010  0.4778727E+02  0.7816164E-02  0.1312668E+00
        -11   -1    0    0    0    0  0.00000000000E+00  0.00000000000E+00  0.45593999997E+02  0.45594000000E+02  0.51100000000E-03 0.  1.
         11   -1    0    0    0    0 -0.00000000000E+00 -0.00000000000E+00 -0.45593999997E+02  0.45594000000E+02  0.51100000000E-03 0. -1.
    9900012    2    1    2    0    0  0.69150948963E+01  0.42837569851E+02  0.86447469378E+00  0.47787271381E+02  0.20000001533E+02 0.  0.
         12    1    1    2    0    0 -0.69150948963E+01 -0.42837569851E+02 -0.86447469378E+00  0.43400728619E+02  0.00000000000E+00 0. -1.
         11    1    3    3    0    0 -0.10312304842E+00 -0.94138299690E+00 -0.19040016223E+01  0.21265132845E+01  0.51100000000E-03 0. -1.
        -11    1    3    3    0    0  0.85951227633E+01  0.21862403461E+02 -0.17024608600E+00  0.23491909340E+02  0.51100000000E-03 0.  1.
         12    1    3    3    0    0 -0.15769048185E+01  0.21916549387E+02  0.29387224021E+01  0.22168848757E+02  0.00000000000E+00 0. -1.
</event>
<event>
 7    1  0.2751796E-010  0.4778727E+02  0.7816164E-02  0.1312668E+00
        -11   -1    0    0    0    0  0.00000000000E+00  0.00000000000E+00  0.45593999997E+02  0.45594000000E+02  0.51100000000E-03 0. -1.
         11   -1    0    0    0    0 -0.00000000000E+00 -0.00000000000E+00 -0.45593999997E+02  0.45594000000E+02  0.51100000000E-03 0.  1.
    9900012    2    1    2    0    0 -0.63922479717E+01  0.37197529923E+02 -0.21426766146E+02  0.47787269891E+02  0.19999994743E+02 0.  0.
         12    1    1    2    0    0  0.63922479717E+01 -0.37197529923E+02  0.21426766146E+02  0.43400730109E+02  0.00000000000E+00 0. -1.
         11    1    3    3    0    0 -0.36139746824E+01  0.15439817050E+02 -0.19358477952E+01  0.15974863708E+02  0.51100000000E-03 0. -1.
        -11    1    3    3    0    0 -0.47125219525E+01  0.79451477824E+01 -0.14106136669E+02  0.16861682254E+02  0.51100000000E-03 0.  1.
         12    1    3    3    0    0  0.19342486632E+01  0.13812565091E+02 -0.53847816819E+01  0.14950723930E+02  0.00000000000E+00 0. -1.
</event>
<event>
 7    1  0.2751796E-010  0.4778727E+02  0.7816164E-02  0.1312668E+00
        -11   -1    0    0    0    0  0.00000000000E+00  0.00000000000E+00  0.45593999997E+02  0.45594000000E+02  0.51100000000E-03 0. -1.
         11   -1    0    0    0    0 -0.00000000000E+00 -0.00000000000E+00 -0.45593999997E+02  0.45594000000E+02  0.51100000000E-03 0.  1.
    9900012    2    1    2    0    0 -0.31128483634E+02 -0.62387031194E+01 -0.29592555501E+02  0.47787271307E+02  0.20000001196E+02 0.  0.
         12    1    1    2    0    0  0.31128483634E+02  0.62387031194E+01  0.29592555501E+02  0.43400728693E+02  0.00000000000E+00 0. -1.
         11    1    3    3    0    0 -0.18610729309E+01 -0.39371145106E+01 -0.99344690464E+00  0.44666990202E+01  0.51100000000E-03 0. -1.
        -11    1    3    3    0    0 -0.16736697726E+02  0.10936200170E+01 -0.24528854956E+02  0.29714942053E+02  0.51100000000E-03 0.  1.
        -12    1    3    3    0    0 -0.12530712978E+02 -0.33952086258E+01 -0.40702536405E+01  0.13605630233E+02  0.00000000000E+00 0.  1.
</event>
<event>
 7    1  0.2751796E-010  0.4778727E+02  0.7816164E-02  0.1312668E+00
        -11   -1    0    0    0    0  0.00000000000E+00  0.00000000000E+00  0.45593999997E+02  0.45594000000E+02  0.51100000000E-03 0.  1.
         11   -1    0    0    0    0 -0.00000000000E+00 -0.00000000000E+00 -0.45593999997E+02  0.45594000000E+02  0.51100000000E-03 0. -1.
    9900012    2    1    2    0    0  0.10314019439E+02  0.10459781484E+02  0.40839165622E+02  0.47787268734E+02  0.19999989467E+02 0.  0.
         12    1    1    2    0    0 -0.10314019439E+02 -0.10459781484E+02 -0.40839165622E+02  0.43400731266E+02  0.00000000000E+00 0. -1.
         11    1    3    3    0    0  0.30996548422E+01  0.57315189873E+01  0.59394135203E+01  0.88167342746E+01  0.51100000000E-03 0. -1.
        -11    1    3    3    0    0 -0.17137823670E+01  0.55756338103E+01  0.24741878573E+02  0.25420175019E+02  0.51100000000E-03 0.  1.
        -12    1    3    3    0    0  0.89281469642E+01 -0.84737131386E+00  0.10157873529E+02  0.13550359441E+02  0.00000000000E+00 0.  1.
</event>
<event>
 7    1  0.2751796E-010  0.4778727E+02  0.7816164E-02  0.1312668E+00
        -11   -1    0    0    0    0  0.00000000000E+00  0.00000000000E+00  0.45593999997E+02  0.45594000000E+02  0.51100000000E-03 0. -1.
         11   -1    0    0    0    0 -0.00000000000E+00 -0.00000000000E+00 -0.45593999997E+02  0.45594000000E+02  0.51100000000E-03 0.  1.
    9900012    2    1    2    0    0 -0.15756651484E+02  0.38507587820E+02 -0.12349775905E+02  0.47787270161E+02  0.19999995972E+02 0.  0.
         12    1    1    2    0    0  0.15756651484E+02 -0.38507587820E+02  0.12349775905E+02  0.43400729839E+02  0.00000000000E+00 0. -1.
         11    1    3    3    0    0 -0.30951431352E+01  0.14193918314E+01 -0.58905986796E+01  0.68039501221E+01  0.51100000000E-03 0. -1.
        -11    1    3    3    0    0 -0.72408204074E+01  0.32145967813E+02 -0.67765533036E+01  0.33640963151E+02  0.51100000000E-03 0.  1.
         12    1    3    3    0    0 -0.54206879412E+01  0.49422281756E+01  0.31737607869E+00  0.73423568880E+01  0.00000000000E+00 0. -1.
</event>
<event>
 7    1  0.2751796E-010  0.4778727E+02  0.7816164E-02  0.1312668E+00
        -11   -1    0    0    0    0  0.00000000000E+00  0.00000000000E+00  0.45593999997E+02  0.45594000000E+02  0.51100000000E-03 0. -1.
         11   -1    0    0    0    0 -0.00000000000E+00 -0.00000000000E+00 -0.45593999997E+02  0.45594000000E+02  0.51100000000E-03 0.  1.
    9900012    2    1    2    0    0  0.54205473883E+01  0.35294246726E+02 -0.24668948402E+02  0.47787271881E+02  0.20000003816E+02 0.  0.
         12    1    1    2    0    0 -0.54205473883E+01 -0.35294246726E+02  0.24668948402E+02  0.43400728119E+02  0.00000000000E+00 0. -1.
         11    1    3    3    0    0 -0.72023428631E+01  0.14132291809E+02 -0.67766270136E+01  0.17248712660E+02  0.51100000000E-03 0. -1.
        -11    1    3    3    0    0  0.73837543518E+00  0.25987800523E+01 -0.21446892679E+01  0.34494272511E+01  0.51100000000E-03 0.  1.
         12    1    3    3    0    0  0.11884514816E+02  0.18563174865E+02 -0.15747632121E+02  0.27089131970E+02  0.00000000000E+00 0. -1.
</event>
<event>
 7    1  0.2751796E-010  0.4778726E+02  0.7816164E-02  0.1312668E+00
        -11   -1    0    0    0    0  0.00000000000E+00  0.00000000000E+00  0.45593999997E+02  0.45594000000E+02  0.51100000000E-03 0.  1.
         11   -1    0    0    0    0 -0.00000000000E+00 -0.00000000000E+00 -0.45593999997E+02  0.45594000000E+02  0.51100000000E-03 0. -1.
    9900012    2    1    2    0    0  0.17041507555E+02  0.39133589399E+02  0.78595963136E+01  0.47787262066E+02  0.19999959064E+02 0.  0.
         12    1    1    2    0    0 -0.17041507555E+02 -0.39133589399E+02 -0.78595963136E+01  0.43400737934E+02  0.00000000000E+00 0. -1.
         11    1    3    3    0    0  0.98092376880E+01  0.63207644221E+01 -0.30751832812E+01  0.12067723869E+02  0.51100000000E-03 0. -1.
        -11    1    3    3    0    0  0.25489318077E+01  0.17203364805E+02  0.80717903203E+01  0.19173070000E+02  0.51100000000E-03 0.  1.
         12    1    3    3    0    0  0.46833380594E+01  0.15609460172E+02  0.28629892745E+01  0.16546468198E+02  0.00000000000E+00 0. -1.
</event>
<event>
 7    1  0.2751796E-010  0.4778727E+02  0.7816164E-02  0.1312668E+00
        -11   -1    0    0    0    0  0.00000000000E+00  0.00000000000E+00  0.45593999997E+02  0.45594000000E+02  0.51100000000E-03 0. -1.
         11   -1    0    0    0    0 -0.00000000000E+00 -0.00000000000E+00 -0.45593999997E+02  0.45594000000E+02  0.51100000000E-03 0.  1.
    9900012    2    1    2    0    0  0.18809850195E+02 -0.37870461546E+02 -0.97796338320E+01  0.47787267749E+02  0.19999984975E+02 0.  0.
         12    1    1    2    0    0 -0.18809850195E+02  0.37870461546E+02  0.97796338320E+01  0.43400732251E+02  0.00000000000E+00 0. -1.
         11    1    3    3    0    0 -0.13171530138E+01  0.48723865498E-01  0.19820295622E+01  0.23802746740E+01  0.51100000000E-03 0. -1.
        -11    1    3    3    0    0  0.14733821918E+02 -0.34383924454E+02 -0.10134883343E+02  0.38756362443E+02  0.51100000000E-03 0.  1.
         12    1    3    3    0    0  0.53931812903E+01 -0.35352609569E+01 -0.16267800510E+01  0.66506306315E+01  0.00000000000E+00 0. -1.
</event>
<event>
 7    1  0.2751796E-010  0.4778727E+02  0.7816164E-02  0.1312668E+00
        -11   -1    0    0    0    0  0.00000000000E+00  0.00000000000E+00  0.45593999997E+02  0.45594000000E+02  0.51100000000E-03 0. -1.
         11   -1    0    0    0    0 -0.00000000000E+00 -0.00000000000E+00 -0.45593999997E+02  0.45594000000E+02  0.51100000000E-03 0.  1.
    9900012    2    1    2    0    0 -0.32844488789E+02  0.22609988494E+02 -0.17136255753E+02  0.47787270919E+02  0.19999999430E+02 0.  0.
         12    1    1    2    0    0  0.32844488789E+02 -0.22609988494E+02  0.17136255753E+02  0.43400729081E+02  0.00000000000E+00 0. -1.
         11    1    3    3    0    0 -0.16557619757E+01  0.88229438903E+01 -0.25481259897E+01  0.93316039849E+01  0.51100000000E-03 0. -1.
        -11    1    3    3    0    0 -0.26943633800E+02  0.74646893020E+01 -0.11142436286E+02  0.30097090812E+02  0.51100000000E-03 0.  1.
        -12    1    3    3    0    0 -0.42450930136E+01  0.63223553016E+01 -0.34456934765E+01  0.83585761220E+01  0.00000000000E+00 0.  1.
</event>
<event>
 7    1  0.2751796E-010  0.4778727E+02  0.7816164E-02  0.1312668E+00
        -11   -1    0    0    0    0  0.00000000000E+00  0.00000000000E+00  0.45593999997E+02  0.45594000000E+02  0.51100000000E-03 0. -1.
         11   -1    0    0    0    0 -0.00000000000E+00 -0.00000000000E+00 -0.45593999997E+02  0.45594000000E+02  0.51100000000E-03 0.  1.
    9900012    2    1    2    0    0 -0.30934882190E+02 -0.30394775338E+02  0.16774220317E+01  0.47787273639E+02  0.20000011830E+02 0.  0.
         12    1    1    2    0    0  0.30934882190E+02  0.30394775338E+02 -0.16774220317E+01  0.43400726361E+02  0.00000000000E+00 0. -1.
         11    1    3    3    0    0 -0.57506468883E+01 -0.76975786888E+01  0.82315005435E+01  0.12652282749E+02  0.51100000000E-03 0. -1.
        -11    1    3    3    0    0 -0.19490327734E+02 -0.16567971284E+02 -0.76441691714E+01  0.26698387034E+02  0.51100000000E-03 0.  1.
         12    1    3    3    0    0 -0.56939075672E+01 -0.61292253660E+01  0.10900906596E+01  0.84366038557E+01  0.00000000000E+00 0. -1.
</event>
<event>
 7    1  0.2751796E-010  0.4778727E+02  0.7816164E-02  0.1312668E+00
        -11   -1    0    0    0    0  0.00000000000E+00  0.00000000000E+00  0.45593999997E+02  0.45594000000E+02  0.51100000000E-03 0.  1.
         11   -1    0    0    0    0 -0.00000000000E+00 -0.00000000000E+00 -0.45593999997E+02  0.45594000000E+02  0.51100000000E-03 0. -1.
    9900012    2    1    2    0    0  0.33753419942E+02  0.11755151219E+02  0.24620038955E+02  0.47787271249E+02  0.20000000934E+02 0.  0.
         12    1    1    2    0    0 -0.33753419942E+02 -0.11755151219E+02 -0.24620038955E+02  0.43400728751E+02  0.00000000000E+00 0. -1.
         11    1    3    3    0    0  0.18152475234E+02  0.14384548765E+02  0.21211210662E+02  0.31406099062E+02  0.51100000000E-03 0. -1.
        -11    1    3    3    0    0  0.17345794059E+01  0.39541232351E+00 -0.24903872873E-01  0.17792518329E+01  0.51100000000E-03 0.  1.
         12    1    3    3    0    0  0.13866365302E+02 -0.30248098695E+01  0.34337321649E+01  0.14601920354E+02  0.00000000000E+00 0. -1.
</event>
<event>
 7    1  0.2751796E-010  0.4778727E+02  0.7816164E-02  0.1312668E+00
        -11   -1    0    0    0    0  0.00000000000E+00  0.00000000000E+00  0.45593999997E+02  0.45594000000E+02  0.51100000000E-03 0.  1.
         11   -1    0    0    0    0 -0.00000000000E+00 -0.00000000000E+00 -0.45593999997E+02  0.45594000000E+02  0.51100000000E-03 0. -1.
    9900012    2    1    2    0    0 -0.26861351849E+02 -0.79308097454E+01  0.33154083052E+02  0.47787272017E+02  0.20000004435E+02 0.  0.
         12    1    1    2    0    0  0.26861351849E+02  0.79308097454E+01 -0.33154083052E+02  0.43400727983E+02  0.00000000000E+00 0. -1.
         11    1    3    3    0    0 -0.20944622840E+02 -0.40173370675E+01  0.29745511097E+02  0.36600705645E+02  0.51100000000E-03 0. -1.
        -11    1    3    3    0    0 -0.51207431450E+01 -0.95225396764E+00  0.54218794778E+01  0.75183492410E+01  0.51100000000E-03 0.  1.
         12    1    3    3    0    0 -0.79598586465E+00 -0.29612187102E+01 -0.20133075222E+01  0.36682171317E+01  0.00000000000E+00 0. -1.
</event>
<event>
 7    1  0.2751796E-010  0.4778727E+02  0.7816164E-02  0.1312668E+00
        -11   -1    0    0    0    0  0.00000000000E+00  0.00000000000E+00  0.45593999997E+02  0.45594000000E+02  0.51100000000E-03 0.  1.
         11   -1    0    0    0    0 -0.00000000000E+00 -0.00000000000E+00 -0.45593999997E+02  0.45594000000E+02  0.51100000000E-03 0. -1.
    9900012    2    1    2    0    0  0.16041685859E+02 -0.18197288091E+02  0.35988141980E+02  0.47787270257E+02  0.19999996409E+02 0.  0.
         12    1    1    2    0    0 -0.16041685859E+02  0.18197288091E+02 -0.35988141980E+02  0.43400729743E+02  0.00000000000E+00 0. -1.
         11    1    3    3    0    0  0.14276229675E+02 -0.70844070585E+01  0.22916916215E+02  0.27913878380E+02  0.51100000000E-03 0. -1.
        -11    1    3    3    0    0  0.56764466231E+01 -0.63223855185E+01  0.94449288678E+01  0.12704380602E+02  0.51100000000E-03 0.  1.
         12    1    3    3    0    0 -0.39109904386E+01 -0.47904955136E+01  0.36262968968E+01  0.71690112749E+01  0.00000000000E+00 0. -1.
</event>
<event>
 7    1  0.2751796E-010  0.4778728E+02  0.7816164E-02  0.1312668E+00
        -11   -1    0    0    0    0  0.00000000000E+00  0.00000000000E+00  0.45593999997E+02  0.45594000000E+02  0.51100000000E-03 0.  1.
         11   -1    0    0    0    0 -0.00000000000E+00 -0.00000000000E+00 -0.45593999997E+02  0.45594000000E+02  0.51100000000E-03 0. -1.
    9900012    2    1    2    0    0 -0.11436546022E+02  0.31156284309E+01  0.41750701908E+02  0.47787276098E+02  0.20000023040E+02 0.  0.
         12    1    1    2    0    0  0.11436546022E+02 -0.31156284309E+01 -0.41750701908E+02  0.43400723902E+02  0.00000000000E+00 0. -1.
         11    1    3    3    0    0  0.23613853031E+01 -0.95497786749E+00  0.69667590774E+01  0.74178066557E+01  0.51100000000E-03 0. -1.
        -11    1    3    3    0    0 -0.16408860430E+02  0.57462839742E+01  0.29522929344E+02  0.34261842295E+02  0.51100000000E-03 0.  1.
        -12    1    3    3    0    0  0.26109291051E+01 -0.16756776758E+01  0.52610134869E+01  0.61076271476E+01  0.00000000000E+00 0.  1.
</event>
<event>
 7    1  0.2751796E-010  0.4778727E+02  0.7816164E-02  0.1312668E+00
        -11   -1    0    0    0    0  0.00000000000E+00  0.00000000000E+00  0.45593999997E+02  0.45594000000E+02  0.51100000000E-03 0. -1.
         11   -1    0    0    0    0 -0.00000000000E+00 -0.00000000000E+00 -0.45593999997E+02  0.45594000000E+02  0.51100000000E-03 0.  1.
    9900012    2    1    2    0    0  0.33248448018E+02  0.21058078439E+02 -0.18295385071E+02  0.47787273301E+02  0.20000010287E+02 0.  0.
         12    1    1    2    0    0 -0.33248448018E+02 -0.21058078439E+02  0.18295385071E+02  0.43400726699E+02  0.00000000000E+00 0. -1.
         11    1    3    3    0    0  0.16297287901E+02  0.91426592690E+01  0.11968874504E+01  0.18724912584E+02  0.51100000000E-03 0. -1.
        -11    1    3    3    0    0  0.15776764382E+02  0.85591429758E+01 -0.15490937117E+02  0.23709372743E+02  0.51100000000E-03 0.  1.
         12    1    3    3    0    0  0.11743957349E+01  0.33562761937E+01 -0.40013354040E+01  0.53529879736E+01  0.00000000000E+00 0. -1.
</event>
<event>
 7    1  0.2751796E-010  0.4778727E+02  0.7816164E-02  0.1312668E+00
        -11   -1    0    0    0    0  0.00000000000E+00  0.00000000000E+00  0.45593999997E+02  0.45594000000E+02  0.51100000000E-03 0.  1.
         11   -1    0    0    0    0 -0.00000000000E+00 -0.00000000000E+00 -0.45593999997E+02  0.45594000000E+02  0.51100000000E-03 0. -1.
    9900012    2    1    2    0    0 -0.17706226053E+02  0.19105389038E+02  0.34714512712E+02  0.47787265857E+02  0.19999976348E+02 0.  0.
         12    1    1    2    0    0  0.17706226053E+02 -0.19105389038E+02 -0.34714512712E+02  0.43400734143E+02  0.00000000000E+00 0. -1.
         11    1    3    3    0    0  0.16389409705E+01  0.97457049007E-01 -0.14605461898E+01  0.21974578072E+01  0.51100000000E-03 0. -1.
        -11    1    3    3    0    0 -0.19415447847E+02  0.17291530290E+02  0.33403807315E+02  0.42329315826E+02  0.51100000000E-03 0.  1.
         12    1    3    3    0    0  0.70280823815E-01  0.17164016989E+01  0.27712515861E+01  0.32604922235E+01  0.00000000000E+00 0. -1.
</event>
<event>
 7    1  0.2751796E-010  0.4778727E+02  0.7816164E-02  0.1312668E+00
        -11   -1    0    0    0    0  0.00000000000E+00  0.00000000000E+00  0.45593999997E+02  0.45594000000E+02  0.51100000000E-03 0.  1.
         11   -1    0    0    0    0 -0.00000000000E+00 -0.00000000000E+00 -0.45593999997E+02  0.45594000000E+02  0.51100000000E-03 0. -1.
    9900012    2    1    2    0    0  0.47153961070E+01 -0.41066178404E+02  0.13227136429E+02  0.47787272964E+02  0.20000008753E+02 0.  0.
         12    1    1    2    0    0 -0.47153961070E+01  0.41066178404E+02 -0.13227136429E+02  0.43400727036E+02  0.00000000000E+00 0. -1.
         11    1    3    3    0    0  0.22232051228E+01 -0.44885629975E+01  0.16242972315E+00  0.50116087713E+01  0.51100000000E-03 0. -1.
        -11    1    3    3    0    0  0.54002794532E+01 -0.68711071110E+01 -0.25309532454E+01  0.90983985236E+01  0.51100000000E-03 0.  1.
        -12    1    3    3    0    0 -0.29080884690E+01 -0.29706508295E+02  0.15595659951E+02  0.33677265669E+02  0.00000000000E+00 0.  1.
</event>
<event>
 7    1  0.2751796E-010  0.4778725E+02  0.7816164E-02  0.1312668E+00
        -11   -1    0    0    0    0  0.00000000000E+00  0.00000000000E+00  0.45593999997E+02  0.45594000000E+02  0.51100000000E-03 0.  1.
         11   -1    0    0    0    0 -0.00000000000E+00 -0.00000000000E+00 -0.45593999997E+02  0.45594000000E+02  0.51100000000E-03 0. -1.
    9900012    2    1    2    0    0 -0.30234385042E+01 -0.92036831553E+01  0.42305744103E+02  0.47787251756E+02  0.19999912055E+02 0.  0.
         12    1    1    2    0    0  0.30234385042E+01  0.92036831553E+01 -0.42305744103E+02  0.43400748244E+02  0.00000000000E+00 0. -1.
         11    1    3    3    0    0 -0.91708074109E-01 -0.76162947363E+01  0.80838738813E+01  0.11106996582E+02  0.51100000000E-03 0. -1.
        -11    1    3    3    0    0  0.14300702135E+01  0.24714909188E+01  0.27699032872E+02  0.27845821778E+02  0.51100000000E-03 0.  1.
        -12    1    3    3    0    0 -0.43618006436E+01 -0.40588793378E+01  0.65228373500E+01  0.88344333960E+01  0.00000000000E+00 0.  1.
</event>
<event>
 7    1  0.2751796E-010  0.4778727E+02  0.7816164E-02  0.1312668E+00
        -11   -1    0    0    0    0  0.00000000000E+00  0.00000000000E+00  0.45593999997E+02  0.45594000000E+02  0.51100000000E-03 0.  1.
         11   -1    0    0    0    0 -0.00000000000E+00 -0.00000000000E+00 -0.45593999997E+02  0.45594000000E+02  0.51100000000E-03 0. -1.
    9900012    2    1    2    0    0  0.70275141159E+01  0.54076910567E+01  0.42485223417E+02  0.47787270904E+02  0.19999999362E+02 0.  0.
         12    1    1    2    0    0 -0.70275141159E+01 -0.54076910567E+01 -0.42485223417E+02  0.43400729096E+02  0.00000000000E+00 0. -1.
         11    1    3    3    0    0 -0.25504310047E+01 -0.28079898505E+01  0.54323112367E+01  0.66256706033E+01  0.51100000000E-03 0. -1.
        -11    1    3    3    0    0 -0.81016769368E-01 -0.14017870061E+01 -0.26800192004E+00  0.14294739654E+01  0.51100000000E-03 0.  1.
         12    1    3    3    0    0  0.96589618900E+01  0.96174679133E+01  0.37320914101E+02  0.39732126336E+02  0.00000000000E+00 0. -1.
</event>
<event>
 7    1  0.2751796E-010  0.4778727E+02  0.7816164E-02  0.1312668E+00
        -11   -1    0    0    0    0  0.00000000000E+00  0.00000000000E+00  0.45593999997E+02  0.45594000000E+02  0.51100000000E-03 0.  1.
         11   -1    0    0    0    0 -0.00000000000E+00 -0.00000000000E+00 -0.45593999997E+02  0.45594000000E+02  0.51100000000E-03 0. -1.
    9900012    2    1    2    0    0 -0.17288094874E+02  0.23382935634E+02  0.32217747028E+02  0.47787272739E+02  0.20000007725E+02 0.  0.
         12    1    1    2    0    0  0.17288094874E+02 -0.23382935634E+02 -0.32217747028E+02  0.43400727261E+02  0.00000000000E+00 0. -1.
         11    1    3    3    0    0 -0.19829875344E+02  0.14271443822E+02  0.18427691422E+02  0.30601926023E+02  0.51100000000E-03 0. -1.
        -11    1    3    3    0    0  0.25330084937E+00  0.73306922314E+01  0.10360498798E+02  0.12694217011E+02  0.51100000000E-03 0.  1.
         12    1    3    3    0    0  0.22884796212E+01  0.17807995806E+01  0.34295568080E+01  0.44911297044E+01  0.00000000000E+00 0. -1.
</event>
<event>
 7    1  0.2751796E-010  0.4778727E+02  0.7816164E-02  0.1312668E+00
        -11   -1    0    0    0    0  0.00000000000E+00  0.00000000000E+00  0.45593999997E+02  0.45594000000E+02  0.51100000000E-03 0.  1.
         11   -1    0    0    0    0 -0.00000000000E+00 -0.00000000000E+00 -0.45593999997E+02  0.45594000000E+02  0.51100000000E-03 0. -1.
    9900012    2    1    2    0    0 -0.41397945347E+02 -0.11960053741E+02  0.51759612745E+01  0.47787270288E+02  0.19999996550E+02 0.  0.
         12    1    1    2    0    0  0.41397945347E+02  0.11960053741E+02 -0.51759612745E+01  0.43400729712E+02  0.00000000000E+00 0. -1.
         11    1    3    3    0    0 -0.28146479121E+01  0.31125484640E+00  0.62785967327E+01  0.68876628577E+01  0.51100000000E-03 0.  1.
        -11    1    3    3    0    0 -0.21768918883E+02 -0.98578141940E+01 -0.79381954851E+00  0.23910091588E+02  0.51100000000E-03 0. -1.
         12    1    3    3    0    0 -0.16814378552E+02 -0.24134943930E+01 -0.30881590974E+00  0.16989515842E+02  0.00000000000E+00 0. -1.
</event>
<event>
 7    1  0.2751796E-010  0.4778727E+02  0.7816164E-02  0.1312668E+00
        -11   -1    0    0    0    0  0.00000000000E+00  0.00000000000E+00  0.45593999997E+02  0.45594000000E+02  0.51100000000E-03 0. -1.
         11   -1    0    0    0    0 -0.00000000000E+00 -0.00000000000E+00 -0.45593999997E+02  0.45594000000E+02  0.51100000000E-03 0.  1.
    9900012    2    1    2    0    0 -0.32586962974E+02 -0.80873561516E+01 -0.27501058561E+02  0.47787266050E+02  0.19999977230E+02 0.  0.
         12    1    1    2    0    0  0.32586962974E+02  0.80873561516E+01  0.27501058561E+02  0.43400733950E+02  0.00000000000E+00 0. -1.
         11    1    3    3    0    0 -0.31216112527E+01 -0.35354233603E+01 -0.10938130266E+01  0.48414979446E+01  0.51100000000E-03 0. -1.
        -11    1    3    3    0    0 -0.19691224571E+02 -0.10499514769E+02 -0.15789266688E+02  0.27336515475E+02  0.51100000000E-03 0.  1.
        -12    1    3    3    0    0 -0.97741271494E+01  0.59475819772E+01 -0.10617978847E+02  0.15609252631E+02  0.00000000000E+00 0.  1.
</event>
<event>
 7    1  0.2751796E-010  0.4778727E+02  0.7816164E-02  0.1312668E+00
        -11   -1    0    0    0    0  0.00000000000E+00  0.00000000000E+00  0.45593999997E+02  0.45594000000E+02  0.51100000000E-03 0.  1.
         11   -1    0    0    0    0 -0.00000000000E+00 -0.00000000000E+00 -0.45593999997E+02  0.45594000000E+02  0.51100000000E-03 0. -1.
    9900012    2    1    2    0    0 -0.26458320763E+01  0.26621790307E+02  0.34174599373E+02  0.47787269720E+02  0.19999993962E+02 0.  0.
         12    1    1    2    0    0  0.26458320763E+01 -0.26621790307E+02 -0.34174599373E+02  0.43400730280E+02  0.00000000000E+00 0. -1.
         11    1    3    3    0    0 -0.81784797447E+01  0.59434319100E+01  0.18985360947E+02  0.21509436170E+02  0.51100000000E-03 0. -1.
        -11    1    3    3    0    0  0.18285319098E+01  0.87677644888E+01  0.68101775337E+01  0.11251477298E+02  0.51100000000E-03 0.  1.
         12    1    3    3    0    0  0.37041157585E+01  0.11910593908E+02  0.83790608922E+01  0.15026356253E+02  0.00000000000E+00 0. -1.
</event>
<event>
 7    1  0.2751796E-010  0.4778731E+02  0.7816164E-02  0.1312668E+00
        -11   -1    0    0    0    0  0.00000000000E+00  0.00000000000E+00  0.45593999997E+02  0.45594000000E+02  0.51100000000E-03 0.  1.
         11   -1    0    0    0    0 -0.00000000000E+00 -0.00000000000E+00 -0.45593999997E+02  0.45594000000E+02  0.51100000000E-03 0. -1.
    9900012    2    1    2    0    0 -0.40339202934E+02  0.52484264450E+01 -0.15126889933E+02  0.47787307925E+02  0.20000168154E+02 0.  0.
         12    1    1    2    0    0  0.40339202934E+02 -0.52484264450E+01  0.15126889933E+02  0.43400692075E+02  0.00000000000E+00 0. -1.
         11    1    3    3    0    0 -0.14722929774E+02  0.37567873194E+01 -0.50627392080E+01  0.16015912107E+02  0.51100000000E-03 0. -1.
        -11    1    3    3    0    0 -0.17127205553E+02  0.77738922465E+01 -0.97964239830E+01  0.21207180242E+02  0.51100000000E-03 0.  1.
        -12    1    3    3    0    0 -0.84890676075E+01 -0.62822531209E+01 -0.26772674174E+00  0.10564215576E+02  0.00000000000E+00 0.  1.
</event>
<event>
 7    1  0.2751796E-010  0.4778727E+02  0.7816164E-02  0.1312668E+00
        -11   -1    0    0    0    0  0.00000000000E+00  0.00000000000E+00  0.45593999997E+02  0.45594000000E+02  0.51100000000E-03 0.  1.
         11   -1    0    0    0    0 -0.00000000000E+00 -0.00000000000E+00 -0.45593999997E+02  0.45594000000E+02  0.51100000000E-03 0. -1.
    9900012    2    1    2    0    0 -0.30809911029E+02  0.23738059127E+02  0.19258178132E+02  0.47787268512E+02  0.19999988453E+02 0.  0.
         12    1    1    2    0    0  0.30809911029E+02 -0.23738059127E+02 -0.19258178132E+02  0.43400731488E+02  0.00000000000E+00 0. -1.
         11    1    3    3    0    0 -0.18149826324E+02  0.77181626148E+01  0.23578901075E+01  0.19863178894E+02  0.51100000000E-03 0. -1.
        -11    1    3    3    0    0 -0.10985377081E+02  0.88802741196E+01  0.74741202208E+01  0.15981246866E+02  0.51100000000E-03 0.  1.
         12    1    3    3    0    0 -0.16747076238E+01  0.71396223929E+01  0.94261678039E+01  0.11942842752E+02  0.00000000000E+00 0. -1.
</event>
<event>
 7    1  0.2751796E-010  0.4778727E+02  0.7816164E-02  0.1312668E+00
        -11   -1    0    0    0    0  0.00000000000E+00  0.00000000000E+00  0.45593999997E+02  0.45594000000E+02  0.51100000000E-03 0. -1.
         11   -1    0    0    0    0 -0.00000000000E+00 -0.00000000000E+00 -0.45593999997E+02  0.45594000000E+02  0.51100000000E-03 0.  1.
    9900012    2    1    2    0    0  0.21231430215E+02 -0.33102722699E+02 -0.18359172474E+02  0.47787273129E+02  0.20000009502E+02 0.  0.
         12    1    1    2    0    0 -0.21231430215E+02  0.33102722699E+02  0.18359172474E+02  0.43400726871E+02  0.00000000000E+00 0. -1.
         11    1    3    3    0    0  0.21639299805E+02 -0.24342848211E+02 -0.17373410312E+02  0.36914346009E+02  0.51100000000E-03 0. -1.
        -11    1    3    3    0    0 -0.26859179007E+01 -0.78799005579E+01 -0.12428021551E+01  0.84173359936E+01  0.51100000000E-03 0.  1.
         12    1    3    3    0    0  0.22780483103E+01 -0.87997392964E+00  0.25703999362E+00  0.24555911263E+01  0.00000000000E+00 0. -1.
</event>
<event>
 7    1  0.2751796E-010  0.4778733E+02  0.7816164E-02  0.1312667E+00
        -11   -1    0    0    0    0  0.00000000000E+00  0.00000000000E+00  0.45593999997E+02  0.45594000000E+02  0.51100000000E-03 0.  1.
         11   -1    0    0    0    0 -0.00000000000E+00 -0.00000000000E+00 -0.45593999997E+02  0.45594000000E+02  0.51100000000E-03 0. -1.
    9900012    2    1    2    0    0 -0.19041040455E+02 -0.34074889414E+02  0.18972580859E+02  0.47787330251E+02  0.20000269946E+02 0.  0.
         12    1    1    2    0    0  0.19041040455E+02  0.34074889414E+02 -0.18972580859E+02  0.43400669749E+02  0.00000000000E+00 0. -1.
         11    1    3    3    0    0 -0.20065340855E+02 -0.22051039158E+02  0.13237958104E+02  0.32620695373E+02  0.51100000000E-03 0. -1.
        -11    1    3    3    0    0  0.16244519643E+00 -0.93281043802E+01  0.73776634736E+01  0.11894109397E+02  0.51100000000E-03 0.  1.
         12    1    3    3    0    0  0.86185520375E+00 -0.26957458763E+01 -0.16430407188E+01  0.32725254812E+01  0.00000000000E+00 0. -1.
</event>
<event>
 7    1  0.2751796E-010  0.4778727E+02  0.7816164E-02  0.1312668E+00
        -11   -1    0    0    0    0  0.00000000000E+00  0.00000000000E+00  0.45593999997E+02  0.45594000000E+02  0.51100000000E-03 0. -1.
         11   -1    0    0    0    0 -0.00000000000E+00 -0.00000000000E+00 -0.45593999997E+02  0.45594000000E+02  0.51100000000E-03 0.  1.
    9900012    2    1    2    0    0  0.26510939546E+02 -0.34052551356E+02  0.46062513807E+01  0.47787265890E+02  0.19999976498E+02 0.  0.
         12    1    1    2    0    0 -0.26510939546E+02  0.34052551356E+02 -0.46062513807E+01  0.43400734110E+02  0.00000000000E+00 0. -1.
         11    1    3    3    0    0  0.80842901663E+01 -0.24639426645E+02 -0.86991054096E+00  0.25946364630E+02  0.51100000000E-03 0. -1.
        -11    1    3    3    0    0  0.10079740802E+02 -0.57775887201E+01  0.90466533380E+00  0.11653331098E+02  0.51100000000E-03 0.  1.
         12    1    3    3    0    0  0.83469085782E+01 -0.36355359912E+01  0.45714965878E+01  0.10187570162E+02  0.00000000000E+00 0. -1.
</event>
<event>
 7    1  0.2751796E-010  0.4778727E+02  0.7816164E-02  0.1312668E+00
        -11   -1    0    0    0    0  0.00000000000E+00  0.00000000000E+00  0.45593999997E+02  0.45594000000E+02  0.51100000000E-03 0.  1.
         11   -1    0    0    0    0 -0.00000000000E+00 -0.00000000000E+00 -0.45593999997E+02  0.45594000000E+02  0.51100000000E-03 0. -1.
    9900012    2    1    2    0    0  0.24805290039E+02  0.34014454934E+02  0.10551671474E+02  0.47787270406E+02  0.19999997088E+02 0.  0.
         12    1    1    2    0    0 -0.24805290039E+02 -0.34014454934E+02 -0.10551671474E+02  0.43400729594E+02  0.00000000000E+00 0. -1.
         11    1    3    3    0    0  0.64064828504E+01  0.43161638445E+01  0.72524982518E+01  0.10595802188E+02  0.51100000000E-03 0. -1.
        -11    1    3    3    0    0  0.33321569622E+01  0.73374605816E+01 -0.43588109473E+01  0.91619228845E+01  0.51100000000E-03 0.  1.
        -12    1    3    3    0    0  0.15066650227E+02  0.22360830508E+02  0.76579841699E+01  0.28029545334E+02  0.00000000000E+00 0.  1.
</event>
<event>
 7    1  0.2751796E-010  0.4778727E+02  0.7816164E-02  0.1312668E+00
        -11   -1    0    0    0    0  0.00000000000E+00  0.00000000000E+00  0.45593999997E+02  0.45594000000E+02  0.51100000000E-03 0.  1.
         11   -1    0    0    0    0 -0.00000000000E+00 -0.00000000000E+00 -0.45593999997E+02  0.45594000000E+02  0.51100000000E-03 0. -1.
    9900012    2    1    2    0    0  0.16083475871E+02  0.24348958320E+01  0.40237002665E+02  0.47787270775E+02  0.19999998772E+02 0.  0.
         12    1    1    2    0    0 -0.16083475871E+02 -0.24348958320E+01 -0.40237002665E+02  0.43400729225E+02  0.00000000000E+00 0. -1.
         11    1    3    3    0    0  0.62696742601E+01  0.59159725579E+01  0.68841983426E+01  0.11031760227E+02  0.51100000000E-03 0. -1.
        -11    1    3    3    0    0  0.62378299944E+01 -0.37427927626E+00  0.30693230051E+02  0.31322914603E+02  0.51100000000E-03 0.  1.
        -12    1    3    3    0    0  0.35759716164E+01 -0.31067974496E+01  0.26595742715E+01  0.54325959448E+01  0.00000000000E+00 0.  1.
</event>
<event>
 7    1  0.2751796E-010  0.4778727E+02  0.7816164E-02  0.1312668E+00
        -11   -1    0    0    0    0  0.00000000000E+00  0.00000000000E+00  0.45593999997E+02  0.45594000000E+02  0.51100000000E-03 0.  1.
         11   -1    0    0    0    0 -0.00000000000E+00 -0.00000000000E+00 -0.45593999997E+02  0.45594000000E+02  0.51100000000E-03 0. -1.
    9900012    2    1    2    0    0  0.29555246734E+02 -0.27000854429E+02  0.16764977489E+02  0.47787271669E+02  0.20000002849E+02 0.  0.
         12    1    1    2    0    0 -0.29555246734E+02  0.27000854429E+02 -0.16764977489E+02  0.43400728331E+02  0.00000000000E+00 0. -1.
         11    1    3    3    0    0  0.21096071150E+01 -0.84836332886E+01  0.20783245681E+00  0.87444651379E+01  0.51100000000E-03 0. -1.
        -11    1    3    3    0    0  0.13789856294E+02 -0.32505772263E+01  0.10652595054E+02  0.17725805216E+02  0.51100000000E-03 0.  1.
         12    1    3    3    0    0  0.13655783325E+02 -0.15266643914E+02  0.59045499781E+01  0.21317001315E+02  0.00000000000E+00 0. -1.
</event>
<event>
 7    1  0.2751796E-010  0.4778727E+02  0.7816164E-02  0.1312668E+00
        -11   -1    0    0    0    0  0.00000000000E+00  0.00000000000E+00  0.45593999997E+02  0.45594000000E+02  0.51100000000E-03 0. -1.
         11   -1    0    0    0    0 -0.00000000000E+00 -0.00000000000E+00 -0.45593999997E+02  0.45594000000E+02  0.51100000000E-03 0.  1.
    9900012    2    1    2    0    0  0.19084045395E+02 -0.25347441925E+02 -0.29612995922E+02  0.47787272722E+02  0.20000007649E+02 0.  0.
         12    1    1    2    0    0 -0.19084045395E+02  0.25347441925E+02  0.29612995922E+02  0.43400727278E+02  0.00000000000E+00 0. -1.
         11    1    3    3    0    0  0.95722109531E+01 -0.18549602875E+02 -0.16310338634E+02  0.26490415926E+02  0.51100000000E-03 0.  1.
        -11    1    3    3    0    0  0.15660432916E+01  0.30418719455E+00 -0.10019151433E+02  0.10145364318E+02  0.51100000000E-03 0. -1.
         12    1    3    3    0    0  0.79457911507E+01 -0.71020262443E+01 -0.32835058552E+01  0.11151492478E+02  0.00000000000E+00 0. -1.
</event>
<event>
 7    1  0.2751796E-010  0.4778728E+02  0.7816164E-02  0.1312668E+00
        -11   -1    0    0    0    0  0.00000000000E+00  0.00000000000E+00  0.45593999997E+02  0.45594000000E+02  0.51100000000E-03 0. -1.
         11   -1    0    0    0    0 -0.00000000000E+00 -0.00000000000E+00 -0.45593999997E+02  0.45594000000E+02  0.51100000000E-03 0.  1.
    9900012    2    1    2    0    0  0.40743319312E+02  0.32914641841E+01 -0.14586671168E+02  0.47787276725E+02  0.20000025899E+02 0.  0.
         12    1    1    2    0    0 -0.40743319312E+02 -0.32914641841E+01  0.14586671168E+02  0.43400723275E+02  0.00000000000E+00 0. -1.
         11    1    3    3    0    0  0.14228275886E+02  0.24612813052E+01  0.32815802294E+01  0.14807785433E+02  0.51100000000E-03 0. -1.
        -11    1    3    3    0    0  0.23413214035E+02 -0.10942626745E+01 -0.12718259405E+02  0.26667023171E+02  0.51100000000E-03 0.  1.
         12    1    3    3    0    0  0.31018293914E+01  0.19244455534E+01 -0.51499919925E+01  0.63124681215E+01  0.00000000000E+00 0. -1.
</event>
<event>
 7    1  0.2751796E-010  0.4778727E+02  0.7816164E-02  0.1312668E+00
        -11   -1    0    0    0    0  0.00000000000E+00  0.00000000000E+00  0.45593999997E+02  0.45594000000E+02  0.51100000000E-03 0.  1.
         11   -1    0    0    0    0 -0.00000000000E+00 -0.00000000000E+00 -0.45593999997E+02  0.45594000000E+02  0.51100000000E-03 0. -1.
    9900012    2    1    2    0    0  0.37872899964E+02 -0.68073725063E+01  0.20073033249E+02  0.47787268025E+02  0.19999986234E+02 0.  0.
         12    1    1    2    0    0 -0.37872899964E+02  0.68073725063E+01 -0.20073033249E+02  0.43400731975E+02  0.00000000000E+00 0. -1.
         11    1    3    3    0    0  0.25013050326E+02 -0.75650822349E+01  0.90669695004E+01  0.27660316196E+02  0.51100000000E-03 0. -1.
        -11    1    3    3    0    0  0.96394619208E+01 -0.27738098485E+01  0.24484036876E+01  0.10325111529E+02  0.51100000000E-03 0.  1.
         12    1    3    3    0    0  0.32203877170E+01  0.35315195772E+01  0.85576600608E+01  0.98018403011E+01  0.00000000000E+00 0. -1.
</event>
<event>
 7    1  0.2751796E-010  0.4778726E+02  0.7816164E-02  0.1312668E+00
        -11   -1    0    0    0    0  0.00000000000E+00  0.00000000000E+00  0.45593999997E+02  0.45594000000E+02  0.51100000000E-03 0. -1.
         11   -1    0    0    0    0 -0.00000000000E+00 -0.00000000000E+00 -0.45593999997E+02  0.45594000000E+02  0.51100000000E-03 0.  1.
    9900012    2    1    2    0    0  0.13663467509E+02 -0.34776270557E+02 -0.22080409541E+02  0.47787264710E+02  0.19999971117E+02 0.  0.
         12    1    1    2    0    0 -0.13663467509E+02  0.34776270557E+02  0.22080409541E+02  0.43400735290E+02  0.00000000000E+00 0. -1.
         11    1    3    3    0    0  0.71653705802E+01 -0.25459223072E+02 -0.19679796340E+02  0.32966785698E+02  0.51100000000E-03 0. -1.
        -11    1    3    3    0    0  0.32007260149E+01 -0.10553319206E+02 -0.11689751577E+01  0.11089801462E+02  0.51100000000E-03 0.  1.
         12    1    3    3    0    0  0.32973709142E+01  0.12362717208E+01 -0.12316380431E+01  0.37306775501E+01  0.00000000000E+00 0. -1.
</event>
<event>
 7    1  0.2751796E-010  0.4778727E+02  0.7816164E-02  0.1312668E+00
        -11   -1    0    0    0    0  0.00000000000E+00  0.00000000000E+00  0.45593999997E+02  0.45594000000E+02  0.51100000000E-03 0.  1.
         11   -1    0    0    0    0 -0.00000000000E+00 -0.00000000000E+00 -0.45593999997E+02  0.45594000000E+02  0.51100000000E-03 0. -1.
    9900012    2    1    2    0    0  0.16672803146E+02 -0.81639831584E+00  0.40062132082E+02  0.47787270767E+02  0.19999998736E+02 0.  0.
         12    1    1    2    0    0 -0.16672803146E+02  0.81639831584E+00 -0.40062132082E+02  0.43400729233E+02  0.00000000000E+00 0. -1.
         11    1    3    3    0    0  0.41832628927E+01  0.68660467261E+01  0.16202650139E+02  0.18087790298E+02  0.51100000000E-03 0. -1.
        -11    1    3    3    0    0  0.48399450526E+01 -0.73341303721E+01  0.18091661419E+02  0.20112750921E+02  0.51100000000E-03 0.  1.
         12    1    3    3    0    0  0.76495952004E+01 -0.34831466984E+00  0.57678205243E+01  0.95867295486E+01  0.00000000000E+00 0. -1.
</event>
<event>
 7    1  0.2751796E-010  0.4778727E+02  0.7816164E-02  0.1312668E+00
        -11   -1    0    0    0    0  0.00000000000E+00  0.00000000000E+00  0.45593999997E+02  0.45594000000E+02  0.51100000000E-03 0.  1.
         11   -1    0    0    0    0 -0.00000000000E+00 -0.00000000000E+00 -0.45593999997E+02  0.45594000000E+02  0.51100000000E-03 0. -1.
    9900012    2    1    2    0    0 -0.86189431668E+00 -0.30878673000E+02  0.30485866725E+02  0.47787269845E+02  0.19999994530E+02 0.  0.
         12    1    1    2    0    0  0.86189431668E+00  0.30878673000E+02 -0.30485866725E+02  0.43400730155E+02  0.00000000000E+00 0. -1.
         11    1    3    3    0    0 -0.10192007977E+01 -0.25581171605E+02  0.15186239937E+02  0.29766709503E+02  0.51100000000E-03 0. -1.
        -11    1    3    3    0    0  0.34516039856E+01 -0.21424906896E+00  0.58714907670E+01  0.68142407373E+01  0.51100000000E-03 0.  1.
        -12    1    3    3    0    0 -0.32942975046E+01 -0.50832523263E+01  0.94281360203E+01  0.11206319604E+02  0.00000000000E+00 0.  1.
</event>
<event>
 7    1  0.2751796E-010  0.4778727E+02  0.7816164E-02  0.1312668E+00
        -11   -1    0    0    0    0  0.00000000000E+00  0.00000000000E+00  0.45593999997E+02  0.45594000000E+02  0.51100000000E-03 0.  1.
         11   -1    0    0    0    0 -0.00000000000E+00 -0.00000000000E+00 -0.45593999997E+02  0.45594000000E+02  0.51100000000E-03 0. -1.
    9900012    2    1    2    0    0 -0.21373632699E+02  0.97614365175E+01  0.36489804235E+02  0.47787266934E+02  0.19999981258E+02 0.  0.
         12    1    1    2    0    0  0.21373632699E+02 -0.97614365175E+01 -0.36489804235E+02  0.43400733066E+02  0.00000000000E+00 0. -1.
         11    1    3    3    0    0 -0.18695614430E+02  0.24948858400E+01  0.19002842990E+02  0.26774213270E+02  0.51100000000E-03 0.  1.
        -11    1    3    3    0    0 -0.17094476593E+00  0.84715854520E+01  0.10498284660E+02  0.13491143882E+02  0.51100000000E-03 0. -1.
         12    1    3    3    0    0 -0.25070735022E+01 -0.12050347745E+01  0.69886765849E+01  0.75219097815E+01  0.00000000000E+00 0. -1.
</event>
<event>
 7    1  0.2751796E-010  0.4778727E+02  0.7816164E-02  0.1312668E+00
        -11   -1    0    0    0    0  0.00000000000E+00  0.00000000000E+00  0.45593999997E+02  0.45594000000E+02  0.51100000000E-03 0. -1.
         11   -1    0    0    0    0 -0.00000000000E+00 -0.00000000000E+00 -0.45593999997E+02  0.45594000000E+02  0.51100000000E-03 0.  1.
    9900012    2    1    2    0    0 -0.23901865776E+02  0.24017635010E+02 -0.27119684388E+02  0.47787271200E+02  0.20000000709E+02 0.  0.
         12    1    1    2    0    0  0.23901865776E+02 -0.24017635010E+02  0.27119684388E+02  0.43400728800E+02  0.00000000000E+00 0. -1.
         11    1    3    3    0    0  0.51603432721E+00  0.44462233390E+01 -0.17503122020E+00  0.44794898813E+01  0.51100000000E-03 0. -1.
        -11    1    3    3    0    0 -0.22406711834E+02  0.11526992835E+02 -0.17179473619E+02  0.30496993509E+02  0.51100000000E-03 0.  1.
        -12    1    3    3    0    0 -0.20111882694E+01  0.80444188365E+01 -0.97651795489E+01  0.12810787809E+02  0.00000000000E+00 0.  1.
</event>
<event>
 7    1  0.2751796E-010  0.4778726E+02  0.7816164E-02  0.1312668E+00
        -11   -1    0    0    0    0  0.00000000000E+00  0.00000000000E+00  0.45593999997E+02  0.45594000000E+02  0.51100000000E-03 0.  1.
         11   -1    0    0    0    0 -0.00000000000E+00 -0.00000000000E+00 -0.45593999997E+02  0.45594000000E+02  0.51100000000E-03 0. -1.
    9900012    2    1    2    0    0 -0.92590857487E+01  0.10972716883E+02  0.40957209853E+02  0.47787260103E+02  0.19999950114E+02 0.  0.
         12    1    1    2    0    0  0.92590857487E+01 -0.10972716883E+02 -0.40957209853E+02  0.43400739897E+02  0.00000000000E+00 0. -1.
         11    1    3    3    0    0 -0.44857884093E+01 -0.33040314221E+01  0.52922818728E+01  0.76842155730E+01  0.51100000000E-03 0. -1.
        -11    1    3    3    0    0 -0.13231486146E+01  0.11386630530E+02  0.32854581307E+02  0.34796976739E+02  0.51100000000E-03 0.  1.
         12    1    3    3    0    0 -0.34501487249E+01  0.28901177753E+01  0.28103466733E+01  0.53060677911E+01  0.00000000000E+00 0. -1.
</event>
<event>
 7    1  0.2751796E-010  0.4778727E+02  0.7816164E-02  0.1312668E+00
        -11   -1    0    0    0    0  0.00000000000E+00  0.00000000000E+00  0.45593999997E+02  0.45594000000E+02  0.51100000000E-03 0.  1.
         11   -1    0    0    0    0 -0.00000000000E+00 -0.00000000000E+00 -0.45593999997E+02  0.45594000000E+02  0.51100000000E-03 0. -1.
    9900012    2    1    2    0    0 -0.97566871284E+01  0.11809661308E+02  0.40607417776E+02  0.47787269334E+02  0.19999992202E+02 0.  0.
         12    1    1    2    0    0  0.97566871284E+01 -0.11809661308E+02 -0.40607417776E+02  0.43400730666E+02  0.00000000000E+00 0. -1.
         11    1    3    3    0    0 -0.63792884729E+01 -0.12680890818E+01  0.20552531702E+02  0.21557131789E+02  0.51100000000E-03 0. -1.
        -11    1    3    3    0    0  0.16720812979E+01  0.11117553028E+02  0.11335333541E+02  0.15965137893E+02  0.51100000000E-03 0.  1.
        -12    1    3    3    0    0 -0.50494799534E+01  0.19601973618E+01  0.87195525327E+01  0.10264999653E+02  0.00000000000E+00 0.  1.
</event>
<event>
 7    1  0.2751796E-010  0.4778727E+02  0.7816164E-02  0.1312668E+00
        -11   -1    0    0    0    0  0.00000000000E+00  0.00000000000E+00  0.45593999997E+02  0.45594000000E+02  0.51100000000E-03 0.  1.
         11   -1    0    0    0    0 -0.00000000000E+00 -0.00000000000E+00 -0.45593999997E+02  0.45594000000E+02  0.51100000000E-03 0. -1.
    9900012    2    1    2    0    0 -0.43026486815E+02 -0.15805763865E+00 -0.56850611117E+01  0.47787268788E+02  0.19999989713E+02 0.  0.
         12    1    1    2    0    0  0.43026486815E+02  0.15805763865E+00  0.56850611117E+01  0.43400731212E+02  0.00000000000E+00 0. -1.
         11    1    3    3    0    0 -0.72341618427E+01 -0.50743353948E+01  0.26530053728E+01  0.92260725683E+01  0.51100000000E-03 0. -1.
        -11    1    3    3    0    0 -0.31416852884E+01  0.17914744529E+01  0.20481055570E+01  0.41562367353E+01  0.51100000000E-03 0.  1.
         12    1    3    3    0    0 -0.32650639684E+02  0.31248033033E+01 -0.10386172041E+02  0.34404959485E+02  0.00000000000E+00 0. -1.
</event>
<event>
 7    1  0.2751796E-010  0.4778727E+02  0.7816164E-02  0.1312668E+00
        -11   -1    0    0    0    0  0.00000000000E+00  0.00000000000E+00  0.45593999997E+02  0.45594000000E+02  0.51100000000E-03 0. -1.
         11   -1    0    0    0    0 -0.00000000000E+00 -0.00000000000E+00 -0.45593999997E+02  0.45594000000E+02  0.51100000000E-03 0.  1.
    9900012    2    1    2    0    0  0.28496051503E+02 -0.29586757909E+02 -0.14007929093E+02  0.47787271062E+02  0.20000000080E+02 0.  0.
         12    1    1    2    0    0 -0.28496051503E+02  0.29586757909E+02  0.14007929093E+02  0.43400728938E+02  0.00000000000E+00 0. -1.
         11    1    3    3    0    0  0.59530498935E+01 -0.10491588743E+02 -0.13147599815E+02  0.17842971125E+02  0.51100000000E-03 0. -1.
        -11    1    3    3    0    0  0.12993777711E+02 -0.12877376112E+02  0.13240571017E+01  0.18341706633E+02  0.51100000000E-03 0.  1.
         12    1    3    3    0    0  0.95492238986E+01 -0.62177930549E+01 -0.21843863791E+01  0.11602593305E+02  0.00000000000E+00 0. -1.
</event>
<event>
 7    1  0.2751796E-010  0.4778727E+02  0.7816164E-02  0.1312668E+00
        -11   -1    0    0    0    0  0.00000000000E+00  0.00000000000E+00  0.45593999997E+02  0.45594000000E+02  0.51100000000E-03 0.  1.
         11   -1    0    0    0    0 -0.00000000000E+00 -0.00000000000E+00 -0.45593999997E+02  0.45594000000E+02  0.51100000000E-03 0. -1.
    9900012    2    1    2    0    0 -0.32666750185E+02  0.26304659781E+02 -0.11161166152E+02  0.47787270470E+02  0.19999997381E+02 0.  0.
         12    1    1    2    0    0  0.32666750185E+02 -0.26304659781E+02  0.11161166152E+02  0.43400729530E+02  0.00000000000E+00 0. -1.
         11    1    3    3    0    0 -0.78740187957E+01  0.14754334659E+02 -0.46669571519E+01  0.17362921774E+02  0.51100000000E-03 0.  1.
        -11    1    3    3    0    0 -0.24455084479E+02  0.10524428656E+02 -0.86662982138E+01  0.27998562113E+02  0.51100000000E-03 0. -1.
         12    1    3    3    0    0 -0.33764691048E+00  0.10258964667E+01  0.21720892134E+01  0.24257865833E+01  0.00000000000E+00 0. -1.
</event>
<event>
 7    1  0.2751796E-010  0.4778724E+02  0.7816164E-02  0.1312668E+00
        -11   -1    0    0    0    0  0.00000000000E+00  0.00000000000E+00  0.45593999997E+02  0.45594000000E+02  0.51100000000E-03 0. -1.
         11   -1    0    0    0    0 -0.00000000000E+00 -0.00000000000E+00 -0.45593999997E+02  0.45594000000E+02  0.51100000000E-03 0.  1.
    9900012    2    1    2    0    0  0.40348168022E+02  0.86419414673E+01  0.13452443981E+02  0.47787238899E+02  0.19999853435E+02 0.  0.
         12    1    1    2    0    0 -0.40348168022E+02 -0.86419414673E+01 -0.13452443981E+02  0.43400761101E+02  0.00000000000E+00 0. -1.
         11    1    3    3    0    0  0.56125697906E+01  0.24654943268E+01  0.48296421222E+01  0.78041684515E+01  0.51100000000E-03 0. -1.
        -11    1    3    3    0    0  0.19469195223E+02  0.11392694277E+02  0.23736849439E+01  0.22682094833E+02  0.51100000000E-03 0.  1.
        -12    1    3    3    0    0  0.15266403008E+02 -0.52162471361E+01  0.62491169149E+01  0.17300975615E+02  0.00000000000E+00 0.  1.
</event>
<event>
 7    1  0.2751796E-010  0.4778727E+02  0.7816164E-02  0.1312668E+00
        -11   -1    0    0    0    0  0.00000000000E+00  0.00000000000E+00  0.45593999997E+02  0.45594000000E+02  0.51100000000E-03 0.  1.
         11   -1    0    0    0    0 -0.00000000000E+00 -0.00000000000E+00 -0.45593999997E+02  0.45594000000E+02  0.51100000000E-03 0. -1.
    9900012    2    1    2    0    0 -0.73484631926E+01  0.42647189774E+02  0.32925168975E+01  0.47787269886E+02  0.19999994718E+02 0.  0.
         12    1    1    2    0    0  0.73484631926E+01 -0.42647189774E+02 -0.32925168975E+01  0.43400730114E+02  0.00000000000E+00 0. -1.
         11    1    3    3    0    0 -0.80378583850E+01  0.25779250282E+02 -0.35712836076E+01  0.27238410001E+02  0.51100000000E-03 0. -1.
        -11    1    3    3    0    0  0.13942302942E+01  0.11574961407E+02 -0.24109208908E+00  0.11661120672E+02  0.51100000000E-03 0.  1.
         12    1    3    3    0    0 -0.70483510181E+00  0.52929780851E+01  0.71048925942E+01  0.88877392122E+01  0.00000000000E+00 0. -1.
</event>
<event>
 7    1  0.2751796E-010  0.4778728E+02  0.7816164E-02  0.1312668E+00
        -11   -1    0    0    0    0  0.00000000000E+00  0.00000000000E+00  0.45593999997E+02  0.45594000000E+02  0.51100000000E-03 0.  1.
         11   -1    0    0    0    0 -0.00000000000E+00 -0.00000000000E+00 -0.45593999997E+02  0.45594000000E+02  0.51100000000E-03 0. -1.
    9900012    2    1    2    0    0  0.38008198434E+02 -0.10970837154E+02  0.17850503640E+02  0.47787275395E+02  0.20000019837E+02 0.  0.
         12    1    1    2    0    0 -0.38008198434E+02  0.10970837154E+02 -0.17850503640E+02  0.43400724605E+02  0.00000000000E+00 0. -1.
         11    1    3    3    0    0  0.15106142547E+02 -0.94644570486E+00  0.20005610681E+01  0.15267401448E+02  0.51100000000E-03 0. -1.
        -11    1    3    3    0    0  0.49990166844E+01 -0.32982445428E+01  0.11410167480E+02  0.12886446642E+02  0.51100000000E-03 0.  1.
        -12    1    3    3    0    0  0.17903039202E+02 -0.67261469064E+01  0.44397750916E+01  0.19633427305E+02  0.00000000000E+00 0.  1.
</event>
<event>
 7    1  0.2751796E-010  0.4778727E+02  0.7816164E-02  0.1312668E+00
        -11   -1    0    0    0    0  0.00000000000E+00  0.00000000000E+00  0.45593999997E+02  0.45594000000E+02  0.51100000000E-03 0.  1.
         11   -1    0    0    0    0 -0.00000000000E+00 -0.00000000000E+00 -0.45593999997E+02  0.45594000000E+02  0.51100000000E-03 0. -1.
    9900012    2    1    2    0    0  0.65110831469E+01 -0.83694461677E+01  0.42085411514E+02  0.47787266191E+02  0.19999977871E+02 0.  0.
         12    1    1    2    0    0 -0.65110831469E+01  0.83694461677E+01 -0.42085411514E+02  0.43400733809E+02  0.00000000000E+00 0. -1.
         11    1    3    3    0    0 -0.44561096587E+01 -0.14369504957E+01  0.25302447992E+01  0.53220183222E+01  0.51100000000E-03 0. -1.
        -11    1    3    3    0    0  0.77310863627E+01 -0.70386812757E+01  0.19273063313E+02  0.21926324365E+02  0.51100000000E-03 0.  1.
         12    1    3    3    0    0  0.32361064428E+01  0.10618560362E+00  0.20282103401E+02  0.20538923503E+02  0.00000000000E+00 0. -1.
</event>
<event>
 7    1  0.2751796E-010  0.4778727E+02  0.7816164E-02  0.1312668E+00
        -11   -1    0    0    0    0  0.00000000000E+00  0.00000000000E+00  0.45593999997E+02  0.45594000000E+02  0.51100000000E-03 0.  1.
         11   -1    0    0    0    0 -0.00000000000E+00 -0.00000000000E+00 -0.45593999997E+02  0.45594000000E+02  0.51100000000E-03 0. -1.
    9900012    2    1    2    0    0  0.38792479263E+02 -0.22324215689E+01  0.19333471436E+02  0.47787271075E+02  0.20000000141E+02 0.  0.
         12    1    1    2    0    0 -0.38792479263E+02  0.22324215689E+01 -0.19333471436E+02  0.43400728925E+02  0.00000000000E+00 0. -1.
         11    1    3    3    0    0  0.41839763825E+01 -0.48610190731E+01 -0.44712225977E+00  0.64292366090E+01  0.51100000000E-03 0. -1.
        -11    1    3    3    0    0  0.15378973436E+02 -0.34091376222E+01  0.56162606144E+01  0.16723559036E+02  0.51100000000E-03 0.  1.
         12    1    3    3    0    0  0.19229529444E+02  0.60377351264E+01  0.14164333081E+02  0.24634475431E+02  0.00000000000E+00 0. -1.
</event>
<event>
 7    1  0.2751796E-010  0.4778727E+02  0.7816164E-02  0.1312668E+00
        -11   -1    0    0    0    0  0.00000000000E+00  0.00000000000E+00  0.45593999997E+02  0.45594000000E+02  0.51100000000E-03 0.  1.
         11   -1    0    0    0    0 -0.00000000000E+00 -0.00000000000E+00 -0.45593999997E+02  0.45594000000E+02  0.51100000000E-03 0. -1.
    9900012    2    1    2    0    0 -0.11182460421E+02 -0.36459664201E+02  0.20718801352E+02  0.47787271156E+02  0.20000000507E+02 0.  0.
         12    1    1    2    0    0  0.11182460421E+02  0.36459664201E+02 -0.20718801352E+02  0.43400728844E+02  0.00000000000E+00 0. -1.
         11    1    3    3    0    0 -0.80831245888E+01 -0.18516480213E+02  0.51340767477E+00  0.20210406485E+02  0.51100000000E-03 0. -1.
        -11    1    3    3    0    0 -0.20569301398E+01 -0.37849583741E+01  0.28978778280E+01  0.51917788532E+01  0.51100000000E-03 0.  1.
         12    1    3    3    0    0 -0.10424056923E+01 -0.14158225615E+02  0.17307515849E+02  0.22385085817E+02  0.00000000000E+00 0. -1.
</event>
<event>
 7    1  0.2751796E-010  0.4778727E+02  0.7816164E-02  0.1312668E+00
        -11   -1    0    0    0    0  0.00000000000E+00  0.00000000000E+00  0.45593999997E+02  0.45594000000E+02  0.51100000000E-03 0.  1.
         11   -1    0    0    0    0 -0.00000000000E+00 -0.00000000000E+00 -0.45593999997E+02  0.45594000000E+02  0.51100000000E-03 0. -1.
    9900012    2    1    2    0    0 -0.40252472478E+02  0.85268105080E+00  0.16206008508E+02  0.47787270544E+02  0.19999997716E+02 0.  0.
         12    1    1    2    0    0  0.40252472478E+02 -0.85268105080E+00 -0.16206008508E+02  0.43400729456E+02  0.00000000000E+00 0. -1.
         11    1    3    3    0    0 -0.18796207217E+02  0.93154008312E+01  0.52731438877E+01  0.21630537329E+02  0.51100000000E-03 0. -1.
        -11    1    3    3    0    0 -0.17547799492E+02 -0.52211878318E+01  0.65356966210E+01  0.19439686211E+02  0.51100000000E-03 0.  1.
         12    1    3    3    0    0 -0.39084657688E+01 -0.32415319487E+01  0.43971679997E+01  0.67170470043E+01  0.00000000000E+00 0. -1.
</event>
<event>
 7    1  0.2751796E-010  0.4778727E+02  0.7816164E-02  0.1312668E+00
        -11   -1    0    0    0    0  0.00000000000E+00  0.00000000000E+00  0.45593999997E+02  0.45594000000E+02  0.51100000000E-03 0.  1.
         11   -1    0    0    0    0 -0.00000000000E+00 -0.00000000000E+00 -0.45593999997E+02  0.45594000000E+02  0.51100000000E-03 0. -1.
    9900012    2    1    2    0    0  0.10901415963E+02 -0.40463605120E+02  0.11290665052E+02  0.47787270437E+02  0.19999997231E+02 0.  0.
         12    1    1    2    0    0 -0.10901415963E+02  0.40463605120E+02 -0.11290665052E+02  0.43400729563E+02  0.00000000000E+00 0. -1.
         11    1    3    3    0    0  0.31711391110E+01 -0.27997470862E+01 -0.28532354384E+01  0.51025150403E+01  0.51100000000E-03 0. -1.
        -11    1    3    3    0    0 -0.59982503838E+00 -0.25213553381E+02  0.10105777059E+02  0.27170016459E+02  0.51100000000E-03 0.  1.
         12    1    3    3    0    0  0.83301018907E+01 -0.12450304653E+02  0.40381234312E+01  0.15514738938E+02  0.00000000000E+00 0. -1.
</event>
<event>
 7    1  0.2751796E-010  0.4778724E+02  0.7816164E-02  0.1312668E+00
        -11   -1    0    0    0    0  0.00000000000E+00  0.00000000000E+00  0.45593999997E+02  0.45594000000E+02  0.51100000000E-03 0.  1.
         11   -1    0    0    0    0 -0.00000000000E+00 -0.00000000000E+00 -0.45593999997E+02  0.45594000000E+02  0.51100000000E-03 0. -1.
    9900012    2    1    2    0    0  0.82276998131E+01  0.29113048639E+02  0.31118499229E+02  0.47787243791E+02  0.19999875739E+02 0.  0.
         12    1    1    2    0    0 -0.82276998131E+01 -0.29113048639E+02 -0.31118499229E+02  0.43400756209E+02  0.00000000000E+00 0. -1.
         11    1    3    3    0    0  0.83051508468E+01  0.13338233279E+02  0.69501862548E+01  0.17181067686E+02  0.51100000000E-03 0.  1.
        -11    1    3    3    0    0  0.35637387529E+01  0.12249324696E+02  0.21172135671E+02  0.24718525817E+02  0.51100000000E-03 0. -1.
         12    1    3    3    0    0 -0.36411897866E+01  0.35254906641E+01  0.29961773032E+01  0.58876502883E+01  0.00000000000E+00 0. -1.
</event>
<event>
 7    1  0.2751796E-010  0.4778727E+02  0.7816164E-02  0.1312668E+00
        -11   -1    0    0    0    0  0.00000000000E+00  0.00000000000E+00  0.45593999997E+02  0.45594000000E+02  0.51100000000E-03 0.  1.
         11   -1    0    0    0    0 -0.00000000000E+00 -0.00000000000E+00 -0.45593999997E+02  0.45594000000E+02  0.51100000000E-03 0. -1.
    9900012    2    1    2    0    0 -0.34342906518E+01  0.25828838304E+02  0.34708790841E+02  0.47787269568E+02  0.19999993266E+02 0.  0.
         12    1    1    2    0    0  0.34342906518E+01 -0.25828838304E+02 -0.34708790841E+02  0.43400730432E+02  0.00000000000E+00 0. -1.
         11    1    3    3    0    0  0.22440245003E+01  0.80363479927E+01  0.23593636822E+01  0.86709360662E+01  0.51100000000E-03 0. -1.
        -11    1    3    3    0    0 -0.82205207812E+01  0.68184523846E+01  0.17010154576E+02  0.20085159044E+02  0.51100000000E-03 0.  1.
        -12    1    3    3    0    0  0.25422056290E+01  0.10974037926E+02  0.15339272583E+02  0.19031174458E+02  0.00000000000E+00 0.  1.
</event>
<event>
 7    1  0.2751796E-010  0.4778727E+02  0.7816164E-02  0.1312668E+00
        -11   -1    0    0    0    0  0.00000000000E+00  0.00000000000E+00  0.45593999997E+02  0.45594000000E+02  0.51100000000E-03 0.  1.
         11   -1    0    0    0    0 -0.00000000000E+00 -0.00000000000E+00 -0.45593999997E+02  0.45594000000E+02  0.51100000000E-03 0. -1.
    9900012    2    1    2    0    0 -0.25244451423E+02  0.17100203843E+02  0.30885665209E+02  0.47787267120E+02  0.19999982106E+02 0.  0.
         12    1    1    2    0    0  0.25244451423E+02 -0.17100203843E+02 -0.30885665209E+02  0.43400732880E+02  0.00000000000E+00 0. -1.
         11    1    3    3    0    0  0.21020607992E+01  0.28332507012E+00  0.55525982151E+01  0.59439279856E+01  0.51100000000E-03 0. -1.
        -11    1    3    3    0    0 -0.26164861745E+02  0.16642284910E+02  0.21256231199E+02  0.37595119393E+02  0.51100000000E-03 0.  1.
        -12    1    3    3    0    0 -0.11816504779E+01  0.17459386256E+00  0.40768357953E+01  0.42482197414E+01  0.00000000000E+00 0.  1.
</event>
<event>
 7    1  0.2751796E-010  0.4778726E+02  0.7816164E-02  0.1312668E+00
        -11   -1    0    0    0    0  0.00000000000E+00  0.00000000000E+00  0.45593999997E+02  0.45594000000E+02  0.51100000000E-03 0.  1.
         11   -1    0    0    0    0 -0.00000000000E+00 -0.00000000000E+00 -0.45593999997E+02  0.45594000000E+02  0.51100000000E-03 0. -1.
    9900012    2    1    2    0    0  0.12901076239E+02 -0.40514053560E+02  0.87061785817E+01  0.47787264413E+02  0.19999969767E+02 0.  0.
         12    1    1    2    0    0 -0.12901076239E+02  0.40514053560E+02 -0.87061785817E+01  0.43400735587E+02  0.00000000000E+00 0. -1.
         11    1    3    3    0    0  0.46043958235E+01 -0.24174931478E+01  0.54009430635E+01  0.74976609856E+01  0.51100000000E-03 0. -1.
        -11    1    3    3    0    0 -0.10959451552E+01 -0.14492243384E+02 -0.79995453268E+00  0.14555622337E+02  0.51100000000E-03 0.  1.
        -12    1    3    3    0    0  0.93926255709E+01 -0.23604317028E+02  0.41051900509E+01  0.25733981091E+02  0.00000000000E+00 0.  1.
</event>
<event>
 7    1  0.2751796E-010  0.4778727E+02  0.7816164E-02  0.1312668E+00
        -11   -1    0    0    0    0  0.00000000000E+00  0.00000000000E+00  0.45593999997E+02  0.45594000000E+02  0.51100000000E-03 0.  1.
         11   -1    0    0    0    0 -0.00000000000E+00 -0.00000000000E+00 -0.45593999997E+02  0.45594000000E+02  0.51100000000E-03 0. -1.
    9900012    2    1    2    0    0  0.16339752481E+02 -0.32180900995E+01  0.40078420723E+02  0.47787269330E+02  0.19999992185E+02 0.  0.
         12    1    1    2    0    0 -0.16339752481E+02  0.32180900995E+01 -0.40078420723E+02  0.43400730670E+02  0.00000000000E+00 0. -1.
         11    1    3    3    0    0  0.91783025837E+01  0.31802022683E+01  0.17243523563E+02  0.19791261453E+02  0.51100000000E-03 0. -1.
        -11    1    3    3    0    0 -0.18126294001E+01 -0.69125449854E+01  0.11339077032E+02  0.13403117984E+02  0.51100000000E-03 0.  1.
        -12    1    3    3    0    0  0.89740792978E+01  0.51425261751E+00  0.11495820128E+02  0.14592889893E+02  0.00000000000E+00 0.  1.
</event>
<event>
 7    1  0.2751796E-010  0.4778727E+02  0.7816164E-02  0.1312668E+00
        -11   -1    0    0    0    0  0.00000000000E+00  0.00000000000E+00  0.45593999997E+02  0.45594000000E+02  0.51100000000E-03 0. -1.
         11   -1    0    0    0    0 -0.00000000000E+00 -0.00000000000E+00 -0.45593999997E+02  0.45594000000E+02  0.51100000000E-03 0.  1.
    9900012    2    1    2    0    0 -0.16697035727E+02  0.18743998969E+01 -0.40016485908E+02  0.47787268192E+02  0.19999986997E+02 0.  0.
         12    1    1    2    0    0  0.16697035727E+02 -0.18743998969E+01  0.40016485908E+02  0.43400731808E+02  0.00000000000E+00 0. -1.
         11    1    3    3    0    0 -0.65652615240E+00  0.10746819824E+01  0.12850384980E+01  0.17992476635E+01  0.51100000000E-03 0. -1.
        -11    1    3    3    0    0 -0.51713989866E+01  0.10736075045E+01 -0.29388719729E+02  0.29859552042E+02  0.51100000000E-03 0.  1.
        -12    1    3    3    0    0 -0.10869110588E+02 -0.27388959004E+00 -0.11912804676E+02  0.16128468487E+02  0.00000000000E+00 0.  1.
</event>
<event>
 7    1  0.2751796E-010  0.4778727E+02  0.7816164E-02  0.1312668E+00
        -11   -1    0    0    0    0  0.00000000000E+00  0.00000000000E+00  0.45593999997E+02  0.45594000000E+02  0.51100000000E-03 0.  1.
         11   -1    0    0    0    0 -0.00000000000E+00 -0.00000000000E+00 -0.45593999997E+02  0.45594000000E+02  0.51100000000E-03 0. -1.
    9900012    2    1    2    0    0 -0.11567351171E+02  0.14750715611E+02  0.39143793043E+02  0.47787265468E+02  0.19999974574E+02 0.  0.
         12    1    1    2    0    0  0.11567351171E+02 -0.14750715611E+02 -0.39143793043E+02  0.43400734532E+02  0.00000000000E+00 0. -1.
         11    1    3    3    0    0 -0.16738301793E+01 -0.47175381271E+01  0.59312567379E+01  0.77612292971E+01  0.51100000000E-03 0. -1.
        -11    1    3    3    0    0 -0.97965222173E+01  0.19692090404E+02  0.32270900904E+02  0.39053313783E+02  0.51100000000E-03 0.  1.
        -12    1    3    3    0    0 -0.96998774704E-01 -0.22383666584E+00  0.94163540083E+00  0.97272238761E+00  0.00000000000E+00 0.  1.
</event>
<event>
 7    1  0.2751796E-010  0.4778727E+02  0.7816164E-02  0.1312668E+00
        -11   -1    0    0    0    0  0.00000000000E+00  0.00000000000E+00  0.45593999997E+02  0.45594000000E+02  0.51100000000E-03 0. -1.
         11   -1    0    0    0    0 -0.00000000000E+00 -0.00000000000E+00 -0.45593999997E+02  0.45594000000E+02  0.51100000000E-03 0.  1.
    9900012    2    1    2    0    0  0.27474862678E+02 -0.17042126411E+02 -0.28953771519E+02  0.47787273773E+02  0.20000012442E+02 0.  0.
         12    1    1    2    0    0 -0.27474862678E+02  0.17042126411E+02  0.28953771519E+02  0.43400726227E+02  0.00000000000E+00 0. -1.
         11    1    3    3    0    0  0.18736418105E+01 -0.12951199035E+01 -0.29839254833E+00  0.22971520569E+01  0.51100000000E-03 0. -1.
        -11    1    3    3    0    0  0.23270384088E+02 -0.50180728204E+01 -0.15738382523E+02  0.28537493147E+02  0.51100000000E-03 0.  1.
        -12    1    3    3    0    0  0.23308367799E+01 -0.10728933687E+02 -0.12916996448E+02  0.16952628569E+02  0.00000000000E+00 0.  1.
</event>
<event>
 7    1  0.2751796E-010  0.4778727E+02  0.7816164E-02  0.1312668E+00
        -11   -1    0    0    0    0  0.00000000000E+00  0.00000000000E+00  0.45593999997E+02  0.45594000000E+02  0.51100000000E-03 0. -1.
         11   -1    0    0    0    0 -0.00000000000E+00 -0.00000000000E+00 -0.45593999997E+02  0.45594000000E+02  0.51100000000E-03 0.  1.
    9900012    2    1    2    0    0 -0.13134186406E+02 -0.34349928384E+01 -0.41222775902E+02  0.47787270957E+02  0.19999999603E+02 0.  0.
         12    1    1    2    0    0  0.13134186406E+02  0.34349928384E+01  0.41222775902E+02  0.43400729043E+02  0.00000000000E+00 0. -1.
         11    1    3    3    0    0 -0.22808025413E+01 -0.42272431276E+01 -0.84678621980E+01  0.97353138192E+01  0.51100000000E-03 0. -1.
        -11    1    3    3    0    0 -0.83666327796E+01 -0.11497867846E+01 -0.33712826774E+02  0.34754528382E+02  0.51100000000E-03 0.  1.
        -12    1    3    3    0    0 -0.24867510850E+01  0.19420370738E+01  0.95791306942E+00  0.32974287564E+01  0.00000000000E+00 0.  1.
</event>
<event>
 7    1  0.2751796E-010  0.4778727E+02  0.7816164E-02  0.1312668E+00
        -11   -1    0    0    0    0  0.00000000000E+00  0.00000000000E+00  0.45593999997E+02  0.45594000000E+02  0.51100000000E-03 0.  1.
         11   -1    0    0    0    0 -0.00000000000E+00 -0.00000000000E+00 -0.45593999997E+02  0.45594000000E+02  0.51100000000E-03 0. -1.
    9900012    2    1    2    0    0 -0.89068695717E+01  0.11920067188E+02  0.40770120650E+02  0.47787273449E+02  0.20000010965E+02 0.  0.
         12    1    1    2    0    0  0.89068695717E+01 -0.11920067188E+02 -0.40770120650E+02  0.43400726551E+02  0.00000000000E+00 0. -1.
         11    1    3    3    0    0 -0.62155920119E+01  0.52258912556E+00  0.25676340782E+02  0.26423117902E+02  0.51100000000E-03 0.  1.
        -11    1    3    3    0    0  0.10447636611E+01  0.88253530973E+01  0.14183798983E+02  0.16737937216E+02  0.51100000000E-03 0. -1.
         12    1    3    3    0    0 -0.37360412210E+01  0.25721249653E+01  0.90998088512E+00  0.46262183317E+01  0.00000000000E+00 0. -1.
</event>
<event>
 7    1  0.2751796E-010  0.4778724E+02  0.7816164E-02  0.1312668E+00
        -11   -1    0    0    0    0  0.00000000000E+00  0.00000000000E+00  0.45593999997E+02  0.45594000000E+02  0.51100000000E-03 0. -1.
         11   -1    0    0    0    0 -0.00000000000E+00 -0.00000000000E+00 -0.45593999997E+02  0.45594000000E+02  0.51100000000E-03 0.  1.
    9900012    2    1    2    0    0 -0.43124499231E+02 -0.20258474751E+01  0.44496348238E+01  0.47787242610E+02  0.19999870358E+02 0.  0.
         12    1    1    2    0    0  0.43124499231E+02  0.20258474751E+01 -0.44496348238E+01  0.43400757390E+02  0.00000000000E+00 0. -1.
         11    1    3    3    0    0 -0.21113433582E+01 -0.72276007193E-02  0.51205386835E+01  0.55387489277E+01  0.51100000000E-03 0. -1.
        -11    1    3    3    0    0 -0.31736225924E+02 -0.54480994068E+01 -0.20331336966E+01  0.32264585166E+02  0.51100000000E-03 0.  1.
         12    1    3    3    0    0 -0.92769299493E+01  0.34294795325E+01  0.13622298370E+01  0.99839085170E+01  0.00000000000E+00 0. -1.
</event>
<event>
 7    1  0.2751796E-010  0.4778727E+02  0.7816164E-02  0.1312668E+00
        -11   -1    0    0    0    0  0.00000000000E+00  0.00000000000E+00  0.45593999997E+02  0.45594000000E+02  0.51100000000E-03 0.  1.
         11   -1    0    0    0    0 -0.00000000000E+00 -0.00000000000E+00 -0.45593999997E+02  0.45594000000E+02  0.51100000000E-03 0. -1.
    9900012    2    1    2    0    0  0.10831477789E+02 -0.34497125649E+02  0.24005224428E+02  0.47787269718E+02  0.19999993952E+02 0.  0.
         12    1    1    2    0    0 -0.10831477789E+02  0.34497125649E+02 -0.24005224428E+02  0.43400730282E+02  0.00000000000E+00 0. -1.
         11    1    3    3    0    0 -0.24230544622E+01 -0.12664411683E+02  0.10564791000E+02  0.16669532847E+02  0.51100000000E-03 0. -1.
        -11    1    3    3    0    0  0.13600927588E+02 -0.18922854225E+02  0.74779470031E+01  0.24474054321E+02  0.51100000000E-03 0.  1.
        -12    1    3    3    0    0 -0.34639533746E+00 -0.29098597413E+01  0.59624864254E+01  0.66436825494E+01  0.00000000000E+00 0.  1.
</event>
<event>
 7    1  0.2751796E-010  0.4778727E+02  0.7816164E-02  0.1312668E+00
        -11   -1    0    0    0    0  0.00000000000E+00  0.00000000000E+00  0.45593999997E+02  0.45594000000E+02  0.51100000000E-03 0. -1.
         11   -1    0    0    0    0 -0.00000000000E+00 -0.00000000000E+00 -0.45593999997E+02  0.45594000000E+02  0.51100000000E-03 0.  1.
    9900012    2    1    2    0    0 -0.33829834781E+02  0.44708111074E+01 -0.26817485950E+02  0.47787269293E+02  0.19999992012E+02 0.  0.
         12    1    1    2    0    0  0.33829834781E+02 -0.44708111074E+01  0.26817485950E+02  0.43400730707E+02  0.00000000000E+00 0. -1.
         11    1    3    3    0    0 -0.19910732827E+02 -0.75905248947E+00 -0.86843549157E+01  0.21735488560E+02  0.51100000000E-03 0. -1.
        -11    1    3    3    0    0 -0.51860331649E+01  0.79695513168E+01 -0.10132659056E+02  0.13895303810E+02  0.51100000000E-03 0.  1.
        -12    1    3    3    0    0 -0.87330687892E+01 -0.27396877199E+01 -0.80004719784E+01  0.12156476922E+02  0.00000000000E+00 0.  1.
</event>
<event>
 7    1  0.2751796E-010  0.4778727E+02  0.7816164E-02  0.1312668E+00
        -11   -1    0    0    0    0  0.00000000000E+00  0.00000000000E+00  0.45593999997E+02  0.45594000000E+02  0.51100000000E-03 0.  1.
         11   -1    0    0    0    0 -0.00000000000E+00 -0.00000000000E+00 -0.45593999997E+02  0.45594000000E+02  0.51100000000E-03 0. -1.
    9900012    2    1    2    0    0  0.15991769565E+02 -0.12788093506E+02  0.38266842507E+02  0.47787271149E+02  0.20000000479E+02 0.  0.
         12    1    1    2    0    0 -0.15991769565E+02  0.12788093506E+02 -0.38266842507E+02  0.43400728851E+02  0.00000000000E+00 0. -1.
         11    1    3    3    0    0 -0.16930673448E+00 -0.60912055363E+01  0.18687226935E+02  0.19655632792E+02  0.51100000000E-03 0. -1.
        -11    1    3    3    0    0  0.17197352336E+02 -0.50710858343E+01  0.18987144318E+02  0.26114679560E+02  0.51100000000E-03 0.  1.
         12    1    3    3    0    0 -0.10362760362E+01 -0.16258021352E+01  0.59247125322E+00  0.20169587978E+01  0.00000000000E+00 0. -1.
</event>
<event>
 7    1  0.2751796E-010  0.4778727E+02  0.7816164E-02  0.1312668E+00
        -11   -1    0    0    0    0  0.00000000000E+00  0.00000000000E+00  0.45593999997E+02  0.45594000000E+02  0.51100000000E-03 0.  1.
         11   -1    0    0    0    0 -0.00000000000E+00 -0.00000000000E+00 -0.45593999997E+02  0.45594000000E+02  0.51100000000E-03 0. -1.
    9900012    2    1    2    0    0  0.21584252516E+02  0.28937568632E+02  0.24090670930E+02  0.47787271194E+02  0.20000000684E+02 0.  0.
         12    1    1    2    0    0 -0.21584252516E+02 -0.28937568632E+02 -0.24090670930E+02  0.43400728806E+02  0.00000000000E+00 0. -1.
         11    1    3    3    0    0  0.74447206699E+01  0.17300719653E+02  0.12891873167E+02  0.22824091666E+02  0.51100000000E-03 0. -1.
        -11    1    3    3    0    0  0.77599477510E+01  0.11670088336E+02  0.12106086554E+02  0.18519316477E+02  0.51100000000E-03 0.  1.
         12    1    3    3    0    0  0.63795840948E+01 -0.33239357317E-01 -0.90728879009E+00  0.64438630515E+01  0.00000000000E+00 0. -1.
</event>
<event>
 7    1  0.2751796E-010  0.4778721E+02  0.7816164E-02  0.1312668E+00
        -11   -1    0    0    0    0  0.00000000000E+00  0.00000000000E+00  0.45593999997E+02  0.45594000000E+02  0.51100000000E-03 0. -1.
         11   -1    0    0    0    0 -0.00000000000E+00 -0.00000000000E+00 -0.45593999997E+02  0.45594000000E+02  0.51100000000E-03 0.  1.
    9900012    2    1    2    0    0  0.39576059354E+02 -0.16505272048E+02 -0.67037465176E+01  0.47787208570E+02  0.19999715151E+02 0.  0.
         12    1    1    2    0    0 -0.39576059354E+02  0.16505272048E+02  0.67037465176E+01  0.43400791430E+02  0.00000000000E+00 0. -1.
         11    1    3    3    0    0 -0.98275425874E+00 -0.25132189550E+01 -0.74769733210E+00  0.28002012447E+01  0.51100000000E-03 0. -1.
        -11    1    3    3    0    0  0.32676319997E+02 -0.74102504496E+01 -0.81571832785E+01  0.34484682681E+02  0.51100000000E-03 0.  1.
         12    1    3    3    0    0  0.78824936159E+01 -0.65818026432E+01  0.22011340930E+01  0.10502324644E+02  0.00000000000E+00 0. -1.
</event>
<event>
 7    1  0.2751796E-010  0.4778727E+02  0.7816164E-02  0.1312668E+00
        -11   -1    0    0    0    0  0.00000000000E+00  0.00000000000E+00  0.45593999997E+02  0.45594000000E+02  0.51100000000E-03 0. -1.
         11   -1    0    0    0    0 -0.00000000000E+00 -0.00000000000E+00 -0.45593999997E+02  0.45594000000E+02  0.51100000000E-03 0.  1.
    9900012    2    1    2    0    0  0.27225556944E+02 -0.32474242119E+02 -0.93710173866E+01  0.47787270525E+02  0.19999997631E+02 0.  0.
         12    1    1    2    0    0 -0.27225556944E+02  0.32474242119E+02  0.93710173866E+01  0.43400729475E+02  0.00000000000E+00 0. -1.
         11    1    3    3    0    0 -0.32931371599E+00 -0.79592507371E+01 -0.21053558145E+01  0.82395778524E+01  0.51100000000E-03 0. -1.
        -11    1    3    3    0    0  0.23364058110E+02 -0.13373439647E+02 -0.59601507902E+01  0.27572658506E+02  0.51100000000E-03 0.  1.
        -12    1    3    3    0    0  0.41908125497E+01 -0.11141551735E+02 -0.13055107820E+01  0.11975034167E+02  0.00000000000E+00 0.  1.
</event>
<event>
 7    1  0.2751796E-010  0.4778726E+02  0.7816164E-02  0.1312668E+00
        -11   -1    0    0    0    0  0.00000000000E+00  0.00000000000E+00  0.45593999997E+02  0.45594000000E+02  0.51100000000E-03 0.  1.
         11   -1    0    0    0    0 -0.00000000000E+00 -0.00000000000E+00 -0.45593999997E+02  0.45594000000E+02  0.51100000000E-03 0. -1.
    9900012    2    1    2    0    0 -0.34236355390E+02 -0.29095528840E+01  0.26514723025E+02  0.47787261925E+02  0.19999958420E+02 0.  0.
         12    1    1    2    0    0  0.34236355390E+02  0.29095528840E+01 -0.26514723025E+02  0.43400738075E+02  0.00000000000E+00 0. -1.
         11    1    3    3    0    0  0.74722820151E+00  0.33643092584E+01  0.25815257686E+01  0.43059496428E+01  0.51100000000E-03 0. -1.
        -11    1    3    3    0    0 -0.19451552329E+02 -0.49342138636E+01  0.93689636537E+01  0.22146937365E+02  0.51100000000E-03 0.  1.
        -12    1    3    3    0    0 -0.15532031263E+02 -0.13396482789E+01  0.14564233603E+02  0.21334374917E+02  0.00000000000E+00 0.  1.
</event>
<event>
 7    1  0.2751796E-010  0.4778727E+02  0.7816164E-02  0.1312668E+00
        -11   -1    0    0    0    0  0.00000000000E+00  0.00000000000E+00  0.45593999997E+02  0.45594000000E+02  0.51100000000E-03 0.  1.
         11   -1    0    0    0    0 -0.00000000000E+00 -0.00000000000E+00 -0.45593999997E+02  0.45594000000E+02  0.51100000000E-03 0. -1.
    9900012    2    1    2    0    0  0.23452832267E+02  0.12385425784E+02  0.34353881671E+02  0.47787270754E+02  0.19999998677E+02 0.  0.
         12    1    1    2    0    0 -0.23452832267E+02 -0.12385425784E+02 -0.34353881671E+02  0.43400729246E+02  0.00000000000E+00 0. -1.
         11    1    3    3    0    0  0.44403640066E+01 -0.18582574413E+01  0.13360593663E+01  0.49954987859E+01  0.51100000000E-03 0. -1.
        -11    1    3    3    0    0  0.14342171263E+02  0.11729732175E+02  0.32567189142E+02  0.37468737667E+02  0.51100000000E-03 0.  1.
        -12    1    3    3    0    0  0.46702969977E+01  0.25139510505E+01  0.45063316199E+00  0.53230343018E+01  0.00000000000E+00 0.  1.
</event>
<event>
 7    1  0.2751796E-010  0.4778724E+02  0.7816164E-02  0.1312668E+00
        -11   -1    0    0    0    0  0.00000000000E+00  0.00000000000E+00  0.45593999997E+02  0.45594000000E+02  0.51100000000E-03 0.  1.
         11   -1    0    0    0    0 -0.00000000000E+00 -0.00000000000E+00 -0.45593999997E+02  0.45594000000E+02  0.51100000000E-03 0. -1.
    9900012    2    1    2    0    0 -0.25206654148E+02 -0.17491313997E+02  0.30696972756E+02  0.47787244073E+02  0.19999877025E+02 0.  0.
         12    1    1    2    0    0  0.25206654148E+02  0.17491313997E+02 -0.30696972756E+02  0.43400755927E+02  0.00000000000E+00 0. -1.
         11    1    3    3    0    0 -0.14643976608E+02 -0.16373240164E+02  0.18119474990E+02  0.28475329999E+02  0.51100000000E-03 0. -1.
        -11    1    3    3    0    0 -0.71634776582E+01  0.27095860182E+01  0.11895149420E+02  0.14147503262E+02  0.51100000000E-03 0.  1.
        -12    1    3    3    0    0 -0.33991998822E+01 -0.38276598507E+01  0.68234834550E+00  0.51644108122E+01  0.00000000000E+00 0.  1.
</event>
<event>
 7    1  0.2751796E-010  0.4778729E+02  0.7816164E-02  0.1312668E+00
        -11   -1    0    0    0    0  0.00000000000E+00  0.00000000000E+00  0.45593999997E+02  0.45594000000E+02  0.51100000000E-03 0. -1.
         11   -1    0    0    0    0 -0.00000000000E+00 -0.00000000000E+00 -0.45593999997E+02  0.45594000000E+02  0.51100000000E-03 0.  1.
    9900012    2    1    2    0    0  0.24016564656E+02  0.25236198681E+02 -0.25883588160E+02  0.47787294502E+02  0.20000106951E+02 0.  0.
         12    1    1    2    0    0 -0.24016564656E+02 -0.25236198681E+02  0.25883588160E+02  0.43400705498E+02  0.00000000000E+00 0. -1.
         11    1    3    3    0    0  0.12467951057E+02  0.22270565002E+01 -0.90460032157E+01  0.15564053413E+02  0.51100000000E-03 0. -1.
        -11    1    3    3    0    0  0.41760228914E+01  0.16046048885E+02 -0.66968968831E+01  0.17881926075E+02  0.51100000000E-03 0.  1.
        -12    1    3    3    0    0  0.73725907078E+01  0.69630932955E+01 -0.10140688061E+02  0.14341315014E+02  0.00000000000E+00 0.  1.
</event>
<event>
 7    1  0.2751796E-010  0.4778732E+02  0.7816164E-02  0.1312668E+00
        -11   -1    0    0    0    0  0.00000000000E+00  0.00000000000E+00  0.45593999997E+02  0.45594000000E+02  0.51100000000E-03 0.  1.
         11   -1    0    0    0    0 -0.00000000000E+00 -0.00000000000E+00 -0.45593999997E+02  0.45594000000E+02  0.51100000000E-03 0. -1.
    9900012    2    1    2    0    0 -0.32052289057E+02 -0.29117490467E+02  0.29054435434E+01  0.47787319278E+02  0.20000219917E+02 0.  0.
         12    1    1    2    0    0  0.32052289057E+02  0.29117490467E+02 -0.29054435434E+01  0.43400680722E+02  0.00000000000E+00 0. -1.
         11    1    3    3    0    0 -0.22261642581E+01 -0.30671477063E+01 -0.11671201554E+01  0.39655229257E+01  0.51100000000E-03 0. -1.
        -11    1    3    3    0    0 -0.31094841755E+02 -0.19056755937E+02  0.42152170218E+01  0.36712629781E+02  0.51100000000E-03 0.  1.
        -12    1    3    3    0    0  0.12687169561E+01 -0.69935868236E+01 -0.14265332298E+00  0.71091665717E+01  0.00000000000E+00 0.  1.
</event>
<event>
 7    1  0.2751796E-010  0.4778730E+02  0.7816164E-02  0.1312668E+00
        -11   -1    0    0    0    0  0.00000000000E+00  0.00000000000E+00  0.45593999997E+02  0.45594000000E+02  0.51100000000E-03 0.  1.
         11   -1    0    0    0    0 -0.00000000000E+00 -0.00000000000E+00 -0.45593999997E+02  0.45594000000E+02  0.51100000000E-03 0. -1.
    9900012    2    1    2    0    0 -0.42668876489E+02  0.67966045892E+01 -0.40979904302E+01  0.47787304379E+02  0.20000151986E+02 0.  0.
         12    1    1    2    0    0  0.42668876489E+02 -0.67966045892E+01  0.40979904302E+01  0.43400695621E+02  0.00000000000E+00 0. -1.
         11    1    3    3    0    0 -0.54315643977E+01  0.94784994408E+00 -0.15991251100E+01  0.57408634108E+01  0.51100000000E-03 0. -1.
        -11    1    3    3    0    0  0.59524145357E+00 -0.23397724269E+01 -0.23041716336E+01  0.33373724059E+01  0.51100000000E-03 0.  1.
        -12    1    3    3    0    0 -0.37832553545E+02  0.81885270720E+01 -0.19469368664E+00  0.38709068563E+02  0.00000000000E+00 0.  1.
</event>
<event>
 7    1  0.2751796E-010  0.4778727E+02  0.7816164E-02  0.1312668E+00
        -11   -1    0    0    0    0  0.00000000000E+00  0.00000000000E+00  0.45593999997E+02  0.45594000000E+02  0.51100000000E-03 0. -1.
         11   -1    0    0    0    0 -0.00000000000E+00 -0.00000000000E+00 -0.45593999997E+02  0.45594000000E+02  0.51100000000E-03 0.  1.
    9900012    2    1    2    0    0 -0.19891816000E+02  0.22184924160E+02 -0.31555791973E+02  0.47787271771E+02  0.20000003314E+02 0.  0.
         12    1    1    2    0    0  0.19891816000E+02 -0.22184924160E+02  0.31555791973E+02  0.43400728229E+02  0.00000000000E+00 0. -1.
         11    1    3    3    0    0 -0.10589468399E+01  0.60167747977E+00  0.26254180298E+01  0.28941672881E+01  0.51100000000E-03 0. -1.
        -11    1    3    3    0    0 -0.11369190768E+02  0.16621955207E+02 -0.23972500304E+02  0.31308603685E+02  0.51100000000E-03 0.  1.
         12    1    3    3    0    0 -0.74636783918E+01  0.49612914725E+01 -0.10208709699E+02  0.13584500798E+02  0.00000000000E+00 0. -1.
</event>
<event>
 7    1  0.2751796E-010  0.4778727E+02  0.7816164E-02  0.1312668E+00
        -11   -1    0    0    0    0  0.00000000000E+00  0.00000000000E+00  0.45593999997E+02  0.45594000000E+02  0.51100000000E-03 0. -1.
         11   -1    0    0    0    0 -0.00000000000E+00 -0.00000000000E+00 -0.45593999997E+02  0.45594000000E+02  0.51100000000E-03 0.  1.
    9900012    2    1    2    0    0 -0.13734917952E+02 -0.12523438928E+02 -0.39219111838E+02  0.47787271583E+02  0.20000002457E+02 0.  0.
         12    1    1    2    0    0  0.13734917952E+02  0.12523438928E+02  0.39219111838E+02  0.43400728417E+02  0.00000000000E+00 0. -1.
         11    1    3    3    0    0 -0.13267492458E+02 -0.10349097349E+02 -0.16185224340E+02  0.23347198103E+02  0.51100000000E-03 0. -1.
        -11    1    3    3    0    0 -0.24165588542E+01 -0.44448765834E+01 -0.16396755843E+02  0.17159553810E+02  0.51100000000E-03 0.  1.
         12    1    3    3    0    0  0.19491333596E+01  0.22705350045E+01 -0.66371316555E+01  0.72805196705E+01  0.00000000000E+00 0. -1.
</event>
<event>
 7    1  0.2751796E-010  0.4778729E+02  0.7816164E-02  0.1312668E+00
        -11   -1    0    0    0    0  0.00000000000E+00  0.00000000000E+00  0.45593999997E+02  0.45594000000E+02  0.51100000000E-03 0.  1.
         11   -1    0    0    0    0 -0.00000000000E+00 -0.00000000000E+00 -0.45593999997E+02  0.45594000000E+02  0.51100000000E-03 0. -1.
    9900012    2    1    2    0    0  0.36581623985E+02 -0.18629659312E+02  0.14083401961E+02  0.47787289980E+02  0.20000086332E+02 0.  0.
         12    1    1    2    0    0 -0.36581623985E+02  0.18629659312E+02 -0.14083401961E+02  0.43400710020E+02  0.00000000000E+00 0. -1.
         11    1    3    3    0    0  0.57072754335E+00 -0.47584396758E+01  0.60306149087E+01  0.77030380056E+01  0.51100000000E-03 0. -1.
        -11    1    3    3    0    0  0.25903460081E+02 -0.86452405932E+01  0.87737695470E+01  0.28682894927E+02  0.51100000000E-03 0.  1.
         12    1    3    3    0    0  0.10107436361E+02 -0.52259790428E+01 -0.72098249475E+00  0.11401357046E+02  0.00000000000E+00 0. -1.
</event>
<event>
 7    1  0.2751796E-010  0.4778727E+02  0.7816164E-02  0.1312668E+00
        -11   -1    0    0    0    0  0.00000000000E+00  0.00000000000E+00  0.45593999997E+02  0.45594000000E+02  0.51100000000E-03 0.  1.
         11   -1    0    0    0    0 -0.00000000000E+00 -0.00000000000E+00 -0.45593999997E+02  0.45594000000E+02  0.51100000000E-03 0. -1.
    9900012    2    1    2    0    0 -0.10194946682E+02 -0.36629924258E+02 -0.20926899348E+02  0.47787269530E+02  0.19999993095E+02 0.  0.
         12    1    1    2    0    0  0.10194946682E+02  0.36629924258E+02  0.20926899348E+02  0.43400730470E+02  0.00000000000E+00 0. -1.
         11    1    3    3    0    0  0.36951774962E+01 -0.19135488534E+01 -0.38146190816E+00  0.41786982891E+01  0.51100000000E-03 0. -1.
        -11    1    3    3    0    0 -0.54695750547E+01 -0.19052017707E+02 -0.15382280798E+02  0.25090041705E+02  0.51100000000E-03 0.  1.
         12    1    3    3    0    0 -0.84205491238E+01 -0.15664357698E+02 -0.51631566417E+01  0.18518529535E+02  0.00000000000E+00 0. -1.
</event>
<event>
 7    1  0.2751796E-010  0.4778727E+02  0.7816164E-02  0.1312668E+00
        -11   -1    0    0    0    0  0.00000000000E+00  0.00000000000E+00  0.45593999997E+02  0.45594000000E+02  0.51100000000E-03 0.  1.
         11   -1    0    0    0    0 -0.00000000000E+00 -0.00000000000E+00 -0.45593999997E+02  0.45594000000E+02  0.51100000000E-03 0. -1.
    9900012    2    1    2    0    0 -0.19993003239E+02 -0.35582299392E+02  0.14758145973E+02  0.47787273265E+02  0.20000010126E+02 0.  0.
         12    1    1    2    0    0  0.19993003239E+02  0.35582299392E+02 -0.14758145973E+02  0.43400726735E+02  0.00000000000E+00 0. -1.
         11    1    3    3    0    0 -0.91816366800E+01 -0.73297962799E+01 -0.15468933695E+01  0.11849947046E+02  0.51100000000E-03 0. -1.
        -11    1    3    3    0    0 -0.11589280594E+02 -0.28071537118E+02  0.13893345751E+02  0.33396821365E+02  0.51100000000E-03 0.  1.
        -12    1    3    3    0    0  0.77791403504E+00 -0.18096599395E+00  0.24116935919E+01  0.25405048550E+01  0.00000000000E+00 0.  1.
</event>
<event>
 7    1  0.2751796E-010  0.4778727E+02  0.7816164E-02  0.1312668E+00
        -11   -1    0    0    0    0  0.00000000000E+00  0.00000000000E+00  0.45593999997E+02  0.45594000000E+02  0.51100000000E-03 0. -1.
         11   -1    0    0    0    0 -0.00000000000E+00 -0.00000000000E+00 -0.45593999997E+02  0.45594000000E+02  0.51100000000E-03 0.  1.
    9900012    2    1    2    0    0  0.42041771963E+02 -0.29719324251E+01 -0.10357620431E+02  0.47787271053E+02  0.20000000039E+02 0.  0.
         12    1    1    2    0    0 -0.42041771963E+02  0.29719324251E+01  0.10357620431E+02  0.43400728947E+02  0.00000000000E+00 0. -1.
         11    1    3    3    0    0  0.20389398907E+02 -0.46368769310E+01 -0.14774938254E+02  0.25603261826E+02  0.51100000000E-03 0. -1.
        -11    1    3    3    0    0  0.17440769291E+02  0.11881001180E+01  0.31749436374E+01  0.17767168675E+02  0.51100000000E-03 0.  1.
         12    1    3    3    0    0  0.42116037652E+01  0.47684438794E+00  0.12423741860E+01  0.44168405522E+01  0.00000000000E+00 0. -1.
</event>
<event>
 7    1  0.2751796E-010  0.4778727E+02  0.7816164E-02  0.1312668E+00
        -11   -1    0    0    0    0  0.00000000000E+00  0.00000000000E+00  0.45593999997E+02  0.45594000000E+02  0.51100000000E-03 0.  1.
         11   -1    0    0    0    0 -0.00000000000E+00 -0.00000000000E+00 -0.45593999997E+02  0.45594000000E+02  0.51100000000E-03 0. -1.
    9900012    2    1    2    0    0  0.11858410010E+02  0.67485263284E+01  0.41200227484E+02  0.47787271431E+02  0.20000001764E+02 0.  0.
         12    1    1    2    0    0 -0.11858410010E+02 -0.67485263284E+01 -0.41200227484E+02  0.43400728569E+02  0.00000000000E+00 0. -1.
         11    1    3    3    0    0 -0.17818503621E+00  0.46796608153E+00 -0.13010735678E+01  0.13941071876E+01  0.51100000000E-03 0. -1.
        -11    1    3    3    0    0  0.11830752502E+02  0.33180959550E+01  0.41466119163E+02  0.43248300594E+02  0.51100000000E-03 0.  1.
        -12    1    3    3    0    0  0.20584254378E+00  0.29624642919E+01  0.10351818883E+01  0.31448636498E+01  0.00000000000E+00 0.  1.
</event>
<event>
 7    1  0.2751796E-010  0.4778727E+02  0.7816164E-02  0.1312668E+00
        -11   -1    0    0    0    0  0.00000000000E+00  0.00000000000E+00  0.45593999997E+02  0.45594000000E+02  0.51100000000E-03 0. -1.
         11   -1    0    0    0    0 -0.00000000000E+00 -0.00000000000E+00 -0.45593999997E+02  0.45594000000E+02  0.51100000000E-03 0.  1.
    9900012    2    1    2    0    0  0.22760568205E+02 -0.19884418847E+02 -0.31147870694E+02  0.47787269284E+02  0.19999991974E+02 0.  0.
         12    1    1    2    0    0 -0.22760568205E+02  0.19884418847E+02  0.31147870694E+02  0.43400730716E+02  0.00000000000E+00 0. -1.
         11    1    3    3    0    0 -0.19548806138E+01 -0.18771060002E+01 -0.47214985462E+01  0.54440457321E+01  0.51100000000E-03 0. -1.
        -11    1    3    3    0    0  0.17057553214E+02 -0.18070449356E+02 -0.16595863269E+02  0.29881832934E+02  0.51100000000E-03 0.  1.
         12    1    3    3    0    0  0.76578956052E+01  0.63136510126E-01 -0.98305088794E+01  0.12461390618E+02  0.00000000000E+00 0. -1.
</event>
<event>
 7    1  0.2751796E-010  0.4778727E+02  0.7816164E-02  0.1312668E+00
        -11   -1    0    0    0    0  0.00000000000E+00  0.00000000000E+00  0.45593999997E+02  0.45594000000E+02  0.51100000000E-03 0. -1.
         11   -1    0    0    0    0 -0.00000000000E+00 -0.00000000000E+00 -0.45593999997E+02  0.45594000000E+02  0.51100000000E-03 0.  1.
    9900012    2    1    2    0    0  0.58226899736E+00 -0.18987990338E+01 -0.43355263811E+02  0.47787269879E+02  0.19999994684E+02 0.  0.
         12    1    1    2    0    0 -0.58226899736E+00  0.18987990338E+01  0.43355263811E+02  0.43400730121E+02  0.00000000000E+00 0. -1.
         11    1    3    3    0    0  0.68116337602E+01  0.52411809301E+01 -0.28599764843E+02  0.29863269771E+02  0.51100000000E-03 0.  1.
        -11    1    3    3    0    0 -0.54002704206E+01 -0.36829013850E+01 -0.10620512830E+02  0.12470845050E+02  0.51100000000E-03 0. -1.
        -12    1    3    3    0    0 -0.82909434227E+00 -0.34570785789E+01 -0.41349861372E+01  0.54531550577E+01  0.00000000000E+00 0.  1.
</event>
<event>
 7    1  0.2751796E-010  0.4778726E+02  0.7816164E-02  0.1312668E+00
        -11   -1    0    0    0    0  0.00000000000E+00  0.00000000000E+00  0.45593999997E+02  0.45594000000E+02  0.51100000000E-03 0.  1.
         11   -1    0    0    0    0 -0.00000000000E+00 -0.00000000000E+00 -0.45593999997E+02  0.45594000000E+02  0.51100000000E-03 0. -1.
    9900012    2    1    2    0    0 -0.26042762153E+02 -0.23381402765E+02  0.25665314028E+02  0.47787264984E+02  0.19999972367E+02 0.  0.
         12    1    1    2    0    0  0.26042762153E+02  0.23381402765E+02 -0.25665314028E+02  0.43400735016E+02  0.00000000000E+00 0. -1.
         11    1    3    3    0    0 -0.24008526971E+01 -0.39793267811E+01 -0.32222607348E+01  0.56552718598E+01  0.51100000000E-03 0. -1.
        -11    1    3    3    0    0 -0.18076377847E+02 -0.13944046129E+02  0.22503608211E+02  0.32056266802E+02  0.51100000000E-03 0.  1.
         12    1    3    3    0    0 -0.55655316084E+01 -0.54580298554E+01  0.63839665508E+01  0.10075726322E+02  0.00000000000E+00 0. -1.
</event>
<event>
 7    1  0.2751796E-010  0.4778727E+02  0.7816164E-02  0.1312668E+00
        -11   -1    0    0    0    0  0.00000000000E+00  0.00000000000E+00  0.45593999997E+02  0.45594000000E+02  0.51100000000E-03 0.  1.
         11   -1    0    0    0    0 -0.00000000000E+00 -0.00000000000E+00 -0.45593999997E+02  0.45594000000E+02  0.51100000000E-03 0. -1.
    9900012    2    1    2    0    0 -0.21422154245E+02 -0.13698994821E+02  0.35171749544E+02  0.47787272844E+02  0.20000008207E+02 0.  0.
         12    1    1    2    0    0  0.21422154245E+02  0.13698994821E+02 -0.35171749544E+02  0.43400727156E+02  0.00000000000E+00 0. -1.
         11    1    3    3    0    0 -0.61258875082E+01 -0.10885644195E+00  0.19965159753E+01  0.64439447382E+01  0.51100000000E-03 0. -1.
        -11    1    3    3    0    0 -0.17125060290E+02 -0.93325431443E+01  0.29783687658E+02  0.35601012657E+02  0.51100000000E-03 0.  1.
        -12    1    3    3    0    0  0.18287935532E+01 -0.42575952349E+01  0.33915459115E+01  0.57423154489E+01  0.00000000000E+00 0.  1.
</event>
<event>
 7    1  0.2751796E-010  0.4778727E+02  0.7816164E-02  0.1312668E+00
        -11   -1    0    0    0    0  0.00000000000E+00  0.00000000000E+00  0.45593999997E+02  0.45594000000E+02  0.51100000000E-03 0. -1.
         11   -1    0    0    0    0 -0.00000000000E+00 -0.00000000000E+00 -0.45593999997E+02  0.45594000000E+02  0.51100000000E-03 0.  1.
    9900012    2    1    2    0    0  0.26857203295E+02 -0.10585625050E+02 -0.32407689973E+02  0.47787271943E+02  0.20000004096E+02 0.  0.
         12    1    1    2    0    0 -0.26857203295E+02  0.10585625050E+02  0.32407689973E+02  0.43400728057E+02  0.00000000000E+00 0. -1.
         11    1    3    3    0    0  0.18260164076E+01  0.96874398055E+00  0.66308572619E+00  0.21708255946E+01  0.51100000000E-03 0. -1.
        -11    1    3    3    0    0  0.22696943959E+02 -0.15008245397E+02 -0.29433361861E+02  0.40083930517E+02  0.51100000000E-03 0.  1.
        -12    1    3    3    0    0  0.23342429280E+01  0.34538763658E+01 -0.36374138382E+01  0.55325158316E+01  0.00000000000E+00 0.  1.
</event>
<event>
 7    1  0.2751796E-010  0.4778726E+02  0.7816164E-02  0.1312668E+00
        -11   -1    0    0    0    0  0.00000000000E+00  0.00000000000E+00  0.45593999997E+02  0.45594000000E+02  0.51100000000E-03 0.  1.
         11   -1    0    0    0    0 -0.00000000000E+00 -0.00000000000E+00 -0.45593999997E+02  0.45594000000E+02  0.51100000000E-03 0. -1.
    9900012    2    1    2    0    0 -0.13974556981E+02 -0.12551150671E+02  0.39125493860E+02  0.47787263879E+02  0.19999967331E+02 0.  0.
         12    1    1    2    0    0  0.13974556981E+02  0.12551150671E+02 -0.39125493860E+02  0.43400736121E+02  0.00000000000E+00 0. -1.
         11    1    3    3    0    0 -0.55460429885E+01  0.29932357638E+01  0.88639070809E+01  0.10875978217E+02  0.51100000000E-03 0. -1.
        -11    1    3    3    0    0 -0.68843544135E+01 -0.12959935221E+02  0.30545025715E+02  0.33887355353E+02  0.51100000000E-03 0.  1.
        -12    1    3    3    0    0 -0.15441595795E+01 -0.25844512145E+01 -0.28343893595E+00  0.30239303096E+01  0.00000000000E+00 0.  1.
</event>
<event>
 7    1  0.2751796E-010  0.4778729E+02  0.7816164E-02  0.1312668E+00
        -11   -1    0    0    0    0  0.00000000000E+00  0.00000000000E+00  0.45593999997E+02  0.45594000000E+02  0.51100000000E-03 0. -1.
         11   -1    0    0    0    0 -0.00000000000E+00 -0.00000000000E+00 -0.45593999997E+02  0.45594000000E+02  0.51100000000E-03 0.  1.
    9900012    2    1    2    0    0 -0.27036995706E+02  0.27717393658E+02 -0.19605316473E+02  0.47787291688E+02  0.20000094120E+02 0.  0.
         12    1    1    2    0    0  0.27036995706E+02 -0.27717393658E+02  0.19605316473E+02  0.43400708312E+02  0.00000000000E+00 0. -1.
         11    1    3    3    0    0 -0.98350125932E+01  0.77515819689E+01  0.30171834376E+01  0.12880911920E+02  0.51100000000E-03 0. -1.
        -11    1    3    3    0    0 -0.81995401349E+01  0.74669493502E+01 -0.10898036487E+02  0.15548472290E+02  0.51100000000E-03 0.  1.
         12    1    3    3    0    0 -0.90024429776E+01  0.12498862339E+02 -0.11724463424E+02  0.19357907478E+02  0.00000000000E+00 0. -1.
</event>
<event>
 7    1  0.2751796E-010  0.4778727E+02  0.7816164E-02  0.1312668E+00
        -11   -1    0    0    0    0  0.00000000000E+00  0.00000000000E+00  0.45593999997E+02  0.45594000000E+02  0.51100000000E-03 0.  1.
         11   -1    0    0    0    0 -0.00000000000E+00 -0.00000000000E+00 -0.45593999997E+02  0.45594000000E+02  0.51100000000E-03 0. -1.
    9900012    2    1    2    0    0 -0.15215746963E+02  0.30911356753E+02  0.26393035851E+02  0.47787271050E+02  0.20000000028E+02 0.  0.
         12    1    1    2    0    0  0.15215746963E+02 -0.30911356753E+02 -0.26393035851E+02  0.43400728950E+02  0.00000000000E+00 0. -1.
         11    1    3    3    0    0 -0.11646412096E+02  0.24547054482E+02  0.13643475670E+02  0.30402980563E+02  0.51100000000E-03 0. -1.
        -11    1    3    3    0    0  0.14496584032E+01  0.65760026067E+01  0.64233283616E+01  0.93061521195E+01  0.51100000000E-03 0.  1.
         12    1    3    3    0    0 -0.50189932700E+01 -0.21170033598E+00  0.63262318186E+01  0.80781383684E+01  0.00000000000E+00 0. -1.
</event>
<event>
 7    1  0.2751796E-010  0.4778727E+02  0.7816164E-02  0.1312668E+00
        -11   -1    0    0    0    0  0.00000000000E+00  0.00000000000E+00  0.45593999997E+02  0.45594000000E+02  0.51100000000E-03 0.  1.
         11   -1    0    0    0    0 -0.00000000000E+00 -0.00000000000E+00 -0.45593999997E+02  0.45594000000E+02  0.51100000000E-03 0. -1.
    9900012    2    1    2    0    0 -0.13136654739E+01  0.88201479912E+01  0.42474729287E+02  0.47787270103E+02  0.19999995710E+02 0.  0.
         12    1    1    2    0    0  0.13136654739E+01 -0.88201479912E+01 -0.42474729287E+02  0.43400729897E+02  0.00000000000E+00 0. -1.
         11    1    3    3    0    0  0.65323225192E+01  0.32606402983E+01  0.19278987130E+02  0.20615100234E+02  0.51100000000E-03 0. -1.
        -11    1    3    3    0    0 -0.37829371147E+01 -0.12458946981E+01  0.18289945719E+01  0.43827033002E+01  0.51100000000E-03 0.  1.
        -12    1    3    3    0    0 -0.40630508783E+01  0.68054023911E+01  0.21366747585E+02  0.22789466569E+02  0.00000000000E+00 0.  1.
</event>
<event>
 7    1  0.2751796E-010  0.4778727E+02  0.7816164E-02  0.1312668E+00
        -11   -1    0    0    0    0  0.00000000000E+00  0.00000000000E+00  0.45593999997E+02  0.45594000000E+02  0.51100000000E-03 0. -1.
         11   -1    0    0    0    0 -0.00000000000E+00 -0.00000000000E+00 -0.45593999997E+02  0.45594000000E+02  0.51100000000E-03 0.  1.
    9900012    2    1    2    0    0 -0.40402963053E+02  0.10635220090E+02  0.11752274320E+02  0.47787270956E+02  0.19999999598E+02 0.  0.
         12    1    1    2    0    0  0.40402963053E+02 -0.10635220090E+02 -0.11752274320E+02  0.43400729044E+02  0.00000000000E+00 0. -1.
         11    1    3    3    0    0 -0.27455534788E+01 -0.34577693055E+01 -0.14315731184E+00  0.44175475948E+01  0.51100000000E-03 0. -1.
        -11    1    3    3    0    0 -0.37358247463E+02  0.12456409692E+02  0.12884265176E+02  0.41434346686E+02  0.51100000000E-03 0.  1.
        -12    1    3    3    0    0 -0.29916211105E+00  0.16365797037E+01 -0.98883354457E+00  0.19353766750E+01  0.00000000000E+00 0.  1.
</event>
<event>
 7    1  0.2751796E-010  0.4778727E+02  0.7816164E-02  0.1312668E+00
        -11   -1    0    0    0    0  0.00000000000E+00  0.00000000000E+00  0.45593999997E+02  0.45594000000E+02  0.51100000000E-03 0.  1.
         11   -1    0    0    0    0 -0.00000000000E+00 -0.00000000000E+00 -0.45593999997E+02  0.45594000000E+02  0.51100000000E-03 0. -1.
    9900012    2    1    2    0    0  0.64098851037E+01  0.21853448615E+02  0.36945412799E+02  0.47787269934E+02  0.19999994937E+02 0.  0.
         12    1    1    2    0    0 -0.64098851037E+01 -0.21853448615E+02 -0.36945412799E+02  0.43400730066E+02  0.00000000000E+00 0. -1.
         11    1    3    3    0    0  0.28947360976E+00  0.12205705273E+01 -0.14795998706E+01  0.19397946853E+01  0.51100000000E-03 0. -1.
        -11    1    3    3    0    0  0.75846617564E+01  0.20009121814E+02  0.27687810852E+02  0.34992955288E+02  0.51100000000E-03 0.  1.
        -12    1    3    3    0    0 -0.14642502625E+01  0.62375627332E+00  0.10737201817E+02  0.10854519961E+02  0.00000000000E+00 0.  1.
</event>
<event>
 7    1  0.2751796E-010  0.4778727E+02  0.7816164E-02  0.1312668E+00
        -11   -1    0    0    0    0  0.00000000000E+00  0.00000000000E+00  0.45593999997E+02  0.45594000000E+02  0.51100000000E-03 0. -1.
         11   -1    0    0    0    0 -0.00000000000E+00 -0.00000000000E+00 -0.45593999997E+02  0.45594000000E+02  0.51100000000E-03 0.  1.
    9900012    2    1    2    0    0  0.31398739410E+02 -0.28575673364E+02  0.90096292411E+01  0.47787270008E+02  0.19999995277E+02 0.  0.
         12    1    1    2    0    0 -0.31398739410E+02  0.28575673364E+02 -0.90096292411E+01  0.43400729992E+02  0.00000000000E+00 0. -1.
         11    1    3    3    0    0  0.22504847111E+02 -0.25956018873E+02  0.13175882793E+02  0.36793843872E+02  0.51100000000E-03 0. -1.
        -11    1    3    3    0    0  0.51567359744E+01  0.48306117302E+00 -0.12502727675E+01  0.53280818557E+01  0.51100000000E-03 0.  1.
         12    1    3    3    0    0  0.37371563242E+01 -0.31027156637E+01 -0.29159807845E+01  0.56653442805E+01  0.00000000000E+00 0. -1.
</event>
<event>
 7    1  0.2751796E-010  0.4778725E+02  0.7816164E-02  0.1312668E+00
        -11   -1    0    0    0    0  0.00000000000E+00  0.00000000000E+00  0.45593999997E+02  0.45594000000E+02  0.51100000000E-03 0.  1.
         11   -1    0    0    0    0 -0.00000000000E+00 -0.00000000000E+00 -0.45593999997E+02  0.45594000000E+02  0.51100000000E-03 0. -1.
    9900012    2    1    2    0    0  0.29666243431E+02  0.21814716851E+02  0.22970783980E+02  0.47787253610E+02  0.19999920509E+02 0.  0.
         12    1    1    2    0    0 -0.29666243431E+02 -0.21814716851E+02 -0.22970783980E+02  0.43400746390E+02  0.00000000000E+00 0. -1.
         11    1    3    3    0    0  0.44064013702E+01 -0.27254921145E+01  0.26236310456E+01  0.58075916201E+01  0.51100000000E-03 0. -1.
        -11    1    3    3    0    0  0.16818258345E+02  0.10092118440E+02  0.79937907600E+01  0.21180305932E+02  0.51100000000E-03 0.  1.
         12    1    3    3    0    0  0.84415837155E+01  0.14448090525E+02  0.12353362174E+02  0.20799356058E+02  0.00000000000E+00 0. -1.
</event>
<event>
 7    1  0.2751796E-010  0.4778727E+02  0.7816164E-02  0.1312668E+00
        -11   -1    0    0    0    0  0.00000000000E+00  0.00000000000E+00  0.45593999997E+02  0.45594000000E+02  0.51100000000E-03 0. -1.
         11   -1    0    0    0    0 -0.00000000000E+00 -0.00000000000E+00 -0.45593999997E+02  0.45594000000E+02  0.51100000000E-03 0.  1.
    9900012    2    1    2    0    0 -0.18132590030E+02 -0.17679024691E+02 -0.35246057682E+02  0.47787270544E+02  0.19999997719E+02 0.  0.
         12    1    1    2    0    0  0.18132590030E+02  0.17679024691E+02  0.35246057682E+02  0.43400729456E+02  0.00000000000E+00 0. -1.
         11    1    3    3    0    0  0.64314998494E+00 -0.39300814507E+01 -0.15463135758E+01  0.42720332452E+01  0.51100000000E-03 0.  1.
        -11    1    3    3    0    0 -0.71898606517E+01  0.22735555398E+01 -0.11863405217E+02  0.14057152435E+02  0.51100000000E-03 0. -1.
        -12    1    3    3    0    0 -0.11585879363E+02 -0.16022498780E+02 -0.21836338889E+02  0.29458084864E+02  0.00000000000E+00 0.  1.
</event>
<event>
 7    1  0.2751796E-010  0.4778727E+02  0.7816164E-02  0.1312668E+00
        -11   -1    0    0    0    0  0.00000000000E+00  0.00000000000E+00  0.45593999997E+02  0.45594000000E+02  0.51100000000E-03 0.  1.
         11   -1    0    0    0    0 -0.00000000000E+00 -0.00000000000E+00 -0.45593999997E+02  0.45594000000E+02  0.51100000000E-03 0. -1.
    9900012    2    1    2    0    0  0.17072987323E+01  0.25338219915E+02  0.35194927224E+02  0.47787272359E+02  0.20000005995E+02 0.  0.
         12    1    1    2    0    0 -0.17072987323E+01 -0.25338219915E+02 -0.35194927224E+02  0.43400727641E+02  0.00000000000E+00 0. -1.
         11    1    3    3    0    0 -0.31304997452E+01 -0.55600445428E+00  0.50859531362E+00  0.32199128966E+01  0.51100000000E-03 0. -1.
        -11    1    3    3    0    0  0.30877057797E+01  0.24342299872E+02  0.34335687617E+02  0.42202143719E+02  0.51100000000E-03 0.  1.
        -12    1    3    3    0    0  0.17500926978E+01  0.15519244971E+01  0.35064429347E+00  0.23652157441E+01  0.00000000000E+00 0.  1.
</event>
<event>
 7    1  0.2751796E-010  0.4778727E+02  0.7816164E-02  0.1312668E+00
        -11   -1    0    0    0    0  0.00000000000E+00  0.00000000000E+00  0.45593999997E+02  0.45594000000E+02  0.51100000000E-03 0.  1.
         11   -1    0    0    0    0 -0.00000000000E+00 -0.00000000000E+00 -0.45593999997E+02  0.45594000000E+02  0.51100000000E-03 0. -1.
    9900012    2    1    2    0    0 -0.12512712194E+02 -0.35319860078E+02  0.21898922407E+02  0.47787270917E+02  0.19999999419E+02 0.  0.
         12    1    1    2    0    0  0.12512712194E+02  0.35319860078E+02 -0.21898922407E+02  0.43400729083E+02  0.00000000000E+00 0. -1.
         11    1    3    3    0    0 -0.13838501177E+01 -0.34523564156E+01  0.11101265472E+02  0.11707770980E+02  0.51100000000E-03 0. -1.
        -11    1    3    3    0    0 -0.68392354332E+01 -0.23756787507E+02  0.10610247588E+02  0.26902368820E+02  0.51100000000E-03 0.  1.
        -12    1    3    3    0    0 -0.42896266432E+01 -0.81107161551E+01  0.18740934600E+00  0.91771311176E+01  0.00000000000E+00 0.  1.
</event>
<event>
 7    1  0.2751796E-010  0.4778725E+02  0.7816164E-02  0.1312668E+00
        -11   -1    0    0    0    0  0.00000000000E+00  0.00000000000E+00  0.45593999997E+02  0.45594000000E+02  0.51100000000E-03 0.  1.
         11   -1    0    0    0    0 -0.00000000000E+00 -0.00000000000E+00 -0.45593999997E+02  0.45594000000E+02  0.51100000000E-03 0. -1.
    9900012    2    1    2    0    0 -0.23559212178E+02  0.17766991477E+02  0.31826446874E+02  0.47787249025E+02  0.19999899603E+02 0.  0.
         12    1    1    2    0    0  0.23559212178E+02 -0.17766991477E+02 -0.31826446874E+02  0.43400750975E+02  0.00000000000E+00 0. -1.
         11    1    3    3    0    0  0.21239213927E+01  0.25655191762E+01  0.16572865993E+01  0.37201518597E+01  0.51100000000E-03 0. -1.
        -11    1    3    3    0    0 -0.20286739209E+02  0.16672203957E+02  0.26885762552E+02  0.37581357090E+02  0.51100000000E-03 0.  1.
        -12    1    3    3    0    0 -0.53963943616E+01 -0.14707316557E+01  0.32833977232E+01  0.64857400748E+01  0.00000000000E+00 0.  1.
</event>
<event>
 7    1  0.2751796E-010  0.4778721E+02  0.7816164E-02  0.1312668E+00
        -11   -1    0    0    0    0  0.00000000000E+00  0.00000000000E+00  0.45593999997E+02  0.45594000000E+02  0.51100000000E-03 0.  1.
         11   -1    0    0    0    0 -0.00000000000E+00 -0.00000000000E+00 -0.45593999997E+02  0.45594000000E+02  0.51100000000E-03 0. -1.
    9900012    2    1    2    0    0 -0.14756636131E+02 -0.40826381647E+01  0.40610370207E+02  0.47787211843E+02  0.19999730076E+02 0.  0.
         12    1    1    2    0    0  0.14756636131E+02  0.40826381647E+01 -0.40610370207E+02  0.43400788157E+02  0.00000000000E+00 0. -1.
         11    1    3    3    0    0 -0.11444686171E+02 -0.24546045278E+01  0.18559552389E+02  0.21942263103E+02  0.51100000000E-03 0. -1.
        -11    1    3    3    0    0  0.26433322172E+01 -0.52952122703E+01  0.13883619202E+02  0.15092427260E+02  0.51100000000E-03 0.  1.
         12    1    3    3    0    0 -0.59552821780E+01  0.36671786334E+01  0.81671986161E+01  0.10752521480E+02  0.00000000000E+00 0. -1.
</event>
<event>
 7    1  0.2751796E-010  0.4778727E+02  0.7816164E-02  0.1312668E+00
        -11   -1    0    0    0    0  0.00000000000E+00  0.00000000000E+00  0.45593999997E+02  0.45594000000E+02  0.51100000000E-03 0.  1.
         11   -1    0    0    0    0 -0.00000000000E+00 -0.00000000000E+00 -0.45593999997E+02  0.45594000000E+02  0.51100000000E-03 0. -1.
    9900012    2    1    2    0    0  0.12167260837E+01  0.12656672940E+02  0.41496405851E+02  0.47787268545E+02  0.19999988603E+02 0.  0.
         12    1    1    2    0    0 -0.12167260837E+01 -0.12656672940E+02 -0.41496405851E+02  0.43400731455E+02  0.00000000000E+00 0. -1.
         11    1    3    3    0    0  0.27388116113E+01  0.29239374116E+01  0.15300462043E+01  0.42885359597E+01  0.51100000000E-03 0. -1.
        -11    1    3    3    0    0 -0.47941182012E+01  0.66523229778E+01  0.37472642786E+02  0.38359300410E+02  0.51100000000E-03 0.  1.
        -12    1    3    3    0    0  0.32720326736E+01  0.30804125506E+01  0.24937168613E+01  0.51394321751E+01  0.00000000000E+00 0.  1.
</event>
<event>
 7    1  0.2751796E-010  0.4778727E+02  0.7816164E-02  0.1312668E+00
        -11   -1    0    0    0    0  0.00000000000E+00  0.00000000000E+00  0.45593999997E+02  0.45594000000E+02  0.51100000000E-03 0. -1.
         11   -1    0    0    0    0 -0.00000000000E+00 -0.00000000000E+00 -0.45593999997E+02  0.45594000000E+02  0.51100000000E-03 0.  1.
    9900012    2    1    2    0    0  0.30700991915E+01  0.43237563795E+02 -0.21704171828E+01  0.47787272556E+02  0.20000006891E+02 0.  0.
         12    1    1    2    0    0 -0.30700991915E+01 -0.43237563795E+02  0.21704171828E+01  0.43400727444E+02  0.00000000000E+00 0. -1.
         11    1    3    3    0    0 -0.37782398243E+01  0.18045225702E+02  0.28352382263E+00  0.18438699868E+02  0.51100000000E-03 0. -1.
        -11    1    3    3    0    0  0.66915082627E+01  0.12421889782E+02  0.44960506408E+01  0.14808581978E+02  0.51100000000E-03 0.  1.
        -12    1    3    3    0    0  0.15683075314E+00  0.12770448311E+02 -0.69499916462E+01  0.14539990709E+02  0.00000000000E+00 0.  1.
</event>
<event>
 7    1  0.2751796E-010  0.4778727E+02  0.7816164E-02  0.1312668E+00
        -11   -1    0    0    0    0  0.00000000000E+00  0.00000000000E+00  0.45593999997E+02  0.45594000000E+02  0.51100000000E-03 0.  1.
         11   -1    0    0    0    0 -0.00000000000E+00 -0.00000000000E+00 -0.45593999997E+02  0.45594000000E+02  0.51100000000E-03 0. -1.
    9900012    2    1    2    0    0 -0.20707426276E+02 -0.30756457518E+02  0.22558061854E+02  0.47787270321E+02  0.19999996704E+02 0.  0.
         12    1    1    2    0    0  0.20707426276E+02  0.30756457518E+02 -0.22558061854E+02  0.43400729679E+02  0.00000000000E+00 0. -1.
         11    1    3    3    0    0  0.90207882665E+00 -0.12041919538E+00  0.62051791317E+00  0.11014943186E+01  0.51100000000E-03 0. -1.
        -11    1    3    3    0    0 -0.24641193804E+01 -0.17782408695E+02  0.73467001698E+01  0.19397421142E+02  0.51100000000E-03 0.  1.
        -12    1    3    3    0    0 -0.19145385722E+02 -0.12853629627E+02  0.14590843771E+02  0.27288354861E+02  0.00000000000E+00 0.  1.
</event>
<event>
 7    1  0.2751796E-010  0.4778727E+02  0.7816164E-02  0.1312668E+00
        -11   -1    0    0    0    0  0.00000000000E+00  0.00000000000E+00  0.45593999997E+02  0.45594000000E+02  0.51100000000E-03 0.  1.
         11   -1    0    0    0    0 -0.00000000000E+00 -0.00000000000E+00 -0.45593999997E+02  0.45594000000E+02  0.51100000000E-03 0. -1.
    9900012    2    1    2    0    0 -0.41832113989E+02 -0.65296266951E+01 -0.95426302341E+01  0.47787267548E+02  0.19999984060E+02 0.  0.
         12    1    1    2    0    0  0.41832113989E+02  0.65296266951E+01  0.95426302341E+01  0.43400732452E+02  0.00000000000E+00 0. -1.
         11    1    3    3    0    0 -0.16382635827E+02  0.67536244346E+01 -0.58240275656E+01  0.18652653886E+02  0.51100000000E-03 0. -1.
        -11    1    3    3    0    0 -0.95074742583E+01 -0.53546540918E+01 -0.29945893966E+01  0.11315120553E+02  0.51100000000E-03 0.  1.
         12    1    3    3    0    0 -0.15942003904E+02 -0.79285970379E+01 -0.72401327183E+00  0.17819493110E+02  0.00000000000E+00 0. -1.
</event>
<event>
 7    1  0.2751796E-010  0.4778725E+02  0.7816164E-02  0.1312668E+00
        -11   -1    0    0    0    0  0.00000000000E+00  0.00000000000E+00  0.45593999997E+02  0.45594000000E+02  0.51100000000E-03 0.  1.
         11   -1    0    0    0    0 -0.00000000000E+00 -0.00000000000E+00 -0.45593999997E+02  0.45594000000E+02  0.51100000000E-03 0. -1.
    9900012    2    1    2    0    0  0.63378620365E+01  0.29319185258E+02  0.31366249767E+02  0.47787254110E+02  0.19999922789E+02 0.  0.
         12    1    1    2    0    0 -0.63378620365E+01 -0.29319185258E+02 -0.31366249767E+02  0.43400745890E+02  0.00000000000E+00 0. -1.
         11    1    3    3    0    0  0.93849577246E+01  0.11808249734E+02  0.55987363904E+01  0.16089065936E+02  0.51100000000E-03 0. -1.
        -11    1    3    3    0    0 -0.22764282543E+01  0.61827867859E+01  0.13253437897E+02  0.14800763304E+02  0.51100000000E-03 0.  1.
         12    1    3    3    0    0 -0.77066743377E+00  0.11328148738E+02  0.12514075479E+02  0.16897424870E+02  0.00000000000E+00 0. -1.
</event>
<event>
 7    1  0.2751796E-010  0.4778726E+02  0.7816164E-02  0.1312668E+00
        -11   -1    0    0    0    0  0.00000000000E+00  0.00000000000E+00  0.45593999997E+02  0.45594000000E+02  0.51100000000E-03 0.  1.
         11   -1    0    0    0    0 -0.00000000000E+00 -0.00000000000E+00 -0.45593999997E+02  0.45594000000E+02  0.51100000000E-03 0. -1.
    9900012    2    1    2    0    0 -0.19584816846E+02  0.33851792320E+02  0.18817941347E+02  0.47787264860E+02  0.19999971802E+02 0.  0.
         12    1    1    2    0    0  0.19584816846E+02 -0.33851792320E+02 -0.18817941347E+02  0.43400735140E+02  0.00000000000E+00 0. -1.
         11    1    3    3    0    0 -0.85917939337E+00  0.12777016054E+02  0.45116993077E+00  0.12813816100E+02  0.51100000000E-03 0. -1.
        -11    1    3    3    0    0 -0.14898832533E+02  0.13753466980E+02  0.81956736925E+01  0.21870119623E+02  0.51100000000E-03 0.  1.
         12    1    3    3    0    0 -0.38268049201E+01  0.73213092861E+01  0.10171097724E+02  0.13103329137E+02  0.00000000000E+00 0. -1.
</event>
<event>
 7    1  0.2751796E-010  0.4778729E+02  0.7816164E-02  0.1312668E+00
        -11   -1    0    0    0    0  0.00000000000E+00  0.00000000000E+00  0.45593999997E+02  0.45594000000E+02  0.51100000000E-03 0.  1.
         11   -1    0    0    0    0 -0.00000000000E+00 -0.00000000000E+00 -0.45593999997E+02  0.45594000000E+02  0.51100000000E-03 0. -1.
    9900012    2    1    2    0    0 -0.17228368874E+02 -0.37755117939E+02  0.12702595870E+02  0.47787290714E+02  0.20000089682E+02 0.  0.
         12    1    1    2    0    0  0.17228368874E+02  0.37755117939E+02 -0.12702595870E+02  0.43400709286E+02  0.00000000000E+00 0. -1.
         11    1    3    3    0    0 -0.25911992527E+01 -0.87099142082E+01 -0.95967749409E+00  0.91377185465E+01  0.51100000000E-03 0. -1.
        -11    1    3    3    0    0 -0.34760109365E+01 -0.23164481255E+02  0.73983460324E+01  0.24564432990E+02  0.51100000000E-03 0.  1.
        -12    1    3    3    0    0 -0.11161158685E+02 -0.58807224760E+01  0.62639273315E+01  0.14085139177E+02  0.00000000000E+00 0.  1.
</event>
<event>
 7    1  0.2751796E-010  0.4778727E+02  0.7816164E-02  0.1312668E+00
        -11   -1    0    0    0    0  0.00000000000E+00  0.00000000000E+00  0.45593999997E+02  0.45594000000E+02  0.51100000000E-03 0.  1.
         11   -1    0    0    0    0 -0.00000000000E+00 -0.00000000000E+00 -0.45593999997E+02  0.45594000000E+02  0.51100000000E-03 0. -1.
    9900012    2    1    2    0    0 -0.10691020726E+02 -0.25653488590E+02  0.33335027015E+02  0.47787269279E+02  0.19999991951E+02 0.  0.
         12    1    1    2    0    0  0.10691020726E+02  0.25653488590E+02 -0.33335027015E+02  0.43400730721E+02  0.00000000000E+00 0. -1.
         11    1    3    3    0    0 -0.79924715011E+01 -0.17126462055E+02  0.30446545479E+02  0.35835561040E+02  0.51100000000E-03 0. -1.
        -11    1    3    3    0    0 -0.17862325565E+01 -0.59880643456E+01  0.54052047497E+01  0.82621897824E+01  0.51100000000E-03 0.  1.
         12    1    3    3    0    0 -0.91231666867E+00 -0.25389621897E+01 -0.25167232136E+01  0.36895184562E+01  0.00000000000E+00 0. -1.
</event>
<event>
 7    1  0.2751796E-010  0.4778728E+02  0.7816164E-02  0.1312668E+00
        -11   -1    0    0    0    0  0.00000000000E+00  0.00000000000E+00  0.45593999997E+02  0.45594000000E+02  0.51100000000E-03 0.  1.
         11   -1    0    0    0    0 -0.00000000000E+00 -0.00000000000E+00 -0.45593999997E+02  0.45594000000E+02  0.51100000000E-03 0. -1.
    9900012    2    1    2    0    0  0.26431327900E+02  0.11599843345E+01  0.34404385807E+02  0.47787280870E+02  0.20000044799E+02 0.  0.
         12    1    1    2    0    0 -0.26431327900E+02 -0.11599843345E+01 -0.34404385807E+02  0.43400719130E+02  0.00000000000E+00 0. -1.
         11    1    3    3    0    0 -0.23172064820E+00 -0.29056930953E+00  0.28811555953E+01  0.29050271613E+01  0.51100000000E-03 0. -1.
        -11    1    3    3    0    0  0.52964589963E+01 -0.58540719022E+01  0.14832535341E+02  0.16802581369E+02  0.51100000000E-03 0.  1.
        -12    1    3    3    0    0  0.21366589552E+02  0.73046255462E+01  0.16690694871E+02  0.28079672340E+02  0.00000000000E+00 0.  1.
</event>
<event>
 7    1  0.2751796E-010  0.4778730E+02  0.7816164E-02  0.1312668E+00
        -11   -1    0    0    0    0  0.00000000000E+00  0.00000000000E+00  0.45593999997E+02  0.45594000000E+02  0.51100000000E-03 0.  1.
         11   -1    0    0    0    0 -0.00000000000E+00 -0.00000000000E+00 -0.45593999997E+02  0.45594000000E+02  0.51100000000E-03 0. -1.
    9900012    2    1    2    0    0 -0.10642409907E+01  0.28701483235E+02  0.32537868161E+02  0.47787301696E+02  0.20000139754E+02 0.  0.
         12    1    1    2    0    0  0.10642409907E+01 -0.28701483235E+02 -0.32537868161E+02  0.43400698304E+02  0.00000000000E+00 0. -1.
         11    1    3    3    0    0  0.54335238355E+01  0.96083310905E+01  0.18206412412E+02  0.21291234365E+02  0.51100000000E-03 0. -1.
        -11    1    3    3    0    0 -0.24363064133E+01  0.73846177031E+01  0.11335147393E+02  0.13746044313E+02  0.51100000000E-03 0.  1.
         12    1    3    3    0    0 -0.40614584129E+01  0.11708534442E+02  0.29963083554E+01  0.12750023019E+02  0.00000000000E+00 0. -1.
</event>
<event>
 7    1  0.2751796E-010  0.4778725E+02  0.7816164E-02  0.1312668E+00
        -11   -1    0    0    0    0  0.00000000000E+00  0.00000000000E+00  0.45593999997E+02  0.45594000000E+02  0.51100000000E-03 0. -1.
         11   -1    0    0    0    0 -0.00000000000E+00 -0.00000000000E+00 -0.45593999997E+02  0.45594000000E+02  0.51100000000E-03 0.  1.
    9900012    2    1    2    0    0  0.12601364928E+02  0.27163633824E+02 -0.31416035227E+02  0.47787254961E+02  0.19999926668E+02 0.  0.
         12    1    1    2    0    0 -0.12601364928E+02 -0.27163633824E+02  0.31416035227E+02  0.43400745039E+02  0.00000000000E+00 0. -1.
         11    1    3    3    0    0 -0.14149861422E+01  0.98452987834E+01 -0.89992562689E+01  0.13413377933E+02  0.51100000000E-03 0. -1.
        -11    1    3    3    0    0  0.14172399960E+02  0.72065750499E+01 -0.14690606554E+02  0.21647299271E+02  0.51100000000E-03 0.  1.
        -12    1    3    3    0    0 -0.15604888960E+00  0.10111759991E+02 -0.77261724040E+01  0.12726577756E+02  0.00000000000E+00 0.  1.
</event>
<event>
 7    1  0.2751796E-010  0.4778727E+02  0.7816164E-02  0.1312668E+00
        -11   -1    0    0    0    0  0.00000000000E+00  0.00000000000E+00  0.45593999997E+02  0.45594000000E+02  0.51100000000E-03 0. -1.
         11   -1    0    0    0    0 -0.00000000000E+00 -0.00000000000E+00 -0.45593999997E+02  0.45594000000E+02  0.51100000000E-03 0.  1.
    9900012    2    1    2    0    0  0.37679434724E+02  0.85883583456E+01 -0.19751546696E+02  0.47787270777E+02  0.19999998779E+02 0.  0.
         12    1    1    2    0    0 -0.37679434724E+02 -0.85883583456E+01  0.19751546696E+02  0.43400729223E+02  0.00000000000E+00 0. -1.
         11    1    3    3    0    0  0.73494029795E+01  0.80052358099E+01 -0.56079568877E+01  0.12228929031E+02  0.51100000000E-03 0. -1.
        -11    1    3    3    0    0  0.26733543452E+02 -0.24415433589E+01 -0.83812224793E+01  0.28122737597E+02  0.51100000000E-03 0.  1.
        -12    1    3    3    0    0  0.35964882932E+01  0.30246658946E+01 -0.57623673292E+01  0.74356041486E+01  0.00000000000E+00 0.  1.
</event>
<event>
 7    1  0.2751796E-010  0.4778727E+02  0.7816164E-02  0.1312668E+00
        -11   -1    0    0    0    0  0.00000000000E+00  0.00000000000E+00  0.45593999997E+02  0.45594000000E+02  0.51100000000E-03 0.  1.
         11   -1    0    0    0    0 -0.00000000000E+00 -0.00000000000E+00 -0.45593999997E+02  0.45594000000E+02  0.51100000000E-03 0. -1.
    9900012    2    1    2    0    0  0.34665415784E+01 -0.39345517773E+02  0.17987125032E+02  0.47787270210E+02  0.19999996197E+02 0.  0.
         12    1    1    2    0    0 -0.34665415784E+01  0.39345517773E+02 -0.17987125032E+02  0.43400729790E+02  0.00000000000E+00 0. -1.
         11    1    3    3    0    0  0.54608430362E+00 -0.15761958473E+00 -0.24320537640E+01  0.24975863893E+01  0.51100000000E-03 0. -1.
        -11    1    3    3    0    0  0.58272671336E+01 -0.33405121493E+02  0.16359614916E+02  0.37649650526E+02  0.51100000000E-03 0.  1.
        -12    1    3    3    0    0 -0.29068098589E+01 -0.57827766948E+01  0.40595638803E+01  0.76400332955E+01  0.00000000000E+00 0.  1.
</event>
<event>
 7    1  0.2751796E-010  0.4778727E+02  0.7816164E-02  0.1312668E+00
        -11   -1    0    0    0    0  0.00000000000E+00  0.00000000000E+00  0.45593999997E+02  0.45594000000E+02  0.51100000000E-03 0.  1.
         11   -1    0    0    0    0 -0.00000000000E+00 -0.00000000000E+00 -0.45593999997E+02  0.45594000000E+02  0.51100000000E-03 0. -1.
    9900012    2    1    2    0    0  0.77790473869E+01  0.92875931299E+01  0.41675537381E+02  0.47787269818E+02  0.19999994407E+02 0.  0.
         12    1    1    2    0    0 -0.77790473869E+01 -0.92875931299E+01 -0.41675537381E+02  0.43400730182E+02  0.00000000000E+00 0. -1.
         11    1    3    3    0    0  0.21183032952E+01  0.63810567005E+01  0.39293075958E+01  0.77874611979E+01  0.51100000000E-03 0. -1.
        -11    1    3    3    0    0 -0.30581680841E+01  0.12605262167E+01  0.18673190896E+02  0.18963896669E+02  0.51100000000E-03 0.  1.
         12    1    3    3    0    0  0.87189121758E+01  0.16460102126E+01  0.19073038889E+02  0.21035911951E+02  0.00000000000E+00 0. -1.
</event>
<event>
 7    1  0.2751796E-010  0.4778727E+02  0.7816164E-02  0.1312668E+00
        -11   -1    0    0    0    0  0.00000000000E+00  0.00000000000E+00  0.45593999997E+02  0.45594000000E+02  0.51100000000E-03 0.  1.
         11   -1    0    0    0    0 -0.00000000000E+00 -0.00000000000E+00 -0.45593999997E+02  0.45594000000E+02  0.51100000000E-03 0. -1.
    9900012    2    1    2    0    0  0.29701611236E+02 -0.78799572085E+01  0.30648715759E+02  0.47787271743E+02  0.20000003183E+02 0.  0.
         12    1    1    2    0    0 -0.29701611236E+02  0.78799572085E+01 -0.30648715759E+02  0.43400728257E+02  0.00000000000E+00 0. -1.
         11    1    3    3    0    0 -0.22453066601E-01  0.23677311013E+01  0.10397387840E+01  0.25860610411E+01  0.51100000000E-03 0. -1.
        -11    1    3    3    0    0  0.19129969142E+02 -0.13040664289E+02  0.18996107722E+02  0.29947733692E+02  0.51100000000E-03 0.  1.
        -12    1    3    3    0    0  0.10594095160E+02  0.27929759793E+01  0.10612869253E+02  0.15253477009E+02  0.00000000000E+00 0.  1.
</event>
<event>
 7    1  0.2751796E-010  0.4778727E+02  0.7816164E-02  0.1312668E+00
        -11   -1    0    0    0    0  0.00000000000E+00  0.00000000000E+00  0.45593999997E+02  0.45594000000E+02  0.51100000000E-03 0.  1.
         11   -1    0    0    0    0 -0.00000000000E+00 -0.00000000000E+00 -0.45593999997E+02  0.45594000000E+02  0.51100000000E-03 0. -1.
    9900012    2    1    2    0    0 -0.80825669877E+01 -0.21909030160E+02  0.36582644531E+02  0.47787269908E+02  0.19999994817E+02 0.  0.
         12    1    1    2    0    0  0.80825669877E+01  0.21909030160E+02 -0.36582644531E+02  0.43400730092E+02  0.00000000000E+00 0. -1.
         11    1    3    3    0    0 -0.24361505088E+01  0.23017741944E+01  0.36603988322E+01  0.49630145693E+01  0.51100000000E-03 0. -1.
        -11    1    3    3    0    0 -0.80625875014E+01 -0.17873861034E+02  0.28947503048E+02  0.34963383110E+02  0.51100000000E-03 0.  1.
        -12    1    3    3    0    0  0.24161710224E+01 -0.63369433206E+01  0.39747426503E+01  0.78608722286E+01  0.00000000000E+00 0.  1.
</event>
<event>
 7    1  0.2751796E-010  0.4778728E+02  0.7816164E-02  0.1312668E+00
        -11   -1    0    0    0    0  0.00000000000E+00  0.00000000000E+00  0.45593999997E+02  0.45594000000E+02  0.51100000000E-03 0.  1.
         11   -1    0    0    0    0 -0.00000000000E+00 -0.00000000000E+00 -0.45593999997E+02  0.45594000000E+02  0.51100000000E-03 0. -1.
    9900012    2    1    2    0    0  0.32500270267E+02 -0.24125748024E+02  0.15662146517E+02  0.47787284353E+02  0.20000060680E+02 0.  0.
         12    1    1    2    0    0 -0.32500270267E+02  0.24125748024E+02 -0.15662146517E+02  0.43400715647E+02  0.00000000000E+00 0. -1.
         11    1    3    3    0    0  0.93879196019E+01 -0.86842442629E+01  0.12751587511E+02  0.18059682089E+02  0.51100000000E-03 0. -1.
        -11    1    3    3    0    0  0.37292219878E+01 -0.58026321003E+00 -0.27326626427E+01  0.46595329602E+01  0.51100000000E-03 0.  1.
        -12    1    3    3    0    0  0.19383128677E+02 -0.14861240551E+02  0.56432216485E+01  0.25068069304E+02  0.00000000000E+00 0.  1.
</event>
<event>
 7    1  0.2751796E-010  0.4778727E+02  0.7816164E-02  0.1312668E+00
        -11   -1    0    0    0    0  0.00000000000E+00  0.00000000000E+00  0.45593999997E+02  0.45594000000E+02  0.51100000000E-03 0.  1.
         11   -1    0    0    0    0 -0.00000000000E+00 -0.00000000000E+00 -0.45593999997E+02  0.45594000000E+02  0.51100000000E-03 0. -1.
    9900012    2    1    2    0    0  0.25906249310E+02 -0.16794008080E+01  0.34780296690E+02  0.47787272147E+02  0.20000005025E+02 0.  0.
         12    1    1    2    0    0 -0.25906249310E+02  0.16794008080E+01 -0.34780296690E+02  0.43400727853E+02  0.00000000000E+00 0. -1.
         11    1    3    3    0    0  0.12460932230E+02 -0.24839668660E+01  0.33509123755E+01  0.13140530333E+02  0.51100000000E-03 0.  1.
        -11    1    3    3    0    0  0.12544572877E+02  0.13196116077E+01  0.23696781483E+02  0.26844834445E+02  0.51100000000E-03 0. -1.
        -12    1    3    3    0    0  0.90074420286E+00 -0.51504554971E+00  0.77326028312E+01  0.78019073683E+01  0.00000000000E+00 0.  1.
</event>
<event>
 7    1  0.2751796E-010  0.4778730E+02  0.7816164E-02  0.1312668E+00
        -11   -1    0    0    0    0  0.00000000000E+00  0.00000000000E+00  0.45593999997E+02  0.45594000000E+02  0.51100000000E-03 0.  1.
         11   -1    0    0    0    0 -0.00000000000E+00 -0.00000000000E+00 -0.45593999997E+02  0.45594000000E+02  0.51100000000E-03 0. -1.
    9900012    2    1    2    0    0 -0.28413075879E+02  0.14760788094E+02  0.29299092235E+02  0.47787302404E+02  0.20000142979E+02 0.  0.
         12    1    1    2    0    0  0.28413075879E+02 -0.14760788094E+02 -0.29299092235E+02  0.43400697596E+02  0.00000000000E+00 0. -1.
         11    1    3    3    0    0 -0.15500394188E+02  0.54812721189E+01  0.16476242824E+02  0.23276020748E+02  0.51100000000E-03 0. -1.
        -11    1    3    3    0    0 -0.15667517530E+02  0.84604220151E+01  0.12159729621E+02  0.21561745545E+02  0.51100000000E-03 0.  1.
         12    1    3    3    0    0  0.27548358385E+01  0.81909395998E+00  0.66311979003E+00  0.29495361107E+01  0.00000000000E+00 0. -1.
</event>
<event>
 7    1  0.2751796E-010  0.4778727E+02  0.7816164E-02  0.1312668E+00
        -11   -1    0    0    0    0  0.00000000000E+00  0.00000000000E+00  0.45593999997E+02  0.45594000000E+02  0.51100000000E-03 0. -1.
         11   -1    0    0    0    0 -0.00000000000E+00 -0.00000000000E+00 -0.45593999997E+02  0.45594000000E+02  0.51100000000E-03 0.  1.
    9900012    2    1    2    0    0 -0.25343096724E+01 -0.31127418173E+02 -0.30137756534E+02  0.47787271244E+02  0.20000000909E+02 0.  0.
         12    1    1    2    0    0  0.25343096724E+01  0.31127418173E+02  0.30137756534E+02  0.43400728756E+02  0.00000000000E+00 0. -1.
         11    1    3    3    0    0  0.39236443939E+01 -0.12194617078E+01  0.57091803792E+00  0.41482550372E+01  0.51100000000E-03 0. -1.
        -11    1    3    3    0    0 -0.35757199607E+01 -0.23251820506E+02 -0.21110121759E+02  0.31608071296E+02  0.51100000000E-03 0.  1.
         12    1    3    3    0    0 -0.28822341056E+01 -0.66561359591E+01 -0.95985528130E+01  0.12030944911E+02  0.00000000000E+00 0. -1.
</event>
<event>
 7    1  0.2751796E-010  0.4778727E+02  0.7816164E-02  0.1312668E+00
        -11   -1    0    0    0    0  0.00000000000E+00  0.00000000000E+00  0.45593999997E+02  0.45594000000E+02  0.51100000000E-03 0.  1.
         11   -1    0    0    0    0 -0.00000000000E+00 -0.00000000000E+00 -0.45593999997E+02  0.45594000000E+02  0.51100000000E-03 0. -1.
    9900012    2    1    2    0    0 -0.40407630544E+02  0.15835782314E+02  0.27320205362E+00  0.47787271353E+02  0.20000001408E+02 0.  0.
         12    1    1    2    0    0  0.40407630544E+02 -0.15835782314E+02 -0.27320205362E+00  0.43400728647E+02  0.00000000000E+00 0. -1.
         11    1    3    3    0    0 -0.23603509253E+01  0.57489090884E+01 -0.30814038133E+00  0.62222313483E+01  0.51100000000E-03 0. -1.
        -11    1    3    3    0    0 -0.99836132128E+01 -0.21056834958E+01  0.35975206754E+01  0.10818899715E+02  0.51100000000E-03 0.  1.
        -12    1    3    3    0    0 -0.28063666406E+02  0.12192556722E+02 -0.30161782405E+01  0.30746140290E+02  0.00000000000E+00 0.  1.
</event>
<event>
 7    1  0.2751796E-010  0.4778726E+02  0.7816164E-02  0.1312668E+00
        -11   -1    0    0    0    0  0.00000000000E+00  0.00000000000E+00  0.45593999997E+02  0.45594000000E+02  0.51100000000E-03 0.  1.
         11   -1    0    0    0    0 -0.00000000000E+00 -0.00000000000E+00 -0.45593999997E+02  0.45594000000E+02  0.51100000000E-03 0. -1.
    9900012    2    1    2    0    0  0.21107531001E+02 -0.25112378787E+02  0.28415922436E+02  0.47787261744E+02  0.19999957595E+02 0.  0.
         12    1    1    2    0    0 -0.21107531001E+02  0.25112378787E+02 -0.28415922436E+02  0.43400738256E+02  0.00000000000E+00 0. -1.
         11    1    3    3    0    0  0.11151691501E+02 -0.20458833986E+02  0.86460437690E+01  0.24853132288E+02  0.51100000000E-03 0. -1.
        -11    1    3    3    0    0  0.48651705455E+01 -0.23655158380E+00  0.88463830214E+01  0.10098729322E+02  0.51100000000E-03 0.  1.
        -12    1    3    3    0    0  0.50906689542E+01 -0.44169932164E+01  0.10923495646E+02  0.12835400134E+02  0.00000000000E+00 0.  1.
</event>
<event>
 7    1  0.2751796E-010  0.4778729E+02  0.7816164E-02  0.1312668E+00
        -11   -1    0    0    0    0  0.00000000000E+00  0.00000000000E+00  0.45593999997E+02  0.45594000000E+02  0.51100000000E-03 0.  1.
         11   -1    0    0    0    0 -0.00000000000E+00 -0.00000000000E+00 -0.45593999997E+02  0.45594000000E+02  0.51100000000E-03 0. -1.
    9900012    2    1    2    0    0  0.31182685883E+02  0.17813229990E+02  0.24371104825E+02  0.47787287887E+02  0.20000076790E+02 0.  0.
         12    1    1    2    0    0 -0.31182685883E+02 -0.17813229990E+02 -0.24371104825E+02  0.43400712113E+02  0.00000000000E+00 0. -1.
         11    1    3    3    0    0  0.19757927975E+02  0.69014606283E+01  0.58899010256E+01  0.21741591732E+02  0.51100000000E-03 0. -1.
        -11    1    3    3    0    0  0.10130834156E+02  0.12616367941E+02  0.16794416218E+02  0.23320783801E+02  0.51100000000E-03 0.  1.
        -12    1    3    3    0    0  0.12939237518E+01 -0.17045985792E+01  0.16867875814E+01  0.27249123539E+01  0.00000000000E+00 0.  1.
</event>
<event>
 7    1  0.2751796E-010  0.4778727E+02  0.7816164E-02  0.1312668E+00
        -11   -1    0    0    0    0  0.00000000000E+00  0.00000000000E+00  0.45593999997E+02  0.45594000000E+02  0.51100000000E-03 0. -1.
         11   -1    0    0    0    0 -0.00000000000E+00 -0.00000000000E+00 -0.45593999997E+02  0.45594000000E+02  0.51100000000E-03 0.  1.
    9900012    2    1    2    0    0 -0.37255739629E+02 -0.17813040278E+02  0.13353984837E+02  0.47787269012E+02  0.19999990735E+02 0.  0.
         12    1    1    2    0    0  0.37255739629E+02  0.17813040278E+02 -0.13353984837E+02  0.43400730988E+02  0.00000000000E+00 0. -1.
         11    1    3    3    0    0 -0.17276061304E+02 -0.92117595013E+01  0.13229293103E+02  0.23629071153E+02  0.51100000000E-03 0. -1.
        -11    1    3    3    0    0 -0.21139483690E+02 -0.75709085555E+01 -0.56263718603E+00  0.22461366564E+02  0.51100000000E-03 0.  1.
         12    1    3    3    0    0  0.11598053659E+01 -0.10303722215E+01  0.68732891979E+00  0.16968312955E+01  0.00000000000E+00 0. -1.
</event>
<event>
 7    1  0.2751796E-010  0.4778727E+02  0.7816164E-02  0.1312668E+00
        -11   -1    0    0    0    0  0.00000000000E+00  0.00000000000E+00  0.45593999997E+02  0.45594000000E+02  0.51100000000E-03 0.  1.
         11   -1    0    0    0    0 -0.00000000000E+00 -0.00000000000E+00 -0.45593999997E+02  0.45594000000E+02  0.51100000000E-03 0. -1.
    9900012    2    1    2    0    0 -0.26110125589E+02  0.32635298215E+02  0.11697088804E+02  0.47787271500E+02  0.20000002075E+02 0.  0.
         12    1    1    2    0    0  0.26110125589E+02 -0.32635298215E+02 -0.11697088804E+02  0.43400728500E+02  0.00000000000E+00 0. -1.
         11    1    3    3    0    0 -0.12858844492E+02  0.19280997123E+02  0.72084890627E+01  0.24270744664E+02  0.51100000000E-03 0.  1.
        -11    1    3    3    0    0 -0.29999354985E+01  0.56232943339E+01 -0.45357465090E+01  0.78226625145E+01  0.51100000000E-03 0. -1.
        -12    1    3    3    0    0 -0.10251345598E+02  0.77310067586E+01  0.90243462502E+01  0.15693864321E+02  0.00000000000E+00 0.  1.
</event>
<event>
 7    1  0.2751796E-010  0.4778727E+02  0.7816164E-02  0.1312668E+00
        -11   -1    0    0    0    0  0.00000000000E+00  0.00000000000E+00  0.45593999997E+02  0.45594000000E+02  0.51100000000E-03 0. -1.
         11   -1    0    0    0    0 -0.00000000000E+00 -0.00000000000E+00 -0.45593999997E+02  0.45594000000E+02  0.51100000000E-03 0.  1.
    9900012    2    1    2    0    0  0.67082893324E+01 -0.33864845453E+02 -0.26301982356E+02  0.47787272135E+02  0.20000004973E+02 0.  0.
         12    1    1    2    0    0 -0.67082893324E+01  0.33864845453E+02  0.26301982356E+02  0.43400727865E+02  0.00000000000E+00 0. -1.
         11    1    3    3    0    0  0.22234658950E+01  0.11845305299E+01  0.51928864298E+00  0.25722702265E+01  0.51100000000E-03 0. -1.
        -11    1    3    3    0    0  0.69047165312E+01 -0.29742712015E+02 -0.21776988141E+02  0.37503883015E+02  0.51100000000E-03 0.  1.
         12    1    3    3    0    0 -0.24198930938E+01 -0.53066639679E+01 -0.50442828574E+01  0.77111188941E+01  0.00000000000E+00 0. -1.
</event>
<event>
 7    1  0.2751796E-010  0.4778727E+02  0.7816164E-02  0.1312668E+00
        -11   -1    0    0    0    0  0.00000000000E+00  0.00000000000E+00  0.45593999997E+02  0.45594000000E+02  0.51100000000E-03 0.  1.
         11   -1    0    0    0    0 -0.00000000000E+00 -0.00000000000E+00 -0.45593999997E+02  0.45594000000E+02  0.51100000000E-03 0. -1.
    9900012    2    1    2    0    0 -0.58775543007E+01  0.30225357477E+02  0.30586036051E+02  0.47787268665E+02  0.19999989150E+02 0.  0.
         12    1    1    2    0    0  0.58775543007E+01 -0.30225357477E+02 -0.30586036051E+02  0.43400731335E+02  0.00000000000E+00 0. -1.
         11    1    3    3    0    0 -0.36012115369E+01  0.27974793884E+02  0.19681695163E+02  0.34393704978E+02  0.51100000000E-03 0. -1.
        -11    1    3    3    0    0 -0.20824448502E+01  0.23176766831E+01  0.11938936930E+02  0.12338817490E+02  0.51100000000E-03 0.  1.
         12    1    3    3    0    0 -0.19389791358E+00 -0.67113090344E-01 -0.10345960427E+01  0.10547461967E+01  0.00000000000E+00 0. -1.
</event>
<event>
 7    1  0.2751796E-010  0.4778727E+02  0.7816164E-02  0.1312668E+00
        -11   -1    0    0    0    0  0.00000000000E+00  0.00000000000E+00  0.45593999997E+02  0.45594000000E+02  0.51100000000E-03 0.  1.
         11   -1    0    0    0    0 -0.00000000000E+00 -0.00000000000E+00 -0.45593999997E+02  0.45594000000E+02  0.51100000000E-03 0. -1.
    9900012    2    1    2    0    0  0.35942453772E+02 -0.23710282068E+02  0.54392595173E+01  0.47787274165E+02  0.20000014228E+02 0.  0.
         12    1    1    2    0    0 -0.35942453772E+02  0.23710282068E+02 -0.54392595173E+01  0.43400725835E+02  0.00000000000E+00 0. -1.
         11    1    3    3    0    0  0.25238263042E+02 -0.14694975829E+02  0.10362832079E+02  0.30988716090E+02  0.51100000000E-03 0. -1.
        -11    1    3    3    0    0  0.49653752068E+01 -0.28353217063E+00  0.54843711902E+00  0.50036111930E+01  0.51100000000E-03 0.  1.
         12    1    3    3    0    0  0.57388155239E+01 -0.87317740680E+01 -0.54720096809E+01  0.11794946882E+02  0.00000000000E+00 0. -1.
</event>
<event>
 7    1  0.2751796E-010  0.4778725E+02  0.7816164E-02  0.1312668E+00
        -11   -1    0    0    0    0  0.00000000000E+00  0.00000000000E+00  0.45593999997E+02  0.45594000000E+02  0.51100000000E-03 0.  1.
         11   -1    0    0    0    0 -0.00000000000E+00 -0.00000000000E+00 -0.45593999997E+02  0.45594000000E+02  0.51100000000E-03 0. -1.
    9900012    2    1    2    0    0 -0.10814910526E+02  0.11331603882E+01  0.42016413256E+02  0.47787247413E+02  0.19999892256E+02 0.  0.
         12    1    1    2    0    0  0.10814910526E+02 -0.11331603882E+01 -0.42016413256E+02  0.43400752587E+02  0.00000000000E+00 0. -1.
         11    1    3    3    0    0  0.42295964259E+01  0.75337961623E+00  0.66410531552E+01  0.79095293187E+01  0.51100000000E-03 0. -1.
        -11    1    3    3    0    0 -0.12828324081E+01  0.34764348255E+01  0.12168343779E+02  0.12720056944E+02  0.51100000000E-03 0.  1.
         12    1    3    3    0    0 -0.13761674544E+02 -0.30966540535E+01  0.23207016323E+02  0.27157661151E+02  0.00000000000E+00 0. -1.
</event>
<event>
 7    1  0.2751796E-010  0.4778727E+02  0.7816164E-02  0.1312668E+00
        -11   -1    0    0    0    0  0.00000000000E+00  0.00000000000E+00  0.45593999997E+02  0.45594000000E+02  0.51100000000E-03 0.  1.
         11   -1    0    0    0    0 -0.00000000000E+00 -0.00000000000E+00 -0.45593999997E+02  0.45594000000E+02  0.51100000000E-03 0. -1.
    9900012    2    1    2    0    0 -0.13383206811E+02 -0.93702936277E+01  0.40208341001E+02  0.47787270590E+02  0.19999997928E+02 0.  0.
         12    1    1    2    0    0  0.13383206811E+02  0.93702936277E+01 -0.40208341001E+02  0.43400729410E+02  0.00000000000E+00 0. -1.
         11    1    3    3    0    0  0.10592769554E+00  0.10914979150E+01  0.35502344536E-01  0.10972005527E+01  0.51100000000E-03 0. -1.
        -11    1    3    3    0    0 -0.10807164291E+01 -0.94407777494E+01  0.88573020214E+01  0.12990305303E+02  0.51100000000E-03 0.  1.
        -12    1    3    3    0    0 -0.12408418078E+02 -0.10210137934E+01  0.31315536636E+02  0.33699764734E+02  0.00000000000E+00 0.  1.
</event>
<event>
 7    1  0.2751796E-010  0.4778727E+02  0.7816164E-02  0.1312668E+00
        -11   -1    0    0    0    0  0.00000000000E+00  0.00000000000E+00  0.45593999997E+02  0.45594000000E+02  0.51100000000E-03 0.  1.
         11   -1    0    0    0    0 -0.00000000000E+00 -0.00000000000E+00 -0.45593999997E+02  0.45594000000E+02  0.51100000000E-03 0. -1.
    9900012    2    1    2    0    0 -0.26027687049E+02  0.11247896850E+02  0.32858291627E+02  0.47787274138E+02  0.20000014105E+02 0.  0.
         12    1    1    2    0    0  0.26027687049E+02 -0.11247896850E+02 -0.32858291627E+02  0.43400725862E+02  0.00000000000E+00 0. -1.
         11    1    3    3    0    0 -0.64852551959E+01 -0.40214906124E+01  0.44861936060E+01  0.88519407495E+01  0.51100000000E-03 0. -1.
        -11    1    3    3    0    0 -0.68221858398E+01  0.85585246919E+01  0.18486569853E+02  0.21483571158E+02  0.51100000000E-03 0.  1.
         12    1    3    3    0    0 -0.12720246014E+02  0.67108627706E+01  0.98855281686E+01  0.17451762230E+02  0.00000000000E+00 0. -1.
</event>
<event>
 7    1  0.2751796E-010  0.4778727E+02  0.7816164E-02  0.1312668E+00
        -11   -1    0    0    0    0  0.00000000000E+00  0.00000000000E+00  0.45593999997E+02  0.45594000000E+02  0.51100000000E-03 0.  1.
         11   -1    0    0    0    0 -0.00000000000E+00 -0.00000000000E+00 -0.45593999997E+02  0.45594000000E+02  0.51100000000E-03 0. -1.
    9900012    2    1    2    0    0  0.27034437262E+02  0.23352995991E+02  0.24645488405E+02  0.47787270530E+02  0.19999997653E+02 0.  0.
         12    1    1    2    0    0 -0.27034437262E+02 -0.23352995991E+02 -0.24645488405E+02  0.43400729470E+02  0.00000000000E+00 0. -1.
         11    1    3    3    0    0  0.54418778894E+00 -0.20595602586E+01  0.60696856493E+01  0.64326520931E+01  0.51100000000E-03 0. -1.
        -11    1    3    3    0    0  0.10094695442E+02  0.12326294223E+02  0.70949206051E+01  0.17440708243E+02  0.51100000000E-03 0.  1.
         12    1    3    3    0    0  0.16395554031E+02  0.13086262026E+02  0.11480882151E+02  0.23913910194E+02  0.00000000000E+00 0. -1.
</event>
<event>
 7    1  0.2751796E-010  0.4778725E+02  0.7816164E-02  0.1312668E+00
        -11   -1    0    0    0    0  0.00000000000E+00  0.00000000000E+00  0.45593999997E+02  0.45594000000E+02  0.51100000000E-03 0. -1.
         11   -1    0    0    0    0 -0.00000000000E+00 -0.00000000000E+00 -0.45593999997E+02  0.45594000000E+02  0.51100000000E-03 0.  1.
    9900012    2    1    2    0    0  0.30483031929E+02 -0.24635858935E+02 -0.18640934908E+02  0.47787248448E+02  0.19999896973E+02 0.  0.
         12    1    1    2    0    0 -0.30483031929E+02  0.24635858935E+02  0.18640934908E+02  0.43400751552E+02  0.00000000000E+00 0. -1.
         11    1    3    3    0    0  0.16047802951E+00 -0.46965486454E+01 -0.82299785284E+01  0.94771234673E+01  0.51100000000E-03 0. -1.
        -11    1    3    3    0    0  0.19676135561E+02 -0.93966056796E+01 -0.74097599940E+01  0.23029351974E+02  0.51100000000E-03 0.  1.
         12    1    3    3    0    0  0.10646418339E+02 -0.10542704610E+02 -0.30011963858E+01  0.15280773007E+02  0.00000000000E+00 0. -1.
</event>
<event>
 7    1  0.2751796E-010  0.4778727E+02  0.7816164E-02  0.1312668E+00
        -11   -1    0    0    0    0  0.00000000000E+00  0.00000000000E+00  0.45593999997E+02  0.45594000000E+02  0.51100000000E-03 0.  1.
         11   -1    0    0    0    0 -0.00000000000E+00 -0.00000000000E+00 -0.45593999997E+02  0.45594000000E+02  0.51100000000E-03 0. -1.
    9900012    2    1    2    0    0  0.18509513542E+02  0.24409207796E+02  0.30744299708E+02  0.47787268655E+02  0.19999989105E+02 0.  0.
         12    1    1    2    0    0 -0.18509513542E+02 -0.24409207796E+02 -0.30744299708E+02  0.43400731345E+02  0.00000000000E+00 0. -1.
         11    1    3    3    0    0  0.22853864141E+01  0.23408863327E+01  0.13102554865E+02  0.13504802262E+02  0.51100000000E-03 0. -1.
        -11    1    3    3    0    0  0.13103826090E+02  0.21853436309E+02  0.12792214568E+02  0.28511816682E+02  0.51100000000E-03 0.  1.
        -12    1    3    3    0    0  0.31203010376E+01  0.21488515443E+00  0.48495302748E+01  0.57706497105E+01  0.00000000000E+00 0.  1.
</event>
<event>
 7    1  0.2751796E-010  0.4778728E+02  0.7816164E-02  0.1312668E+00
        -11   -1    0    0    0    0  0.00000000000E+00  0.00000000000E+00  0.45593999997E+02  0.45594000000E+02  0.51100000000E-03 0.  1.
         11   -1    0    0    0    0 -0.00000000000E+00 -0.00000000000E+00 -0.45593999997E+02  0.45594000000E+02  0.51100000000E-03 0. -1.
    9900012    2    1    2    0    0 -0.75190116451E+01 -0.22800748505E+02  0.36155396584E+02  0.47787281450E+02  0.20000047443E+02 0.  0.
         12    1    1    2    0    0  0.75190116451E+01  0.22800748505E+02 -0.36155396584E+02  0.43400718550E+02  0.00000000000E+00 0. -1.
         11    1    3    3    0    0 -0.22442928997E+01  0.21457731250E+01  0.92268724300E+01  0.97353155071E+01  0.51100000000E-03 0. -1.
        -11    1    3    3    0    0 -0.41622189389E+01 -0.18284507076E+02  0.24546939531E+02  0.30890119878E+02  0.51100000000E-03 0.  1.
         12    1    3    3    0    0 -0.11124998065E+01 -0.66620145536E+01  0.23815846235E+01  0.71618460644E+01  0.00000000000E+00 0. -1.
</event>
<event>
 7    1  0.2751796E-010  0.4778727E+02  0.7816164E-02  0.1312668E+00
        -11   -1    0    0    0    0  0.00000000000E+00  0.00000000000E+00  0.45593999997E+02  0.45594000000E+02  0.51100000000E-03 0.  1.
         11   -1    0    0    0    0 -0.00000000000E+00 -0.00000000000E+00 -0.45593999997E+02  0.45594000000E+02  0.51100000000E-03 0. -1.
    9900012    2    1    2    0    0  0.17073703133E+02  0.29701757084E+02  0.26644274685E+02  0.47787273208E+02  0.20000009866E+02 0.  0.
         12    1    1    2    0    0 -0.17073703133E+02 -0.29701757084E+02 -0.26644274685E+02  0.43400726792E+02  0.00000000000E+00 0. -1.
         11    1    3    3    0    0  0.56905971496E+01  0.23324689343E+02  0.21669198321E+02  0.32341586000E+02  0.51100000000E-03 0. -1.
        -11    1    3    3    0    0  0.70906743894E+01  0.23116286355E+01  0.58376871545E+01  0.94710021550E+01  0.51100000000E-03 0.  1.
         12    1    3    3    0    0  0.42924315943E+01  0.40654391047E+01 -0.86261079019E+00  0.59746850529E+01  0.00000000000E+00 0. -1.
</event>
<event>
 7    1  0.2751796E-010  0.4778727E+02  0.7816164E-02  0.1312668E+00
        -11   -1    0    0    0    0  0.00000000000E+00  0.00000000000E+00  0.45593999997E+02  0.45594000000E+02  0.51100000000E-03 0. -1.
         11   -1    0    0    0    0 -0.00000000000E+00 -0.00000000000E+00 -0.45593999997E+02  0.45594000000E+02  0.51100000000E-03 0.  1.
    9900012    2    1    2    0    0 -0.40171466400E+01 -0.25766130304E+02 -0.34692823848E+02  0.47787274609E+02  0.20000016251E+02 0.  0.
         12    1    1    2    0    0  0.40171466400E+01  0.25766130304E+02  0.34692823848E+02  0.43400725391E+02  0.00000000000E+00 0. -1.
         11    1    3    3    0    0  0.25976088880E+01 -0.15882764561E+00 -0.75862930256E+00  0.27107779024E+01  0.51100000000E-03 0. -1.
        -11    1    3    3    0    0 -0.10721466332E+02 -0.16478254152E+02 -0.22270920513E+02  0.29706507720E+02  0.51100000000E-03 0.  1.
        -12    1    3    3    0    0  0.41067108043E+01 -0.91290485066E+01 -0.11663274033E+02  0.15369988986E+02  0.00000000000E+00 0.  1.
</event>
<event>
 7    1  0.2751796E-010  0.4778727E+02  0.7816164E-02  0.1312668E+00
        -11   -1    0    0    0    0  0.00000000000E+00  0.00000000000E+00  0.45593999997E+02  0.45594000000E+02  0.51100000000E-03 0.  1.
         11   -1    0    0    0    0 -0.00000000000E+00 -0.00000000000E+00 -0.45593999997E+02  0.45594000000E+02  0.51100000000E-03 0. -1.
    9900012    2    1    2    0    0 -0.14858499995E+02 -0.25847610474E+02  0.31539647321E+02  0.47787270254E+02  0.19999996398E+02 0.  0.
         12    1    1    2    0    0  0.14858499995E+02  0.25847610474E+02 -0.31539647321E+02  0.43400729746E+02  0.00000000000E+00 0. -1.
         11    1    3    3    0    0  0.56484635425E+00 -0.12999092696E+02  0.40321322394E+01  0.13621804322E+02  0.51100000000E-03 0. -1.
        -11    1    3    3    0    0 -0.64232296730E+01 -0.37803524027E+01  0.11104627730E+02  0.13373918685E+02  0.51100000000E-03 0.  1.
         12    1    3    3    0    0 -0.90001166763E+01 -0.90681653750E+01  0.16402887352E+02  0.20791547247E+02  0.00000000000E+00 0. -1.
</event>
<event>
 7    1  0.2751796E-010  0.4778732E+02  0.7816164E-02  0.1312668E+00
        -11   -1    0    0    0    0  0.00000000000E+00  0.00000000000E+00  0.45593999997E+02  0.45594000000E+02  0.51100000000E-03 0.  1.
         11   -1    0    0    0    0 -0.00000000000E+00 -0.00000000000E+00 -0.45593999997E+02  0.45594000000E+02  0.51100000000E-03 0. -1.
    9900012    2    1    2    0    0  0.34765246611E+02  0.25444797670E+01  0.25855799163E+02  0.47787319135E+02  0.20000219261E+02 0.  0.
         12    1    1    2    0    0 -0.34765246611E+02 -0.25444797670E+01 -0.25855799163E+02  0.43400680865E+02  0.00000000000E+00 0. -1.
         11    1    3    3    0    0  0.12090887783E+02  0.13478324201E+01 -0.11997667319E+01  0.12224796935E+02  0.51100000000E-03 0. -1.
        -11    1    3    3    0    0  0.18551243536E+02  0.24137933637E+01  0.20838991783E+02  0.28004260639E+02  0.51100000000E-03 0.  1.
         12    1    3    3    0    0  0.41231152920E+01 -0.12171460168E+01  0.62165741123E+01  0.75582615615E+01  0.00000000000E+00 0. -1.
</event>
<event>
 7    1  0.2751796E-010  0.4778727E+02  0.7816164E-02  0.1312668E+00
        -11   -1    0    0    0    0  0.00000000000E+00  0.00000000000E+00  0.45593999997E+02  0.45594000000E+02  0.51100000000E-03 0.  1.
         11   -1    0    0    0    0 -0.00000000000E+00 -0.00000000000E+00 -0.45593999997E+02  0.45594000000E+02  0.51100000000E-03 0. -1.
    9900012    2    1    2    0    0 -0.30547131788E+02  0.30765192350E+02 -0.19997230341E+01  0.47787271745E+02  0.20000003195E+02 0.  0.
         12    1    1    2    0    0  0.30547131788E+02 -0.30765192350E+02  0.19997230341E+01  0.43400728255E+02  0.00000000000E+00 0. -1.
         11    1    3    3    0    0 -0.16019207540E+02  0.21026069543E+02  0.59364123084E+01  0.27091541152E+02  0.51100000000E-03 0. -1.
        -11    1    3    3    0    0 -0.67986962025E+01  0.62303060854E+01 -0.21982399013E+00  0.92242781192E+01  0.51100000000E-03 0.  1.
         12    1    3    3    0    0 -0.77292280459E+01  0.35088167217E+01 -0.77163113524E+01  0.11471452474E+02  0.00000000000E+00 0. -1.
</event>
<event>
 7    1  0.2751796E-010  0.4778727E+02  0.7816164E-02  0.1312668E+00
        -11   -1    0    0    0    0  0.00000000000E+00  0.00000000000E+00  0.45593999997E+02  0.45594000000E+02  0.51100000000E-03 0.  1.
         11   -1    0    0    0    0 -0.00000000000E+00 -0.00000000000E+00 -0.45593999997E+02  0.45594000000E+02  0.51100000000E-03 0. -1.
    9900012    2    1    2    0    0  0.27517606578E+02 -0.11437760188E+02  0.31552854436E+02  0.47787266678E+02  0.19999980090E+02 0.  0.
         12    1    1    2    0    0 -0.27517606578E+02  0.11437760188E+02 -0.31552854436E+02  0.43400733322E+02  0.00000000000E+00 0. -1.
         11    1    3    3    0    0  0.48823480579E+01 -0.47832414938E+01 -0.72757508649E+00  0.68735789451E+01  0.51100000000E-03 0. -1.
        -11    1    3    3    0    0  0.26657027788E+01 -0.24052504464E+01  0.10329213653E+02  0.10935440364E+02  0.51100000000E-03 0.  1.
         12    1    3    3    0    0  0.19969555741E+02 -0.42492682477E+01  0.21951215869E+02  0.29978247368E+02  0.00000000000E+00 0. -1.
</event>
<event>
 7    1  0.2751796E-010  0.4778726E+02  0.7816164E-02  0.1312668E+00
        -11   -1    0    0    0    0  0.00000000000E+00  0.00000000000E+00  0.45593999997E+02  0.45594000000E+02  0.51100000000E-03 0.  1.
         11   -1    0    0    0    0 -0.00000000000E+00 -0.00000000000E+00 -0.45593999997E+02  0.45594000000E+02  0.51100000000E-03 0. -1.
    9900012    2    1    2    0    0 -0.25237812254E+01  0.10845736603E+02  0.41947879742E+02  0.47787261654E+02  0.19999957184E+02 0.  0.
         12    1    1    2    0    0  0.25237812254E+01 -0.10845736603E+02 -0.41947879742E+02  0.43400738346E+02  0.00000000000E+00 0. -1.
         11    1    3    3    0    0 -0.73148679252E+01  0.36166644132E+01  0.22471764516E+02  0.23907483241E+02  0.51100000000E-03 0. -1.
        -11    1    3    3    0    0  0.80106759788E+01  0.45998771350E+01  0.15936615133E+02  0.18420247052E+02  0.51100000000E-03 0.  1.
        -12    1    3    3    0    0 -0.32195892790E+01  0.26291950549E+01  0.35395000940E+01  0.54595313606E+01  0.00000000000E+00 0.  1.
</event>
<event>
 7    1  0.2751796E-010  0.4778727E+02  0.7816164E-02  0.1312668E+00
        -11   -1    0    0    0    0  0.00000000000E+00  0.00000000000E+00  0.45593999997E+02  0.45594000000E+02  0.51100000000E-03 0. -1.
         11   -1    0    0    0    0 -0.00000000000E+00 -0.00000000000E+00 -0.45593999997E+02  0.45594000000E+02  0.51100000000E-03 0.  1.
    9900012    2    1    2    0    0  0.72850691583E+01 -0.13790502531E+02 -0.40501515926E+02  0.47787274372E+02  0.20000015173E+02 0.  0.
         12    1    1    2    0    0 -0.72850691583E+01  0.13790502531E+02  0.40501515926E+02  0.43400725628E+02  0.00000000000E+00 0. -1.
         11    1    3    3    0    0 -0.29225831390E+01  0.24303388191E+01 -0.14250846699E+01  0.40594218255E+01  0.51100000000E-03 0. -1.
        -11    1    3    3    0    0 -0.19782389684E+00 -0.56876058108E+00 -0.28826250237E+01  0.29448514701E+01  0.51100000000E-03 0.  1.
         12    1    3    3    0    0  0.10405476194E+02 -0.15652080770E+02 -0.36193806232E+02  0.40783001077E+02  0.00000000000E+00 0. -1.
</event>
<event>
 7    1  0.2751796E-010  0.4778727E+02  0.7816164E-02  0.1312668E+00
        -11   -1    0    0    0    0  0.00000000000E+00  0.00000000000E+00  0.45593999997E+02  0.45594000000E+02  0.51100000000E-03 0. -1.
         11   -1    0    0    0    0 -0.00000000000E+00 -0.00000000000E+00 -0.45593999997E+02  0.45594000000E+02  0.51100000000E-03 0.  1.
    9900012    2    1    2    0    0 -0.21119097992E+02 -0.53143609127E+01 -0.37541505983E+02  0.47787269552E+02  0.19999993197E+02 0.  0.
         12    1    1    2    0    0  0.21119097992E+02  0.53143609127E+01  0.37541505983E+02  0.43400730448E+02  0.00000000000E+00 0. -1.
         11    1    3    3    0    0 -0.15174313291E+02 -0.54423310035E+01 -0.87181391790E+01  0.18327157488E+02  0.51100000000E-03 0. -1.
        -11    1    3    3    0    0 -0.27382349837E+01 -0.58840537558E+00 -0.13895169203E+02  0.14174620953E+02  0.51100000000E-03 0.  1.
         12    1    3    3    0    0 -0.32065497175E+01  0.71637546634E+00 -0.14928197601E+02  0.15285491111E+02  0.00000000000E+00 0. -1.
</event>
<event>
 7    1  0.2751796E-010  0.4778727E+02  0.7816164E-02  0.1312668E+00
        -11   -1    0    0    0    0  0.00000000000E+00  0.00000000000E+00  0.45593999997E+02  0.45594000000E+02  0.51100000000E-03 0.  1.
         11   -1    0    0    0    0 -0.00000000000E+00 -0.00000000000E+00 -0.45593999997E+02  0.45594000000E+02  0.51100000000E-03 0. -1.
    9900012    2    1    2    0    0  0.28642802910E+02 -0.23199900587E+02  0.22912403726E+02  0.47787265095E+02  0.19999972875E+02 0.  0.
         12    1    1    2    0    0 -0.28642802910E+02  0.23199900587E+02 -0.22912403726E+02  0.43400734905E+02  0.00000000000E+00 0. -1.
         11    1    3    3    0    0  0.15663952369E+01 -0.17670631334E+00 -0.65340179800E+00  0.17063860437E+01  0.51100000000E-03 0. -1.
        -11    1    3    3    0    0  0.15979519505E+02 -0.30441181229E+01  0.13367339312E+02  0.21054630353E+02  0.51100000000E-03 0.  1.
        -12    1    3    3    0    0  0.11096888168E+02 -0.19979076151E+02  0.10198466212E+02  0.25026248699E+02  0.00000000000E+00 0.  1.
</event>
<event>
 7    1  0.2751796E-010  0.4778727E+02  0.7816164E-02  0.1312668E+00
        -11   -1    0    0    0    0  0.00000000000E+00  0.00000000000E+00  0.45593999997E+02  0.45594000000E+02  0.51100000000E-03 0. -1.
         11   -1    0    0    0    0 -0.00000000000E+00 -0.00000000000E+00 -0.45593999997E+02  0.45594000000E+02  0.51100000000E-03 0.  1.
    9900012    2    1    2    0    0  0.20825959288E+02 -0.24399944636E+02 -0.29232610059E+02  0.47787269945E+02  0.19999994987E+02 0.  0.
         12    1    1    2    0    0 -0.20825959288E+02  0.24399944636E+02  0.29232610059E+02  0.43400730055E+02  0.00000000000E+00 0. -1.
         11    1    3    3    0    0  0.14412903515E+02 -0.26491670536E+02 -0.22685342200E+02  0.37738112652E+02  0.51100000000E-03 0. -1.
        -11    1    3    3    0    0  0.15368392361E+01  0.18222570230E+01 -0.36841444403E+01  0.43880993623E+01  0.51100000000E-03 0.  1.
         12    1    3    3    0    0  0.48762165364E+01  0.26946887759E+00 -0.28631234188E+01  0.56610579309E+01  0.00000000000E+00 0. -1.
</event>
<event>
 7    1  0.2751796E-010  0.4778727E+02  0.7816164E-02  0.1312668E+00
        -11   -1    0    0    0    0  0.00000000000E+00  0.00000000000E+00  0.45593999997E+02  0.45594000000E+02  0.51100000000E-03 0.  1.
         11   -1    0    0    0    0 -0.00000000000E+00 -0.00000000000E+00 -0.45593999997E+02  0.45594000000E+02  0.51100000000E-03 0. -1.
    9900012    2    1    2    0    0 -0.77115322200E-01 -0.34814665331E+02  0.25914404141E+02  0.47787271771E+02  0.20000003311E+02 0.  0.
         12    1    1    2    0    0  0.77115322200E-01  0.34814665331E+02 -0.25914404141E+02  0.43400728229E+02  0.00000000000E+00 0. -1.
         11    1    3    3    0    0  0.63822212717E+01 -0.74306695461E+01  0.12252963839E+02  0.15687023980E+02  0.51100000000E-03 0. -1.
        -11    1    3    3    0    0 -0.20280091117E+01 -0.21678786511E+02  0.94261008355E+01  0.23726229847E+02  0.51100000000E-03 0.  1.
         12    1    3    3    0    0 -0.44313274823E+01 -0.57052092739E+01  0.42353394664E+01  0.83740179430E+01  0.00000000000E+00 0. -1.
</event>
<event>
 7    1  0.2751796E-010  0.4778721E+02  0.7816164E-02  0.1312668E+00
        -11   -1    0    0    0    0  0.00000000000E+00  0.00000000000E+00  0.45593999997E+02  0.45594000000E+02  0.51100000000E-03 0.  1.
         11   -1    0    0    0    0 -0.00000000000E+00 -0.00000000000E+00 -0.45593999997E+02  0.45594000000E+02  0.51100000000E-03 0. -1.
    9900012    2    1    2    0    0  0.27857665611E+02 -0.23938989208E+02  0.23119342594E+02  0.47787208077E+02  0.19999712905E+02 0.  0.
         12    1    1    2    0    0 -0.27857665611E+02  0.23938989208E+02 -0.23119342594E+02  0.43400791923E+02  0.00000000000E+00 0. -1.
         11    1    3    3    0    0  0.72136399478E+01 -0.10389030311E+01  0.72789801784E+01  0.10300459868E+02  0.51100000000E-03 0. -1.
        -11    1    3    3    0    0  0.70973954286E+01 -0.61308311182E+01 -0.18988919388E+01  0.95690074159E+01  0.51100000000E-03 0.  1.
        -12    1    3    3    0    0  0.13546630234E+02 -0.16769255059E+02  0.17739254354E+02  0.27917740793E+02  0.00000000000E+00 0.  1.
</event>
<event>
 7    1  0.2751796E-010  0.4778732E+02  0.7816164E-02  0.1312668E+00
        -11   -1    0    0    0    0  0.00000000000E+00  0.00000000000E+00  0.45593999997E+02  0.45594000000E+02  0.51100000000E-03 0.  1.
         11   -1    0    0    0    0 -0.00000000000E+00 -0.00000000000E+00 -0.45593999997E+02  0.45594000000E+02  0.51100000000E-03 0. -1.
    9900012    2    1    2    0    0 -0.17146078180E+02  0.26961295976E+02  0.29372083300E+02  0.47787323104E+02  0.20000237359E+02 0.  0.
         12    1    1    2    0    0  0.17146078180E+02 -0.26961295976E+02 -0.29372083300E+02  0.43400676896E+02  0.00000000000E+00 0. -1.
         11    1    3    3    0    0 -0.68848780287E+01  0.73996946723E+01  0.28580246377E+01  0.10503586616E+02  0.51100000000E-03 0. -1.
        -11    1    3    3    0    0 -0.24751895033E+01  0.14956114212E+02  0.23068239715E+02  0.27603543237E+02  0.51100000000E-03 0.  1.
        -12    1    3    3    0    0 -0.77860106482E+01  0.46054870913E+01  0.34458189473E+01  0.96801932512E+01  0.00000000000E+00 0.  1.
</event>
<event>
 7    1  0.2751796E-010  0.4778727E+02  0.7816164E-02  0.1312668E+00
        -11   -1    0    0    0    0  0.00000000000E+00  0.00000000000E+00  0.45593999997E+02  0.45594000000E+02  0.51100000000E-03 0. -1.
         11   -1    0    0    0    0 -0.00000000000E+00 -0.00000000000E+00 -0.45593999997E+02  0.45594000000E+02  0.51100000000E-03 0.  1.
    9900012    2    1    2    0    0  0.37378243746E+02  0.21101509765E+02 -0.64200009493E+01  0.47787271526E+02  0.20000002194E+02 0.  0.
         12    1    1    2    0    0 -0.37378243746E+02 -0.21101509765E+02  0.64200009493E+01  0.43400728474E+02  0.00000000000E+00 0. -1.
         11    1    3    3    0    0  0.11879817916E+02  0.16076110027E+02 -0.10814448751E+01  0.20018514195E+02  0.51100000000E-03 0. -1.
        -11    1    3    3    0    0  0.20311600494E+02  0.55436786777E+01 -0.11572586968E+01  0.21086316318E+02  0.51100000000E-03 0.  1.
         12    1    3    3    0    0  0.51868253358E+01 -0.51827893919E+00 -0.41812973774E+01  0.66824410122E+01  0.00000000000E+00 0. -1.
</event>
<event>
 7    1  0.2751796E-010  0.4778727E+02  0.7816164E-02  0.1312668E+00
        -11   -1    0    0    0    0  0.00000000000E+00  0.00000000000E+00  0.45593999997E+02  0.45594000000E+02  0.51100000000E-03 0. -1.
         11   -1    0    0    0    0 -0.00000000000E+00 -0.00000000000E+00 -0.45593999997E+02  0.45594000000E+02  0.51100000000E-03 0.  1.
    9900012    2    1    2    0    0  0.18069632674E+02  0.38747157968E+02 -0.74679158727E+01  0.47787266791E+02  0.19999980608E+02 0.  0.
         12    1    1    2    0    0 -0.18069632674E+02 -0.38747157968E+02  0.74679158727E+01  0.43400733209E+02  0.00000000000E+00 0. -1.
         11    1    3    3    0    0  0.19520086700E+01  0.64756602840E+00 -0.48258582648E+01  0.52458162246E+01  0.51100000000E-03 0. -1.
        -11    1    3    3    0    0  0.82002020975E+01  0.23377826982E+02  0.28708468040E+01  0.24940085615E+02  0.51100000000E-03 0.  1.
         12    1    3    3    0    0  0.79174219063E+01  0.14721764958E+02 -0.55129044119E+01  0.17601364952E+02  0.00000000000E+00 0. -1.
</event>
<event>
 7    1  0.2751796E-010  0.4778728E+02  0.7816164E-02  0.1312668E+00
        -11   -1    0    0    0    0  0.00000000000E+00  0.00000000000E+00  0.45593999997E+02  0.45594000000E+02  0.51100000000E-03 0.  1.
         11   -1    0    0    0    0 -0.00000000000E+00 -0.00000000000E+00 -0.45593999997E+02  0.45594000000E+02  0.51100000000E-03 0. -1.
    9900012    2    1    2    0    0  0.24413562518E+02  0.35807785559E+02 -0.23244867214E+01  0.47787276734E+02  0.20000025943E+02 0.  0.
         12    1    1    2    0    0 -0.24413562518E+02 -0.35807785559E+02  0.23244867214E+01  0.43400723266E+02  0.00000000000E+00 0. -1.
         11    1    3    3    0    0  0.17229979131E+02  0.12149447149E+02 -0.60212817268E+01  0.21925717338E+02  0.51100000000E-03 0. -1.
        -11    1    3    3    0    0 -0.55698275421E+00  0.85686283410E+01  0.20085682239E+01  0.88185014603E+01  0.51100000000E-03 0.  1.
        -12    1    3    3    0    0  0.77405661406E+01  0.15089710069E+02  0.16882267815E+01  0.17043057936E+02  0.00000000000E+00 0.  1.
</event>
<event>
 7    1  0.2751796E-010  0.4778727E+02  0.7816164E-02  0.1312668E+00
        -11   -1    0    0    0    0  0.00000000000E+00  0.00000000000E+00  0.45593999997E+02  0.45594000000E+02  0.51100000000E-03 0.  1.
         11   -1    0    0    0    0 -0.00000000000E+00 -0.00000000000E+00 -0.45593999997E+02  0.45594000000E+02  0.51100000000E-03 0. -1.
    9900012    2    1    2    0    0 -0.19640434259E+02  0.25913179789E+02  0.28746892194E+02  0.47787270104E+02  0.19999995714E+02 0.  0.
         12    1    1    2    0    0  0.19640434259E+02 -0.25913179789E+02 -0.28746892194E+02  0.43400729896E+02  0.00000000000E+00 0. -1.
         11    1    3    3    0    0  0.23713812688E+01  0.31630255223E+01  0.23017499095E+01  0.45745199184E+01  0.51100000000E-03 0. -1.
        -11    1    3    3    0    0 -0.42824521651E+01  0.70104067346E+01  0.74675215111E+00  0.82488082877E+01  0.51100000000E-03 0.  1.
         12    1    3    3    0    0 -0.17729363363E+02  0.15739747532E+02  0.25698390133E+02  0.34963941898E+02  0.00000000000E+00 0. -1.
</event>
<event>
 7    1  0.2751796E-010  0.4778727E+02  0.7816164E-02  0.1312668E+00
        -11   -1    0    0    0    0  0.00000000000E+00  0.00000000000E+00  0.45593999997E+02  0.45594000000E+02  0.51100000000E-03 0.  1.
         11   -1    0    0    0    0 -0.00000000000E+00 -0.00000000000E+00 -0.45593999997E+02  0.45594000000E+02  0.51100000000E-03 0. -1.
    9900012    2    1    2    0    0 -0.44616568748E+01 -0.68048976215E+01  0.42631094568E+02  0.47787271460E+02  0.20000001895E+02 0.  0.
         12    1    1    2    0    0  0.44616568748E+01  0.68048976215E+01 -0.42631094568E+02  0.43400728540E+02  0.00000000000E+00 0. -1.
         11    1    3    3    0    0 -0.24133302194E+01 -0.81209627043E+01  0.71229317616E+01  0.11068439598E+02  0.51100000000E-03 0. -1.
        -11    1    3    3    0    0 -0.48777985303E+01  0.30585990615E+01  0.18008260390E+02  0.18906226204E+02  0.51100000000E-03 0.  1.
         12    1    3    3    0    0  0.28294718749E+01 -0.17425339787E+01  0.17499902416E+02  0.17812605658E+02  0.00000000000E+00 0. -1.
</event>
<event>
 7    1  0.2751796E-010  0.4778727E+02  0.7816164E-02  0.1312668E+00
        -11   -1    0    0    0    0  0.00000000000E+00  0.00000000000E+00  0.45593999997E+02  0.45594000000E+02  0.51100000000E-03 0.  1.
         11   -1    0    0    0    0 -0.00000000000E+00 -0.00000000000E+00 -0.45593999997E+02  0.45594000000E+02  0.51100000000E-03 0. -1.
    9900012    2    1    2    0    0 -0.25281606769E+01 -0.25257857246E+02  0.35203301075E+02  0.47787270102E+02  0.19999995703E+02 0.  0.
         12    1    1    2    0    0  0.25281606769E+01  0.25257857246E+02 -0.35203301075E+02  0.43400729898E+02  0.00000000000E+00 0. -1.
         11    1    3    3    0    0  0.11378419299E+01  0.22993389697E+01  0.70219512679E+00  0.26598349972E+01  0.51100000000E-03 0. -1.
        -11    1    3    3    0    0 -0.20220801496E+01 -0.27340975296E+02  0.32855276467E+02  0.42791201552E+02  0.51100000000E-03 0.  1.
        -12    1    3    3    0    0 -0.16439224572E+01 -0.21622091997E+00  0.16458294813E+01  0.23362335527E+01  0.00000000000E+00 0.  1.
</event>
<event>
 7    1  0.2751796E-010  0.4778727E+02  0.7816164E-02  0.1312668E+00
        -11   -1    0    0    0    0  0.00000000000E+00  0.00000000000E+00  0.45593999997E+02  0.45594000000E+02  0.51100000000E-03 0.  1.
         11   -1    0    0    0    0 -0.00000000000E+00 -0.00000000000E+00 -0.45593999997E+02  0.45594000000E+02  0.51100000000E-03 0. -1.
    9900012    2    1    2    0    0 -0.33290097971E+01  0.42885910294E+02  0.57740579226E+01  0.47787270134E+02  0.19999995850E+02 0.  0.
         12    1    1    2    0    0  0.33290097971E+01 -0.42885910294E+02 -0.57740579226E+01  0.43400729866E+02  0.00000000000E+00 0. -1.
         11    1    3    3    0    0 -0.31198665623E+00  0.18788420295E+02  0.95435151371E+01  0.21075596178E+02  0.51100000000E-03 0.  1.
        -11    1    3    3    0    0 -0.61591744068E+01  0.21501012768E+02 -0.33192908109E+01  0.22610764498E+02  0.51100000000E-03 0. -1.
        -12    1    3    3    0    0  0.31421512660E+01  0.25964772316E+01 -0.45016640353E+00  0.41009094581E+01  0.00000000000E+00 0.  1.
</event>
<event>
 7    1  0.2751796E-010  0.4778727E+02  0.7816164E-02  0.1312668E+00
        -11   -1    0    0    0    0  0.00000000000E+00  0.00000000000E+00  0.45593999997E+02  0.45594000000E+02  0.51100000000E-03 0.  1.
         11   -1    0    0    0    0 -0.00000000000E+00 -0.00000000000E+00 -0.45593999997E+02  0.45594000000E+02  0.51100000000E-03 0. -1.
    9900012    2    1    2    0    0 -0.19465053639E+02  0.20080945091E+02  0.33188716286E+02  0.47787267776E+02  0.19999985097E+02 0.  0.
         12    1    1    2    0    0  0.19465053639E+02 -0.20080945091E+02 -0.33188716286E+02  0.43400732224E+02  0.00000000000E+00 0. -1.
         11    1    3    3    0    0  0.14630965668E+01 -0.43587460887E+00 -0.11450972209E+00  0.15309314080E+01  0.51100000000E-03 0. -1.
        -11    1    3    3    0    0 -0.12287791452E+02  0.17004116707E+02  0.15250858263E+02  0.25936817110E+02  0.51100000000E-03 0.  1.
        -12    1    3    3    0    0 -0.86403587535E+01  0.35127029930E+01  0.18052367744E+02  0.20319519258E+02  0.00000000000E+00 0.  1.
</event>
<event>
 7    1  0.2751796E-010  0.4778727E+02  0.7816164E-02  0.1312668E+00
        -11   -1    0    0    0    0  0.00000000000E+00  0.00000000000E+00  0.45593999997E+02  0.45594000000E+02  0.51100000000E-03 0. -1.
         11   -1    0    0    0    0 -0.00000000000E+00 -0.00000000000E+00 -0.45593999997E+02  0.45594000000E+02  0.51100000000E-03 0.  1.
    9900012    2    1    2    0    0 -0.42517798404E+02 -0.78675410384E+01 -0.37365858315E+01  0.47787268937E+02  0.19999990390E+02 0.  0.
         12    1    1    2    0    0  0.42517798404E+02  0.78675410384E+01  0.37365858315E+01  0.43400731063E+02  0.00000000000E+00 0. -1.
         11    1    3    3    0    0 -0.18902956672E+02 -0.84597794714E+01  0.63761894673E+01  0.21668997024E+02  0.51100000000E-03 0. -1.
        -11    1    3    3    0    0 -0.21205144779E+02 -0.93620953175E+00 -0.88144353697E+01  0.22983231377E+02  0.51100000000E-03 0.  1.
         12    1    3    3    0    0 -0.24096969536E+01  0.15284479648E+01 -0.12983399291E+01  0.31350405357E+01  0.00000000000E+00 0. -1.
</event>
<event>
 7    1  0.2751796E-010  0.4778727E+02  0.7816164E-02  0.1312668E+00
        -11   -1    0    0    0    0  0.00000000000E+00  0.00000000000E+00  0.45593999997E+02  0.45594000000E+02  0.51100000000E-03 0.  1.
         11   -1    0    0    0    0 -0.00000000000E+00 -0.00000000000E+00 -0.45593999997E+02  0.45594000000E+02  0.51100000000E-03 0. -1.
    9900012    2    1    2    0    0 -0.30588505769E+02  0.20512005893E+02  0.22961365252E+02  0.47787269993E+02  0.19999995205E+02 0.  0.
         12    1    1    2    0    0  0.30588505769E+02 -0.20512005893E+02 -0.22961365252E+02  0.43400730007E+02  0.00000000000E+00 0. -1.
         11    1    3    3    0    0 -0.11888670861E+02 -0.70421741134E-01  0.91026078062E+01  0.14973407201E+02  0.51100000000E-03 0.  1.
        -11    1    3    3    0    0 -0.16318802624E+02  0.21447542815E+02  0.13804922221E+02  0.30279965153E+02  0.51100000000E-03 0. -1.
         12    1    3    3    0    0 -0.23810322839E+01 -0.86511518087E+00  0.53835225124E-01  0.25338976390E+01  0.00000000000E+00 0. -1.
</event>
<event>
 7    1  0.2751796E-010  0.4778728E+02  0.7816164E-02  0.1312668E+00
        -11   -1    0    0    0    0  0.00000000000E+00  0.00000000000E+00  0.45593999997E+02  0.45594000000E+02  0.51100000000E-03 0.  1.
         11   -1    0    0    0    0 -0.00000000000E+00 -0.00000000000E+00 -0.45593999997E+02  0.45594000000E+02  0.51100000000E-03 0. -1.
    9900012    2    1    2    0    0  0.32926587741E+02  0.15667622547E+02  0.23536954450E+02  0.47787276488E+02  0.20000024821E+02 0.  0.
         12    1    1    2    0    0 -0.32926587741E+02 -0.15667622547E+02 -0.23536954450E+02  0.43400723512E+02  0.00000000000E+00 0. -1.
         11    1    3    3    0    0  0.24790281673E+02  0.10378095503E+02  0.21204437683E+02  0.34232895136E+02  0.51100000000E-03 0. -1.
        -11    1    3    3    0    0  0.62570698038E+01  0.60232399778E+01  0.51439091473E+01  0.10094064788E+02  0.51100000000E-03 0.  1.
         12    1    3    3    0    0  0.18792362650E+01 -0.73371293450E+00 -0.28113923804E+01  0.34603165645E+01  0.00000000000E+00 0. -1.
</event>
<event>
 7    1  0.2751796E-010  0.4778727E+02  0.7816164E-02  0.1312668E+00
        -11   -1    0    0    0    0  0.00000000000E+00  0.00000000000E+00  0.45593999997E+02  0.45594000000E+02  0.51100000000E-03 0.  1.
         11   -1    0    0    0    0 -0.00000000000E+00 -0.00000000000E+00 -0.45593999997E+02  0.45594000000E+02  0.51100000000E-03 0. -1.
    9900012    2    1    2    0    0 -0.35874931254E+02 -0.23024205150E+02  0.81546924592E+01  0.47787265855E+02  0.19999976337E+02 0.  0.
         12    1    1    2    0    0  0.35874931254E+02  0.23024205150E+02 -0.81546924592E+01  0.43400734145E+02  0.00000000000E+00 0. -1.
         11    1    3    3    0    0 -0.26974883168E+02 -0.81709298966E+01  0.85096154607E+01  0.29441840514E+02  0.51100000000E-03 0.  1.
        -11    1    3    3    0    0 -0.61534208212E+01 -0.14229710045E+02 -0.62639974064E+00  0.15515850369E+02  0.51100000000E-03 0. -1.
         12    1    3    3    0    0 -0.27466272650E+01 -0.62356520774E+00  0.27147673918E+00  0.28295749718E+01  0.00000000000E+00 0. -1.
</event>
<event>
 7    1  0.2751796E-010  0.4778727E+02  0.7816164E-02  0.1312668E+00
        -11   -1    0    0    0    0  0.00000000000E+00  0.00000000000E+00  0.45593999997E+02  0.45594000000E+02  0.51100000000E-03 0.  1.
         11   -1    0    0    0    0 -0.00000000000E+00 -0.00000000000E+00 -0.45593999997E+02  0.45594000000E+02  0.51100000000E-03 0. -1.
    9900012    2    1    2    0    0  0.12382536012E+02  0.35445885445E+02  0.21768902274E+02  0.47787273055E+02  0.20000009168E+02 0.  0.
         12    1    1    2    0    0 -0.12382536012E+02 -0.35445885445E+02 -0.21768902274E+02  0.43400726945E+02  0.00000000000E+00 0. -1.
         11    1    3    3    0    0  0.23846584322E+01  0.26372031485E+01  0.32207008893E+01  0.47973274606E+01  0.51100000000E-03 0. -1.
        -11    1    3    3    0    0  0.13775337997E+02  0.18346761840E+02  0.15629598105E+02  0.27760546539E+02  0.51100000000E-03 0.  1.
        -12    1    3    3    0    0 -0.37774604166E+01  0.14461920457E+02  0.29186032795E+01  0.15229399056E+02  0.00000000000E+00 0.  1.
</event>
<event>
 7    1  0.2751796E-010  0.4778727E+02  0.7816164E-02  0.1312668E+00
        -11   -1    0    0    0    0  0.00000000000E+00  0.00000000000E+00  0.45593999997E+02  0.45594000000E+02  0.51100000000E-03 0. -1.
         11   -1    0    0    0    0 -0.00000000000E+00 -0.00000000000E+00 -0.45593999997E+02  0.45594000000E+02  0.51100000000E-03 0.  1.
    9900012    2    1    2    0    0  0.28468730619E+02 -0.28087707410E+02  0.16859280442E+02  0.47787271117E+02  0.20000000329E+02 0.  0.
         12    1    1    2    0    0 -0.28468730619E+02  0.28087707410E+02 -0.16859280442E+02  0.43400728883E+02  0.00000000000E+00 0. -1.
         11    1    3    3    0    0 -0.15546396112E+00  0.10970613802E+01  0.13283958843E+01  0.17298406290E+01  0.51100000000E-03 0. -1.
        -11    1    3    3    0    0  0.74153498163E+01 -0.25378398809E+01  0.79564074025E+01  0.11168368868E+02  0.51100000000E-03 0.  1.
        -12    1    3    3    0    0  0.21208844763E+02 -0.26646928909E+02  0.75744771552E+01  0.34889061619E+02  0.00000000000E+00 0.  1.
</event>
<event>
 7    1  0.2751796E-010  0.4778728E+02  0.7816164E-02  0.1312668E+00
        -11   -1    0    0    0    0  0.00000000000E+00  0.00000000000E+00  0.45593999997E+02  0.45594000000E+02  0.51100000000E-03 0.  1.
         11   -1    0    0    0    0 -0.00000000000E+00 -0.00000000000E+00 -0.45593999997E+02  0.45594000000E+02  0.51100000000E-03 0. -1.
    9900012    2    1    2    0    0  0.66534830350E+01 -0.40205469524E+02 -0.14928973731E+02  0.47787275665E+02  0.20000021067E+02 0.  0.
         12    1    1    2    0    0 -0.66534830350E+01  0.40205469524E+02  0.14928973731E+02  0.43400724335E+02  0.00000000000E+00 0. -1.
         11    1    3    3    0    0 -0.50096347304E+00 -0.12824358140E+02 -0.78389852028E+01  0.15038777058E+02  0.51100000000E-03 0. -1.
        -11    1    3    3    0    0  0.93455123745E+01 -0.76731882693E+01 -0.17961981466E+01  0.12224677820E+02  0.51100000000E-03 0.  1.
        -12    1    3    3    0    0 -0.21910658664E+01 -0.19707923114E+02 -0.52937903816E+01  0.20523820787E+02  0.00000000000E+00 0.  1.
</event>
<event>
 7    1  0.2751796E-010  0.4778727E+02  0.7816164E-02  0.1312668E+00
        -11   -1    0    0    0    0  0.00000000000E+00  0.00000000000E+00  0.45593999997E+02  0.45594000000E+02  0.51100000000E-03 0.  1.
         11   -1    0    0    0    0 -0.00000000000E+00 -0.00000000000E+00 -0.45593999997E+02  0.45594000000E+02  0.51100000000E-03 0. -1.
    9900012    2    1    2    0    0 -0.32199686184E+01 -0.27800302469E+02  0.33172258472E+02  0.47787265589E+02  0.19999975126E+02 0.  0.
         12    1    1    2    0    0  0.32199686184E+01  0.27800302469E+02 -0.33172258472E+02  0.43400734411E+02  0.00000000000E+00 0. -1.
         11    1    3    3    0    0 -0.76299143168E+01 -0.55885746949E+01  0.36654432141E+01  0.10143137277E+02  0.51100000000E-03 0. -1.
        -11    1    3    3    0    0  0.22644604518E+01 -0.19718374260E+02  0.26990429212E+02  0.33502616822E+02  0.51100000000E-03 0.  1.
        -12    1    3    3    0    0  0.21454852466E+01 -0.24933535141E+01  0.25163860457E+01  0.41415114899E+01  0.00000000000E+00 0.  1.
</event>
<event>
 7    1  0.2751796E-010  0.4778727E+02  0.7816164E-02  0.1312668E+00
        -11   -1    0    0    0    0  0.00000000000E+00  0.00000000000E+00  0.45593999997E+02  0.45594000000E+02  0.51100000000E-03 0. -1.
         11   -1    0    0    0    0 -0.00000000000E+00 -0.00000000000E+00 -0.45593999997E+02  0.45594000000E+02  0.51100000000E-03 0.  1.
    9900012    2    1    2    0    0  0.99976125264E+01  0.29602297590E+02 -0.30122672403E+02  0.47787266463E+02  0.19999979113E+02 0.  0.
         12    1    1    2    0    0 -0.99976125264E+01 -0.29602297590E+02  0.30122672403E+02  0.43400733537E+02  0.00000000000E+00 0. -1.
         11    1    3    3    0    0  0.33682846456E+01  0.14832768275E+02 -0.21594846201E+02  0.26413892914E+02  0.51100000000E-03 0.  1.
        -11    1    3    3    0    0  0.32404880839E+01  0.22538587292E+01  0.22226648004E+01  0.45299979326E+01  0.51100000000E-03 0. -1.
         12    1    3    3    0    0  0.33888397969E+01  0.12515670586E+02 -0.10750491002E+02  0.16843375617E+02  0.00000000000E+00 0. -1.
</event>
<event>
 7    1  0.2751796E-010  0.4778725E+02  0.7816164E-02  0.1312668E+00
        -11   -1    0    0    0    0  0.00000000000E+00  0.00000000000E+00  0.45593999997E+02  0.45594000000E+02  0.51100000000E-03 0.  1.
         11   -1    0    0    0    0 -0.00000000000E+00 -0.00000000000E+00 -0.45593999997E+02  0.45594000000E+02  0.51100000000E-03 0. -1.
    9900012    2    1    2    0    0  0.10296156801E+02  0.10306213522E+02  0.40882710835E+02  0.47787251997E+02  0.19999913154E+02 0.  0.
         12    1    1    2    0    0 -0.10296156801E+02 -0.10306213522E+02 -0.40882710835E+02  0.43400748003E+02  0.00000000000E+00 0. -1.
         11    1    3    3    0    0 -0.31376656490E+01 -0.21641575069E+01  0.80503372798E+01  0.89071013253E+01  0.51100000000E-03 0. -1.
        -11    1    3    3    0    0  0.92329672904E+01  0.12330888158E+02  0.30251702941E+02  0.33947960452E+02  0.51100000000E-03 0.  1.
        -12    1    3    3    0    0  0.42008551600E+01  0.13948287038E+00  0.25806706144E+01  0.49321902200E+01  0.00000000000E+00 0.  1.
</event>
<event>
 7    1  0.2751796E-010  0.4778727E+02  0.7816164E-02  0.1312668E+00
        -11   -1    0    0    0    0  0.00000000000E+00  0.00000000000E+00  0.45593999997E+02  0.45594000000E+02  0.51100000000E-03 0. -1.
         11   -1    0    0    0    0 -0.00000000000E+00 -0.00000000000E+00 -0.45593999997E+02  0.45594000000E+02  0.51100000000E-03 0.  1.
    9900012    2    1    2    0    0 -0.31792735387E+02  0.28939100587E+02  0.59475755333E+01  0.47787271655E+02  0.20000002782E+02 0.  0.
         12    1    1    2    0    0  0.31792735387E+02 -0.28939100587E+02 -0.59475755333E+01  0.43400728345E+02  0.00000000000E+00 0. -1.
         11    1    3    3    0    0 -0.17131993393E+02  0.22339365943E+02  0.45032379301E+01  0.28510202042E+02  0.51100000000E-03 0. -1.
        -11    1    3    3    0    0 -0.13145952083E+02  0.10898841808E+01  0.26057328477E+01  0.13445956553E+02  0.51100000000E-03 0.  1.
        -12    1    3    3    0    0 -0.15147899114E+01  0.55098504633E+01 -0.11613952446E+01  0.58311130600E+01  0.00000000000E+00 0.  1.
</event>
<event>
 7    1  0.2751796E-010  0.4778728E+02  0.7816164E-02  0.1312668E+00
        -11   -1    0    0    0    0  0.00000000000E+00  0.00000000000E+00  0.45593999997E+02  0.45594000000E+02  0.51100000000E-03 0.  1.
         11   -1    0    0    0    0 -0.00000000000E+00 -0.00000000000E+00 -0.45593999997E+02  0.45594000000E+02  0.51100000000E-03 0. -1.
    9900012    2    1    2    0    0 -0.16826289978E+02  0.14875816142E+02  0.37137694622E+02  0.47787282239E+02  0.20000051041E+02 0.  0.
         12    1    1    2    0    0  0.16826289978E+02 -0.14875816142E+02 -0.37137694622E+02  0.43400717761E+02  0.00000000000E+00 0. -1.
         11    1    3    3    0    0 -0.53460458196E+01  0.32581089228E+00  0.77881683121E+01  0.94520857254E+01  0.51100000000E-03 0. -1.
        -11    1    3    3    0    0 -0.69684629271E+01  0.69179515051E+01  0.27604869186E+02  0.29299254796E+02  0.51100000000E-03 0.  1.
        -12    1    3    3    0    0 -0.45117812314E+01  0.76320537444E+01  0.17446571241E+01  0.90359417173E+01  0.00000000000E+00 0.  1.
</event>
<event>
 7    1  0.2751796E-010  0.4778726E+02  0.7816164E-02  0.1312668E+00
        -11   -1    0    0    0    0  0.00000000000E+00  0.00000000000E+00  0.45593999997E+02  0.45594000000E+02  0.51100000000E-03 0.  1.
         11   -1    0    0    0    0 -0.00000000000E+00 -0.00000000000E+00 -0.45593999997E+02  0.45594000000E+02  0.51100000000E-03 0. -1.
    9900012    2    1    2    0    0 -0.21519382216E+02  0.91860864785E+01  0.36553474032E+02  0.47787257385E+02  0.19999937722E+02 0.  0.
         12    1    1    2    0    0  0.21519382216E+02 -0.91860864785E+01 -0.36553474032E+02  0.43400742615E+02  0.00000000000E+00 0. -1.
         11    1    3    3    0    0 -0.33048277878E+00 -0.24596855489E+01 -0.65742396081E+00  0.25673874643E+01  0.51100000000E-03 0. -1.
        -11    1    3    3    0    0 -0.34712042242E+01  0.57969224332E+01  0.13027169055E+02  0.14675172991E+02  0.51100000000E-03 0.  1.
         12    1    3    3    0    0 -0.17717695213E+02  0.58488495942E+01  0.24183728938E+02  0.30544696930E+02  0.00000000000E+00 0. -1.
</event>
<event>
 7    1  0.2751796E-010  0.4778727E+02  0.7816164E-02  0.1312668E+00
        -11   -1    0    0    0    0  0.00000000000E+00  0.00000000000E+00  0.45593999997E+02  0.45594000000E+02  0.51100000000E-03 0. -1.
         11   -1    0    0    0    0 -0.00000000000E+00 -0.00000000000E+00 -0.45593999997E+02  0.45594000000E+02  0.51100000000E-03 0.  1.
    9900012    2    1    2    0    0  0.34618486769E+02  0.19763318433E+02  0.17163764339E+02  0.47787272034E+02  0.20000004513E+02 0.  0.
         12    1    1    2    0    0 -0.34618486769E+02 -0.19763318433E+02 -0.17163764339E+02  0.43400727966E+02  0.00000000000E+00 0. -1.
         11    1    3    3    0    0  0.59356857260E+01  0.59642131319E+01  0.12586969613E+02  0.15140541854E+02  0.51100000000E-03 0. -1.
        -11    1    3    3    0    0  0.17033642446E+02  0.51963486455E+01  0.17756484779E+01  0.17896925490E+02  0.51100000000E-03 0.  1.
         12    1    3    3    0    0  0.11649158598E+02  0.86027566556E+01  0.28011462475E+01  0.14749804691E+02  0.00000000000E+00 0. -1.
</event>
<event>
 7    1  0.2751796E-010  0.4778727E+02  0.7816164E-02  0.1312668E+00
        -11   -1    0    0    0    0  0.00000000000E+00  0.00000000000E+00  0.45593999997E+02  0.45594000000E+02  0.51100000000E-03 0. -1.
         11   -1    0    0    0    0 -0.00000000000E+00 -0.00000000000E+00 -0.45593999997E+02  0.45594000000E+02  0.51100000000E-03 0.  1.
    9900012    2    1    2    0    0  0.98120332034E+01 -0.24143815336E+02 -0.34704810029E+02  0.47787266669E+02  0.19999980050E+02 0.  0.
         12    1    1    2    0    0 -0.98120332034E+01  0.24143815336E+02  0.34704810029E+02  0.43400733331E+02  0.00000000000E+00 0. -1.
         11    1    3    3    0    0  0.92955987373E+01 -0.37254042238E+01 -0.11287634759E+02  0.15089648479E+02  0.51100000000E-03 0. -1.
        -11    1    3    3    0    0 -0.36077642650E+01 -0.60270896747E+01 -0.11863580042E+02  0.13787178994E+02  0.51100000000E-03 0.  1.
         12    1    3    3    0    0  0.41241987311E+01 -0.14391321437E+02 -0.11553595228E+02  0.18910439195E+02  0.00000000000E+00 0. -1.
</event>
<event>
 7    1  0.2751796E-010  0.4778727E+02  0.7816164E-02  0.1312668E+00
        -11   -1    0    0    0    0  0.00000000000E+00  0.00000000000E+00  0.45593999997E+02  0.45594000000E+02  0.51100000000E-03 0.  1.
         11   -1    0    0    0    0 -0.00000000000E+00 -0.00000000000E+00 -0.45593999997E+02  0.45594000000E+02  0.51100000000E-03 0. -1.
    9900012    2    1    2    0    0 -0.27086556352E+01  0.48154113708E+01  0.43047624746E+02  0.47787274219E+02  0.20000014474E+02 0.  0.
         12    1    1    2    0    0  0.27086556352E+01 -0.48154113708E+01 -0.43047624746E+02  0.43400725781E+02  0.00000000000E+00 0. -1.
         11    1    3    3    0    0 -0.59490121445E+01 -0.31283461985E+01  0.64002216252E+01  0.92811708607E+01  0.51100000000E-03 0. -1.
        -11    1    3    3    0    0  0.25239486574E+01  0.93251509612E+01  0.34664546113E+02  0.35985545914E+02  0.51100000000E-03 0.  1.
        -12    1    3    3    0    0  0.71640785188E+00 -0.13813933920E+01  0.19828570083E+01  0.25205574441E+01  0.00000000000E+00 0.  1.
</event>
<event>
 7    1  0.2751796E-010  0.4778727E+02  0.7816164E-02  0.1312668E+00
        -11   -1    0    0    0    0  0.00000000000E+00  0.00000000000E+00  0.45593999997E+02  0.45594000000E+02  0.51100000000E-03 0.  1.
         11   -1    0    0    0    0 -0.00000000000E+00 -0.00000000000E+00 -0.45593999997E+02  0.45594000000E+02  0.51100000000E-03 0. -1.
    9900012    2    1    2    0    0  0.33706715233E+02  0.41699256752E+01  0.27020218333E+02  0.47787272694E+02  0.20000007522E+02 0.  0.
         12    1    1    2    0    0 -0.33706715233E+02 -0.41699256752E+01 -0.27020218333E+02  0.43400727306E+02  0.00000000000E+00 0. -1.
         11    1    3    3    0    0  0.74379075557E+00  0.22761775647E+01  0.11772639823E+01  0.26683627450E+01  0.51100000000E-03 0. -1.
        -11    1    3    3    0    0  0.82169989989E+01 -0.67063496964E+01  0.95192718730E+01  0.14251692393E+02  0.51100000000E-03 0.  1.
        -12    1    3    3    0    0  0.24745925478E+02  0.86000978070E+01  0.16323682477E+02  0.30867217557E+02  0.00000000000E+00 0.  1.
</event>
<event>
 7    1  0.2751796E-010  0.4778727E+02  0.7816164E-02  0.1312668E+00
        -11   -1    0    0    0    0  0.00000000000E+00  0.00000000000E+00  0.45593999997E+02  0.45594000000E+02  0.51100000000E-03 0. -1.
         11   -1    0    0    0    0 -0.00000000000E+00 -0.00000000000E+00 -0.45593999997E+02  0.45594000000E+02  0.51100000000E-03 0.  1.
    9900012    2    1    2    0    0 -0.25200865868E+02  0.32916967199E+02  0.12845732939E+02  0.47787271609E+02  0.20000002576E+02 0.  0.
         12    1    1    2    0    0  0.25200865868E+02 -0.32916967199E+02 -0.12845732939E+02  0.43400728391E+02  0.00000000000E+00 0. -1.
         11    1    3    3    0    0 -0.29799863367E+00 -0.22497050834E+00  0.16209382107E+01  0.16633868640E+01  0.51100000000E-03 0. -1.
        -11    1    3    3    0    0 -0.95252177016E+01  0.23063360160E+02  0.12068985486E+02  0.27718383161E+02  0.51100000000E-03 0.  1.
        -12    1    3    3    0    0 -0.15377649533E+02  0.10078577548E+02 -0.84419075786E+00  0.18405501585E+02  0.00000000000E+00 0.  1.
</event>
<event>
 7    1  0.2751796E-010  0.4778727E+02  0.7816164E-02  0.1312668E+00
        -11   -1    0    0    0    0  0.00000000000E+00  0.00000000000E+00  0.45593999997E+02  0.45594000000E+02  0.51100000000E-03 0.  1.
         11   -1    0    0    0    0 -0.00000000000E+00 -0.00000000000E+00 -0.45593999997E+02  0.45594000000E+02  0.51100000000E-03 0. -1.
    9900012    2    1    2    0    0 -0.13379867110E+02  0.38078689750E+02  0.15956679215E+02  0.47787273410E+02  0.20000010786E+02 0.  0.
         12    1    1    2    0    0  0.13379867110E+02 -0.38078689750E+02 -0.15956679215E+02  0.43400726590E+02  0.00000000000E+00 0. -1.
         11    1    3    3    0    0  0.43105631011E+00  0.50742262897E+01  0.96955552398E-01  0.50934254310E+01  0.51100000000E-03 0. -1.
        -11    1    3    3    0    0 -0.12224539703E+02  0.33327456000E+02  0.10387661058E+02  0.36987324815E+02  0.51100000000E-03 0.  1.
        -12    1    3    3    0    0 -0.15863837165E+01 -0.32299254029E+00  0.54720626046E+01  0.57065231644E+01  0.00000000000E+00 0.  1.
</event>
<event>
 7    1  0.2751796E-010  0.4778728E+02  0.7816164E-02  0.1312668E+00
        -11   -1    0    0    0    0  0.00000000000E+00  0.00000000000E+00  0.45593999997E+02  0.45594000000E+02  0.51100000000E-03 0. -1.
         11   -1    0    0    0    0 -0.00000000000E+00 -0.00000000000E+00 -0.45593999997E+02  0.45594000000E+02  0.51100000000E-03 0.  1.
    9900012    2    1    2    0    0 -0.12640821433E+02  0.41278175395E+02  0.44658859080E+01  0.47787282640E+02  0.20000052867E+02 0.  0.
         12    1    1    2    0    0  0.12640821433E+02 -0.41278175395E+02 -0.44658859080E+01  0.43400717360E+02  0.00000000000E+00 0. -1.
         11    1    3    3    0    0  0.47795144205E+01  0.89029307614E+01  0.17667119304E+01  0.10258031270E+02  0.51100000000E-03 0. -1.
        -11    1    3    3    0    0 -0.83871198130E+01  0.16920217311E+02  0.48540801270E+01  0.19498708336E+02  0.51100000000E-03 0.  1.
         12    1    3    3    0    0 -0.90332160400E+01  0.15455027323E+02 -0.21549061494E+01  0.18030543033E+02  0.00000000000E+00 0. -1.
</event>
<event>
 7    1  0.2751796E-010  0.4778729E+02  0.7816164E-02  0.1312668E+00
        -11   -1    0    0    0    0  0.00000000000E+00  0.00000000000E+00  0.45593999997E+02  0.45594000000E+02  0.51100000000E-03 0. -1.
         11   -1    0    0    0    0 -0.00000000000E+00 -0.00000000000E+00 -0.45593999997E+02  0.45594000000E+02  0.51100000000E-03 0.  1.
    9900012    2    1    2    0    0  0.36076201223E+02 -0.98565499739E+01 -0.22022207812E+02  0.47787291377E+02  0.20000092704E+02 0.  0.
         12    1    1    2    0    0 -0.36076201223E+02  0.98565499739E+01  0.22022207812E+02  0.43400708623E+02  0.00000000000E+00 0. -1.
         11    1    3    3    0    0  0.22820325275E+02 -0.58259079447E+00 -0.64297291345E+01  0.23715987745E+02  0.51100000000E-03 0. -1.
        -11    1    3    3    0    0  0.85477623685E+01 -0.32940575664E+01 -0.35478781358E+01  0.98235684090E+01  0.51100000000E-03 0.  1.
         12    1    3    3    0    0  0.47081135791E+01 -0.59799016130E+01 -0.12044600542E+02  0.14247735223E+02  0.00000000000E+00 0. -1.
</event>
<event>
 7    1  0.2751796E-010  0.4778727E+02  0.7816164E-02  0.1312668E+00
        -11   -1    0    0    0    0  0.00000000000E+00  0.00000000000E+00  0.45593999997E+02  0.45594000000E+02  0.51100000000E-03 0. -1.
         11   -1    0    0    0    0 -0.00000000000E+00 -0.00000000000E+00 -0.45593999997E+02  0.45594000000E+02  0.51100000000E-03 0.  1.
    9900012    2    1    2    0    0 -0.42769018620E+02 -0.16876792633E+01  0.71823397932E+01  0.47787271666E+02  0.20000002834E+02 0.  0.
         12    1    1    2    0    0  0.42769018620E+02  0.16876792633E+01 -0.71823397932E+01  0.43400728334E+02  0.00000000000E+00 0. -1.
         11    1    3    3    0    0 -0.89338588774E+01  0.66391714591E+00  0.39617108118E+01  0.97953955120E+01  0.51100000000E-03 0. -1.
        -11    1    3    3    0    0 -0.16419159934E+02  0.68896010501E+01  0.40412968589E+01  0.18258901833E+02  0.51100000000E-03 0.  1.
        -12    1    3    3    0    0 -0.17415999808E+02 -0.92411974593E+01 -0.82066787748E+00  0.19732974321E+02  0.00000000000E+00 0.  1.
</event>
<event>
 7    1  0.2751796E-010  0.4778727E+02  0.7816164E-02  0.1312668E+00
        -11   -1    0    0    0    0  0.00000000000E+00  0.00000000000E+00  0.45593999997E+02  0.45594000000E+02  0.51100000000E-03 0.  1.
         11   -1    0    0    0    0 -0.00000000000E+00 -0.00000000000E+00 -0.45593999997E+02  0.45594000000E+02  0.51100000000E-03 0. -1.
    9900012    2    1    2    0    0  0.13952638737E+02 -0.10861574664E+02  0.39635507201E+02  0.47787270018E+02  0.19999995320E+02 0.  0.
         12    1    1    2    0    0 -0.13952638737E+02  0.10861574664E+02 -0.39635507201E+02  0.43400729982E+02  0.00000000000E+00 0. -1.
         11    1    3    3    0    0  0.30674818891E+01  0.42021858207E+01  0.17141727520E+02  0.17913867071E+02  0.51100000000E-03 0. -1.
        -11    1    3    3    0    0  0.67737953048E+01 -0.13766506323E+02  0.17817929954E+02  0.23513392509E+02  0.51100000000E-03 0.  1.
         12    1    3    3    0    0  0.41113615434E+01 -0.12972541610E+01  0.46758497276E+01  0.63600104382E+01  0.00000000000E+00 0. -1.
</event>
<event>
 7    1  0.2751796E-010  0.4778727E+02  0.7816164E-02  0.1312668E+00
        -11   -1    0    0    0    0  0.00000000000E+00  0.00000000000E+00  0.45593999997E+02  0.45594000000E+02  0.51100000000E-03 0.  1.
         11   -1    0    0    0    0 -0.00000000000E+00 -0.00000000000E+00 -0.45593999997E+02  0.45594000000E+02  0.51100000000E-03 0. -1.
    9900012    2    1    2    0    0 -0.46579348932E+01  0.19714011217E+02  0.38383393033E+02  0.47787268941E+02  0.19999990409E+02 0.  0.
         12    1    1    2    0    0  0.46579348932E+01 -0.19714011217E+02 -0.38383393033E+02  0.43400731059E+02  0.00000000000E+00 0. -1.
         11    1    3    3    0    0 -0.77626166691E+01  0.34461106096E+01  0.55063016446E+01  0.10121919479E+02  0.51100000000E-03 0. -1.
        -11    1    3    3    0    0  0.89046133650E-01  0.15117546905E+02  0.27917925021E+02  0.31748365177E+02  0.51100000000E-03 0.  1.
        -12    1    3    3    0    0  0.30156356423E+01  0.11503537026E+01  0.49591663669E+01  0.59169842845E+01  0.00000000000E+00 0.  1.
</event>
<event>
 7    1  0.2751796E-010  0.4778727E+02  0.7816164E-02  0.1312668E+00
        -11   -1    0    0    0    0  0.00000000000E+00  0.00000000000E+00  0.45593999997E+02  0.45594000000E+02  0.51100000000E-03 0.  1.
         11   -1    0    0    0    0 -0.00000000000E+00 -0.00000000000E+00 -0.45593999997E+02  0.45594000000E+02  0.51100000000E-03 0. -1.
    9900012    2    1    2    0    0  0.23938933074E+02 -0.94351937125E+01  0.34950361337E+02  0.47787272417E+02  0.20000006260E+02 0.  0.
         12    1    1    2    0    0 -0.23938933074E+02  0.94351937125E+01 -0.34950361337E+02  0.43400727583E+02  0.00000000000E+00 0. -1.
         11    1    3    3    0    0 -0.55828017506E+00 -0.64007426704E+01  0.87170255740E+01  0.10829022052E+02  0.51100000000E-03 0. -1.
        -11    1    3    3    0    0  0.20842608388E+02 -0.55588399075E+01  0.21191379620E+02  0.30238875574E+02  0.51100000000E-03 0.  1.
         12    1    3    3    0    0  0.36546048611E+01  0.25243888654E+01  0.50419561430E+01  0.67193747911E+01  0.00000000000E+00 0. -1.
</event>
<event>
 7    1  0.2751796E-010  0.4778727E+02  0.7816164E-02  0.1312668E+00
        -11   -1    0    0    0    0  0.00000000000E+00  0.00000000000E+00  0.45593999997E+02  0.45594000000E+02  0.51100000000E-03 0.  1.
         11   -1    0    0    0    0 -0.00000000000E+00 -0.00000000000E+00 -0.45593999997E+02  0.45594000000E+02  0.51100000000E-03 0. -1.
    9900012    2    1    2    0    0 -0.11268978187E+02 -0.32402729755E+02 -0.26583757877E+02  0.47787274801E+02  0.20000017126E+02 0.  0.
         12    1    1    2    0    0  0.11268978187E+02  0.32402729755E+02  0.26583757877E+02  0.43400725199E+02  0.00000000000E+00 0. -1.
         11    1    3    3    0    0  0.37547470588E+01 -0.83668302992E+01 -0.29937552912E+01  0.96469967211E+01  0.51100000000E-03 0. -1.
        -11    1    3    3    0    0 -0.28634450070E+00 -0.70973158407E+01 -0.85522590903E+01  0.11117329766E+02  0.51100000000E-03 0.  1.
         12    1    3    3    0    0 -0.14737380745E+02 -0.16938583615E+02 -0.15037743495E+02  0.27022948314E+02  0.00000000000E+00 0. -1.
</event>
<event>
 7    1  0.2751796E-010  0.4778726E+02  0.7816164E-02  0.1312668E+00
        -11   -1    0    0    0    0  0.00000000000E+00  0.00000000000E+00  0.45593999997E+02  0.45594000000E+02  0.51100000000E-03 0.  1.
         11   -1    0    0    0    0 -0.00000000000E+00 -0.00000000000E+00 -0.45593999997E+02  0.45594000000E+02  0.51100000000E-03 0. -1.
    9900012    2    1    2    0    0  0.32241514077E+02 -0.12445013599E+02  0.26253197280E+02  0.47787263129E+02  0.19999963912E+02 0.  0.
         12    1    1    2    0    0 -0.32241514077E+02  0.12445013599E+02 -0.26253197280E+02  0.43400736871E+02  0.00000000000E+00 0. -1.
         11    1    3    3    0    0  0.19880135145E+02 -0.90376752400E+00  0.52245501465E+01  0.20575045409E+02  0.51100000000E-03 0. -1.
        -11    1    3    3    0    0  0.65673343710E+01 -0.72708957326E+01  0.96770273762E+01  0.13771008118E+02  0.51100000000E-03 0.  1.
         12    1    3    3    0    0  0.57940445616E+01 -0.42703503421E+01  0.11351619758E+02  0.13441209602E+02  0.00000000000E+00 0. -1.
</event>
<event>
 7    1  0.2751796E-010  0.4778727E+02  0.7816164E-02  0.1312668E+00
        -11   -1    0    0    0    0  0.00000000000E+00  0.00000000000E+00  0.45593999997E+02  0.45594000000E+02  0.51100000000E-03 0.  1.
         11   -1    0    0    0    0 -0.00000000000E+00 -0.00000000000E+00 -0.45593999997E+02  0.45594000000E+02  0.51100000000E-03 0. -1.
    9900012    2    1    2    0    0 -0.22380307111E+01  0.24618454508E+02  0.35672765282E+02  0.47787271127E+02  0.20000000378E+02 0.  0.
         12    1    1    2    0    0  0.22380307111E+01 -0.24618454508E+02 -0.35672765282E+02  0.43400728873E+02  0.00000000000E+00 0. -1.
         11    1    3    3    0    0 -0.67453094651E+00  0.73020684103E+01  0.14411623690E+01  0.74734292196E+01  0.51100000000E-03 0. -1.
        -11    1    3    3    0    0 -0.34640921790E+01  0.51147313211E+01  0.22309944941E+02  0.23149385621E+02  0.51100000000E-03 0.  1.
        -12    1    3    3    0    0  0.19005924144E+01  0.12201654777E+02  0.11921657972E+02  0.17164456287E+02  0.00000000000E+00 0.  1.
</event>
<event>
 7    1  0.2751796E-010  0.4778727E+02  0.7816164E-02  0.1312668E+00
        -11   -1    0    0    0    0  0.00000000000E+00  0.00000000000E+00  0.45593999997E+02  0.45594000000E+02  0.51100000000E-03 0. -1.
         11   -1    0    0    0    0 -0.00000000000E+00 -0.00000000000E+00 -0.45593999997E+02  0.45594000000E+02  0.51100000000E-03 0.  1.
    9900012    2    1    2    0    0 -0.33521152263E+02  0.18572258858E+02 -0.20372204367E+02  0.47787272369E+02  0.20000006041E+02 0.  0.
         12    1    1    2    0    0  0.33521152263E+02 -0.18572258858E+02  0.20372204367E+02  0.43400727631E+02  0.00000000000E+00 0. -1.
         11    1    3    3    0    0 -0.14459957026E+02  0.67300209745E+01 -0.75377218034E+00  0.15967207404E+02  0.51100000000E-03 0.  1.
        -11    1    3    3    0    0  0.30643206897E+00  0.16420195527E+01 -0.55585761804E+01  0.58041276898E+01  0.51100000000E-03 0. -1.
        -12    1    3    3    0    0 -0.19367627306E+02  0.10200218330E+02 -0.14059856006E+02  0.26015937276E+02  0.00000000000E+00 0.  1.
</event>
<event>
 7    1  0.2751796E-010  0.4778727E+02  0.7816164E-02  0.1312668E+00
        -11   -1    0    0    0    0  0.00000000000E+00  0.00000000000E+00  0.45593999997E+02  0.45594000000E+02  0.51100000000E-03 0.  1.
         11   -1    0    0    0    0 -0.00000000000E+00 -0.00000000000E+00 -0.45593999997E+02  0.45594000000E+02  0.51100000000E-03 0. -1.
    9900012    2    1    2    0    0 -0.27247470560E+02  0.14975912098E+02  0.30280696564E+02  0.47787272132E+02  0.20000004957E+02 0.  0.
         12    1    1    2    0    0  0.27247470560E+02 -0.14975912098E+02 -0.30280696564E+02  0.43400727868E+02  0.00000000000E+00 0. -1.
         11    1    3    3    0    0 -0.14016724967E+02  0.21575733359E+01  0.60552172447E+01  0.15420420152E+02  0.51100000000E-03 0. -1.
        -11    1    3    3    0    0 -0.13225680185E+02  0.13942405096E+02  0.24568433594E+02  0.31191620762E+02  0.51100000000E-03 0.  1.
        -12    1    3    3    0    0 -0.50654077955E-02 -0.11240663346E+01 -0.34295427431E+00  0.11752312186E+01  0.00000000000E+00 0.  1.
</event>
<event>
 7    1  0.2751796E-010  0.4778727E+02  0.7816164E-02  0.1312668E+00
        -11   -1    0    0    0    0  0.00000000000E+00  0.00000000000E+00  0.45593999997E+02  0.45594000000E+02  0.51100000000E-03 0.  1.
         11   -1    0    0    0    0 -0.00000000000E+00 -0.00000000000E+00 -0.45593999997E+02  0.45594000000E+02  0.51100000000E-03 0. -1.
    9900012    2    1    2    0    0 -0.14940152584E+02  0.40597882409E+02  0.34966818134E+01  0.47787274210E+02  0.20000014435E+02 0.  0.
         12    1    1    2    0    0  0.14940152584E+02 -0.40597882409E+02 -0.34966818134E+01  0.43400725790E+02  0.00000000000E+00 0. -1.
         11    1    3    3    0    0 -0.75002927703E+01  0.31406142880E+02  0.54237009966E+01  0.32741666650E+02  0.51100000000E-03 0.  1.
        -11    1    3    3    0    0 -0.42651798152E+01  0.28345769428E+01 -0.51323360467E+01  0.72503419822E+01  0.51100000000E-03 0. -1.
         12    1    3    3    0    0 -0.31746799988E+01  0.63571625861E+01  0.32053168636E+01  0.77952655784E+01  0.00000000000E+00 0. -1.
</event>
<event>
 7    1  0.2751796E-010  0.4778727E+02  0.7816164E-02  0.1312668E+00
        -11   -1    0    0    0    0  0.00000000000E+00  0.00000000000E+00  0.45593999997E+02  0.45594000000E+02  0.51100000000E-03 0.  1.
         11   -1    0    0    0    0 -0.00000000000E+00 -0.00000000000E+00 -0.45593999997E+02  0.45594000000E+02  0.51100000000E-03 0. -1.
    9900012    2    1    2    0    0 -0.40456287142E+02 -0.13172483752E+01  0.15658120981E+02  0.47787273448E+02  0.20000010959E+02 0.  0.
         12    1    1    2    0    0  0.40456287142E+02  0.13172483752E+01 -0.15658120981E+02  0.43400726552E+02  0.00000000000E+00 0. -1.
         11    1    3    3    0    0 -0.27037613011E+00  0.20008915946E+01  0.49884542156E+00  0.20797878355E+01  0.51100000000E-03 0. -1.
        -11    1    3    3    0    0 -0.12917629712E+02 -0.82520777325E+01  0.67473828817E+01  0.16747809418E+02  0.51100000000E-03 0.  1.
        -12    1    3    3    0    0 -0.27268281300E+02  0.49339377627E+01  0.84118926775E+01  0.28959676195E+02  0.00000000000E+00 0.  1.
</event>
<event>
 7    1  0.2751796E-010  0.4778728E+02  0.7816164E-02  0.1312668E+00
        -11   -1    0    0    0    0  0.00000000000E+00  0.00000000000E+00  0.45593999997E+02  0.45594000000E+02  0.51100000000E-03 0.  1.
         11   -1    0    0    0    0 -0.00000000000E+00 -0.00000000000E+00 -0.45593999997E+02  0.45594000000E+02  0.51100000000E-03 0. -1.
    9900012    2    1    2    0    0  0.33270357072E+02 -0.17848240364E+02  0.21404344689E+02  0.47787282087E+02  0.20000050348E+02 0.  0.
         12    1    1    2    0    0 -0.33270357072E+02  0.17848240364E+02 -0.21404344689E+02  0.43400717913E+02  0.00000000000E+00 0. -1.
         11    1    3    3    0    0  0.56255068099E+01 -0.73232834955E+01 -0.15861239789E+01  0.93697704114E+01  0.51100000000E-03 0. -1.
        -11    1    3    3    0    0  0.21177447206E+02 -0.10142326297E+02  0.14006111874E+02  0.27340852638E+02  0.51100000000E-03 0.  1.
        -12    1    3    3    0    0  0.64674030569E+01 -0.38263057073E+00  0.89843567937E+01  0.11076659038E+02  0.00000000000E+00 0.  1.
</event>
<event>
 7    1  0.2751796E-010  0.4778727E+02  0.7816164E-02  0.1312668E+00
        -11   -1    0    0    0    0  0.00000000000E+00  0.00000000000E+00  0.45593999997E+02  0.45594000000E+02  0.51100000000E-03 0.  1.
         11   -1    0    0    0    0 -0.00000000000E+00 -0.00000000000E+00 -0.45593999997E+02  0.45594000000E+02  0.51100000000E-03 0. -1.
    9900012    2    1    2    0    0  0.22578914316E+01  0.22972744922E+02  0.36752937836E+02  0.47787268179E+02  0.19999986938E+02 0.  0.
         12    1    1    2    0    0 -0.22578914316E+01 -0.22972744922E+02 -0.36752937836E+02  0.43400731821E+02  0.00000000000E+00 0. -1.
         11    1    3    3    0    0 -0.68021174209E+01  0.14965072347E+02  0.22624987876E+02  0.27966270192E+02  0.51100000000E-03 0.  1.
        -11    1    3    3    0    0  0.52756102310E+01  0.13400118673E+01  0.27429578498E+01  0.60952041099E+01  0.51100000000E-03 0. -1.
         12    1    3    3    0    0  0.37843986214E+01  0.66676607076E+01  0.11384992110E+02  0.13725793878E+02  0.00000000000E+00 0. -1.
</event>
<event>
 7    1  0.2751796E-010  0.4778727E+02  0.7816164E-02  0.1312668E+00
        -11   -1    0    0    0    0  0.00000000000E+00  0.00000000000E+00  0.45593999997E+02  0.45594000000E+02  0.51100000000E-03 0. -1.
         11   -1    0    0    0    0 -0.00000000000E+00 -0.00000000000E+00 -0.45593999997E+02  0.45594000000E+02  0.51100000000E-03 0.  1.
    9900012    2    1    2    0    0 -0.72692950347E+01  0.42729850173E+02 -0.22227146053E+01  0.47787271822E+02  0.20000003547E+02 0.  0.
         12    1    1    2    0    0  0.72692950347E+01 -0.42729850173E+02  0.22227146053E+01  0.43400728178E+02  0.00000000000E+00 0. -1.
         11    1    3    3    0    0  0.30339830722E+01  0.91189810220E+01  0.36996213290E+01  0.10297964187E+02  0.51100000000E-03 0. -1.
        -11    1    3    3    0    0 -0.55819176297E+01  0.21780990239E+02 -0.92679054753E+01  0.24320020814E+02  0.51100000000E-03 0.  1.
        -12    1    3    3    0    0 -0.47213604772E+01  0.11829878912E+02  0.33455695411E+01  0.13169286821E+02  0.00000000000E+00 0.  1.
</event>
<event>
 7    1  0.2751796E-010  0.4778727E+02  0.7816164E-02  0.1312668E+00
        -11   -1    0    0    0    0  0.00000000000E+00  0.00000000000E+00  0.45593999997E+02  0.45594000000E+02  0.51100000000E-03 0. -1.
         11   -1    0    0    0    0 -0.00000000000E+00 -0.00000000000E+00 -0.45593999997E+02  0.45594000000E+02  0.51100000000E-03 0.  1.
    9900012    2    1    2    0    0 -0.33116795088E+02 -0.92723590665E+01  0.26474979102E+02  0.47787270997E+02  0.19999999782E+02 0.  0.
         12    1    1    2    0    0  0.33116795088E+02  0.92723590665E+01 -0.26474979102E+02  0.43400729003E+02  0.00000000000E+00 0. -1.
         11    1    3    3    0    0  0.12682714624E+01 -0.16951661144E+01 -0.11523228083E+01  0.24103835325E+01  0.51100000000E-03 0. -1.
        -11    1    3    3    0    0 -0.19680739364E+02 -0.52384486781E+00  0.14947383428E+02  0.24719024798E+02  0.51100000000E-03 0.  1.
         12    1    3    3    0    0 -0.14704327186E+02 -0.70533480843E+01  0.12679918482E+02  0.20657862666E+02  0.00000000000E+00 0. -1.
</event>
<event>
 7    1  0.2751796E-010  0.4778727E+02  0.7816164E-02  0.1312668E+00
        -11   -1    0    0    0    0  0.00000000000E+00  0.00000000000E+00  0.45593999997E+02  0.45594000000E+02  0.51100000000E-03 0. -1.
         11   -1    0    0    0    0 -0.00000000000E+00 -0.00000000000E+00 -0.45593999997E+02  0.45594000000E+02  0.51100000000E-03 0.  1.
    9900012    2    1    2    0    0 -0.32368278786E+02  0.28201745554E+02 -0.63702032397E+01  0.47787269440E+02  0.19999992684E+02 0.  0.
         12    1    1    2    0    0  0.32368278786E+02 -0.28201745554E+02  0.63702032397E+01  0.43400730560E+02  0.00000000000E+00 0. -1.
         11    1    3    3    0    0 -0.16208306229E+02  0.19267667294E+02 -0.77712961686E-01  0.25178527227E+02  0.51100000000E-03 0.  1.
        -11    1    3    3    0    0 -0.28747471627E+01  0.47179896854E+01 -0.66756223670E+01  0.86653062363E+01  0.51100000000E-03 0. -1.
         12    1    3    3    0    0 -0.13285225394E+02  0.42160885748E+01  0.38313208897E+00  0.13943435977E+02  0.00000000000E+00 0. -1.
</event>
<event>
 7    1  0.2751796E-010  0.4778728E+02  0.7816164E-02  0.1312668E+00
        -11   -1    0    0    0    0  0.00000000000E+00  0.00000000000E+00  0.45593999997E+02  0.45594000000E+02  0.51100000000E-03 0.  1.
         11   -1    0    0    0    0 -0.00000000000E+00 -0.00000000000E+00 -0.45593999997E+02  0.45594000000E+02  0.51100000000E-03 0. -1.
    9900012    2    1    2    0    0  0.14680417088E+02 -0.37521010396E+01  0.40669767553E+02  0.47787275342E+02  0.20000019593E+02 0.  0.
         12    1    1    2    0    0 -0.14680417088E+02  0.37521010396E+01 -0.40669767553E+02  0.43400724658E+02  0.00000000000E+00 0. -1.
         11    1    3    3    0    0  0.77151737663E+01  0.72543158426E+01  0.26445619698E+02  0.28487186700E+02  0.51100000000E-03 0. -1.
        -11    1    3    3    0    0  0.46496733265E+01 -0.78629423393E+01  0.10223891060E+02  0.13710334531E+02  0.51100000000E-03 0.  1.
         12    1    3    3    0    0  0.23155699951E+01 -0.31434745429E+01  0.40002567944E+01  0.55897541113E+01  0.00000000000E+00 0. -1.
</event>
<event>
 7    1  0.2751796E-010  0.4778727E+02  0.7816164E-02  0.1312668E+00
        -11   -1    0    0    0    0  0.00000000000E+00  0.00000000000E+00  0.45593999997E+02  0.45594000000E+02  0.51100000000E-03 0.  1.
         11   -1    0    0    0    0 -0.00000000000E+00 -0.00000000000E+00 -0.45593999997E+02  0.45594000000E+02  0.51100000000E-03 0. -1.
    9900012    2    1    2    0    0  0.23952893778E+02 -0.36179121859E+02 -0.97651955308E+00  0.47787267642E+02  0.19999984486E+02 0.  0.
         12    1    1    2    0    0 -0.23952893778E+02  0.36179121859E+02  0.97651955308E+00  0.43400732358E+02  0.00000000000E+00 0. -1.
         11    1    3    3    0    0  0.31784982261E+01 -0.75874063211E+01  0.75089128536E+01  0.11138014103E+02  0.51100000000E-03 0. -1.
        -11    1    3    3    0    0  0.11207328655E+02 -0.12541859713E+02 -0.56916450546E+01  0.17756612411E+02  0.51100000000E-03 0.  1.
        -12    1    3    3    0    0  0.95670668962E+01 -0.16049855825E+02 -0.27937873521E+01  0.18892641127E+02  0.00000000000E+00 0.  1.
</event>
<event>
 7    1  0.2751796E-010  0.4778727E+02  0.7816164E-02  0.1312668E+00
        -11   -1    0    0    0    0  0.00000000000E+00  0.00000000000E+00  0.45593999997E+02  0.45594000000E+02  0.51100000000E-03 0. -1.
         11   -1    0    0    0    0 -0.00000000000E+00 -0.00000000000E+00 -0.45593999997E+02  0.45594000000E+02  0.51100000000E-03 0.  1.
    9900012    2    1    2    0    0 -0.28081654619E+02 -0.61584648756E+01 -0.32513338408E+02  0.47787272009E+02  0.20000004396E+02 0.  0.
         12    1    1    2    0    0  0.28081654619E+02  0.61584648756E+01  0.32513338408E+02  0.43400727991E+02  0.00000000000E+00 0. -1.
         11    1    3    3    0    0 -0.27596788553E+02 -0.19922762436E+01 -0.32463588659E+02  0.42654853088E+02  0.51100000000E-03 0.  1.
        -11    1    3    3    0    0  0.72304043158E+00 -0.30722393166E+01 -0.91657632870E+00  0.32865718175E+01  0.51100000000E-03 0. -1.
        -12    1    3    3    0    0 -0.12079064971E+01 -0.10939493154E+01  0.86682657919E+00  0.18458471033E+01  0.00000000000E+00 0.  1.
</event>
<event>
 7    1  0.2751796E-010  0.4778727E+02  0.7816164E-02  0.1312668E+00
        -11   -1    0    0    0    0  0.00000000000E+00  0.00000000000E+00  0.45593999997E+02  0.45594000000E+02  0.51100000000E-03 0.  1.
         11   -1    0    0    0    0 -0.00000000000E+00 -0.00000000000E+00 -0.45593999997E+02  0.45594000000E+02  0.51100000000E-03 0. -1.
    9900012    2    1    2    0    0  0.14552339098E+02  0.33653910154E+02  0.23222124703E+02  0.47787270541E+02  0.19999997703E+02 0.  0.
         12    1    1    2    0    0 -0.14552339098E+02 -0.33653910154E+02 -0.23222124703E+02  0.43400729459E+02  0.00000000000E+00 0. -1.
         11    1    3    3    0    0  0.10207353733E+02  0.26006170252E+02  0.10973426379E+02  0.30015446826E+02  0.51100000000E-03 0. -1.
        -11    1    3    3    0    0  0.16498687556E+01  0.91996348795E+01  0.70238597815E+01  0.11691447956E+02  0.51100000000E-03 0.  1.
         12    1    3    3    0    0  0.26951166093E+01 -0.15518949778E+01  0.52248385429E+01  0.60803757580E+01  0.00000000000E+00 0. -1.
</event>
<event>
 7    1  0.2751796E-010  0.4778727E+02  0.7816164E-02  0.1312668E+00
        -11   -1    0    0    0    0  0.00000000000E+00  0.00000000000E+00  0.45593999997E+02  0.45594000000E+02  0.51100000000E-03 0.  1.
         11   -1    0    0    0    0 -0.00000000000E+00 -0.00000000000E+00 -0.45593999997E+02  0.45594000000E+02  0.51100000000E-03 0. -1.
    9900012    2    1    2    0    0  0.41362766493E+02 -0.10810265343E+02  0.74755067824E+01  0.47787268550E+02  0.19999988626E+02 0.  0.
         12    1    1    2    0    0 -0.41362766493E+02  0.10810265343E+02 -0.74755067824E+01  0.43400731450E+02  0.00000000000E+00 0. -1.
         11    1    3    3    0    0  0.80751377440E+01 -0.15201863466E+01 -0.45523479686E+00  0.82295841386E+01  0.51100000000E-03 0. -1.
        -11    1    3    3    0    0  0.34235814974E+02 -0.56741121821E+01  0.55983134869E+01  0.35151496272E+02  0.51100000000E-03 0.  1.
        -12    1    3    3    0    0 -0.94818622444E+00 -0.36159668140E+01  0.23324280924E+01  0.44061881397E+01  0.00000000000E+00 0.  1.
</event>
<event>
 7    1  0.2751796E-010  0.4778727E+02  0.7816164E-02  0.1312668E+00
        -11   -1    0    0    0    0  0.00000000000E+00  0.00000000000E+00  0.45593999997E+02  0.45594000000E+02  0.51100000000E-03 0.  1.
         11   -1    0    0    0    0 -0.00000000000E+00 -0.00000000000E+00 -0.45593999997E+02  0.45594000000E+02  0.51100000000E-03 0. -1.
    9900012    2    1    2    0    0 -0.18897517901E+01  0.38486635147E+02  0.19970756198E+02  0.47787270169E+02  0.19999996008E+02 0.  0.
         12    1    1    2    0    0  0.18897517901E+01 -0.38486635147E+02 -0.19970756198E+02  0.43400729831E+02  0.00000000000E+00 0. -1.
         11    1    3    3    0    0  0.14439012241E+01  0.65929651898E+00  0.76603950934E+00  0.17624810456E+01  0.51100000000E-03 0. -1.
        -11    1    3    3    0    0 -0.63730097520E+01  0.21009434774E+02  0.24491427343E+01  0.22090946182E+02  0.51100000000E-03 0.  1.
        -12    1    3    3    0    0  0.30393567378E+01  0.16817903854E+02  0.16755573954E+02  0.23933842942E+02  0.00000000000E+00 0.  1.
</event>
<event>
 7    1  0.2751796E-010  0.4778726E+02  0.7816164E-02  0.1312668E+00
        -11   -1    0    0    0    0  0.00000000000E+00  0.00000000000E+00  0.45593999997E+02  0.45594000000E+02  0.51100000000E-03 0.  1.
         11   -1    0    0    0    0 -0.00000000000E+00 -0.00000000000E+00 -0.45593999997E+02  0.45594000000E+02  0.51100000000E-03 0. -1.
    9900012    2    1    2    0    0 -0.28035090224E+02  0.33060053610E+02  0.21657430702E+01  0.47787264158E+02  0.19999968601E+02 0.  0.
         12    1    1    2    0    0  0.28035090224E+02 -0.33060053610E+02 -0.21657430702E+01  0.43400735842E+02  0.00000000000E+00 0. -1.
         11    1    3    3    0    0 -0.71733480689E+01  0.48390355335E+01  0.76664717110E+01  0.11560621790E+02  0.51100000000E-03 0.  1.
        -11    1    3    3    0    0 -0.38766146469E+01  0.91223660318E+01 -0.37860768187E+01  0.10610376104E+02  0.51100000000E-03 0. -1.
         12    1    3    3    0    0 -0.16985127508E+02  0.19098652045E+02 -0.17146518220E+01  0.25616266263E+02  0.00000000000E+00 0. -1.
</event>
<event>
 7    1  0.2751796E-010  0.4778727E+02  0.7816164E-02  0.1312668E+00
        -11   -1    0    0    0    0  0.00000000000E+00  0.00000000000E+00  0.45593999997E+02  0.45594000000E+02  0.51100000000E-03 0.  1.
         11   -1    0    0    0    0 -0.00000000000E+00 -0.00000000000E+00 -0.45593999997E+02  0.45594000000E+02  0.51100000000E-03 0. -1.
    9900012    2    1    2    0    0 -0.34064482496E+02 -0.18957952474E+02  0.19074344207E+02  0.47787268017E+02  0.19999986196E+02 0.  0.
         12    1    1    2    0    0  0.34064482496E+02  0.18957952474E+02 -0.19074344207E+02  0.43400731983E+02  0.00000000000E+00 0. -1.
         11    1    3    3    0    0 -0.91102895616E+00 -0.35657036272E+01  0.25113446886E+01  0.44554537953E+01  0.51100000000E-03 0. -1.
        -11    1    3    3    0    0 -0.26379530798E+01 -0.38796051550E+01 -0.27396862544E+01  0.54328642210E+01  0.51100000000E-03 0.  1.
        -12    1    3    3    0    0 -0.30515500460E+02 -0.11512643692E+02  0.19302685773E+02  0.37898950001E+02  0.00000000000E+00 0.  1.
</event>
<event>
 7    1  0.2751796E-010  0.4778727E+02  0.7816164E-02  0.1312668E+00
        -11   -1    0    0    0    0  0.00000000000E+00  0.00000000000E+00  0.45593999997E+02  0.45594000000E+02  0.51100000000E-03 0.  1.
         11   -1    0    0    0    0 -0.00000000000E+00 -0.00000000000E+00 -0.45593999997E+02  0.45594000000E+02  0.51100000000E-03 0. -1.
    9900012    2    1    2    0    0  0.31172888031E+02  0.17002892613E+02  0.24955479516E+02  0.47787271167E+02  0.20000000557E+02 0.  0.
         12    1    1    2    0    0 -0.31172888031E+02 -0.17002892613E+02 -0.24955479516E+02  0.43400728833E+02  0.00000000000E+00 0. -1.
         11    1    3    3    0    0 -0.53837022988E+00 -0.17824629114E+01  0.30541668972E+01  0.35770032474E+01  0.51100000000E-03 0. -1.
        -11    1    3    3    0    0  0.13004693638E+02  0.12028622097E+02  0.58620757808E+01  0.18659414216E+02  0.51100000000E-03 0.  1.
        -12    1    3    3    0    0  0.18706564623E+02  0.67567334277E+01  0.16039236838E+02  0.25550853703E+02  0.00000000000E+00 0.  1.
</event>
<event>
 7    1  0.2751796E-010  0.4778726E+02  0.7816164E-02  0.1312668E+00
        -11   -1    0    0    0    0  0.00000000000E+00  0.00000000000E+00  0.45593999997E+02  0.45594000000E+02  0.51100000000E-03 0. -1.
         11   -1    0    0    0    0 -0.00000000000E+00 -0.00000000000E+00 -0.45593999997E+02  0.45594000000E+02  0.51100000000E-03 0.  1.
    9900012    2    1    2    0    0  0.23364491226E+02 -0.17366391252E+02 -0.32189017881E+02  0.47787264206E+02  0.19999968821E+02 0.  0.
         12    1    1    2    0    0 -0.23364491226E+02  0.17366391252E+02  0.32189017881E+02  0.43400735794E+02  0.00000000000E+00 0. -1.
         11    1    3    3    0    0  0.72144902952E+01 -0.10024404990E+01 -0.40114264855E+00  0.72948387822E+01  0.51100000000E-03 0. -1.
        -11    1    3    3    0    0  0.15764363842E+02 -0.16424771171E+02 -0.32499914306E+02  0.39680381872E+02  0.51100000000E-03 0.  1.
        -12    1    3    3    0    0  0.38563708839E+00  0.60820418660E-01  0.71203907370E+00  0.81204355163E+00  0.00000000000E+00 0.  1.
</event>
<event>
 7    1  0.2751796E-010  0.4778727E+02  0.7816164E-02  0.1312668E+00
        -11   -1    0    0    0    0  0.00000000000E+00  0.00000000000E+00  0.45593999997E+02  0.45594000000E+02  0.51100000000E-03 0.  1.
         11   -1    0    0    0    0 -0.00000000000E+00 -0.00000000000E+00 -0.45593999997E+02  0.45594000000E+02  0.51100000000E-03 0. -1.
    9900012    2    1    2    0    0  0.20195694018E+02 -0.89663313540E+01  0.37354544918E+02  0.47787272116E+02  0.20000004886E+02 0.  0.
         12    1    1    2    0    0 -0.20195694018E+02  0.89663313540E+01 -0.37354544918E+02  0.43400727884E+02  0.00000000000E+00 0. -1.
         11    1    3    3    0    0  0.55137749280E+00 -0.45392425346E+01  0.10987654892E+01  0.47027678859E+01  0.51100000000E-03 0. -1.
        -11    1    3    3    0    0  0.19201768496E+02 -0.71153433152E+01  0.33022531269E+02  0.38856448571E+02  0.51100000000E-03 0.  1.
        -12    1    3    3    0    0  0.44254802908E+00  0.26882544959E+01  0.32332481600E+01  0.42280556592E+01  0.00000000000E+00 0.  1.
</event>
<event>
 7    1  0.2751796E-010  0.4778724E+02  0.7816164E-02  0.1312668E+00
        -11   -1    0    0    0    0  0.00000000000E+00  0.00000000000E+00  0.45593999997E+02  0.45594000000E+02  0.51100000000E-03 0. -1.
         11   -1    0    0    0    0 -0.00000000000E+00 -0.00000000000E+00 -0.45593999997E+02  0.45594000000E+02  0.51100000000E-03 0.  1.
    9900012    2    1    2    0    0  0.10480625774E+02 -0.37859363535E+02  0.18451305706E+02  0.47787244176E+02  0.19999877494E+02 0.  0.
         12    1    1    2    0    0 -0.10480625774E+02  0.37859363535E+02 -0.18451305706E+02  0.43400755824E+02  0.00000000000E+00 0. -1.
         11    1    3    3    0    0  0.48966541677E+01 -0.18815974540E+02  0.17571742720E+02  0.26206569070E+02  0.51100000000E-03 0.  1.
        -11    1    3    3    0    0  0.28735610238E+01 -0.49856095668E+01 -0.33420452791E+01  0.66545415033E+01  0.51100000000E-03 0. -1.
         12    1    3    3    0    0  0.27104105823E+01 -0.14057779428E+02  0.42216082642E+01  0.14926133602E+02  0.00000000000E+00 0. -1.
</event>
<event>
 7    1  0.2751796E-010  0.4778727E+02  0.7816164E-02  0.1312668E+00
        -11   -1    0    0    0    0  0.00000000000E+00  0.00000000000E+00  0.45593999997E+02  0.45594000000E+02  0.51100000000E-03 0. -1.
         11   -1    0    0    0    0 -0.00000000000E+00 -0.00000000000E+00 -0.45593999997E+02  0.45594000000E+02  0.51100000000E-03 0.  1.
    9900012    2    1    2    0    0 -0.15444741989E+02 -0.17204809696E+02 -0.36729791758E+02  0.47787272652E+02  0.20000007329E+02 0.  0.
         12    1    1    2    0    0  0.15444741989E+02  0.17204809696E+02  0.36729791758E+02  0.43400727348E+02  0.00000000000E+00 0. -1.
         11    1    3    3    0    0 -0.18565214854E+02 -0.97544401699E+01 -0.26107648126E+02  0.33487693210E+02  0.51100000000E-03 0. -1.
        -11    1    3    3    0    0  0.34180186455E+01 -0.45647577999E+01 -0.97062906122E+01  0.11257528279E+02  0.51100000000E-03 0.  1.
        -12    1    3    3    0    0 -0.29754578075E+00 -0.28856117263E+01 -0.91585301972E+00  0.30420511633E+01  0.00000000000E+00 0.  1.
</event>
<event>
 7    1  0.2751796E-010  0.4778727E+02  0.7816164E-02  0.1312668E+00
        -11   -1    0    0    0    0  0.00000000000E+00  0.00000000000E+00  0.45593999997E+02  0.45594000000E+02  0.51100000000E-03 0.  1.
         11   -1    0    0    0    0 -0.00000000000E+00 -0.00000000000E+00 -0.45593999997E+02  0.45594000000E+02  0.51100000000E-03 0. -1.
    9900012    2    1    2    0    0 -0.14426481142E+02 -0.20161514404E+02  0.35623214611E+02  0.47787269125E+02  0.19999991249E+02 0.  0.
         12    1    1    2    0    0  0.14426481142E+02  0.20161514404E+02 -0.35623214611E+02  0.43400730875E+02  0.00000000000E+00 0. -1.
         11    1    3    3    0    0 -0.94270805802E+00 -0.25691225284E+00 -0.62211008234E+00  0.11583279346E+01  0.51100000000E-03 0. -1.
        -11    1    3    3    0    0 -0.38832975106E+01 -0.19249075676E+02  0.22725618447E+02  0.30034324497E+02  0.51100000000E-03 0.  1.
        -12    1    3    3    0    0 -0.96004755736E+01 -0.65552647518E+00  0.13519706247E+02  0.16594616694E+02  0.00000000000E+00 0.  1.
</event>
<event>
 7    1  0.2751796E-010  0.4778727E+02  0.7816164E-02  0.1312668E+00
        -11   -1    0    0    0    0  0.00000000000E+00  0.00000000000E+00  0.45593999997E+02  0.45594000000E+02  0.51100000000E-03 0.  1.
         11   -1    0    0    0    0 -0.00000000000E+00 -0.00000000000E+00 -0.45593999997E+02  0.45594000000E+02  0.51100000000E-03 0. -1.
    9900012    2    1    2    0    0  0.38978314272E+02  0.16076121287E+02  0.10289440927E+02  0.47787271277E+02  0.20000001059E+02 0.  0.
         12    1    1    2    0    0 -0.38978314272E+02 -0.16076121287E+02 -0.10289440927E+02  0.43400728723E+02  0.00000000000E+00 0. -1.
         11    1    3    3    0    0  0.63211658505E+00  0.54536671544E+01 -0.11548251990E+01  0.56103189133E+01  0.51100000000E-03 0. -1.
        -11    1    3    3    0    0  0.29393882009E+02  0.45143394837E+01  0.89490970476E+01  0.31055851281E+02  0.51100000000E-03 0.  1.
         12    1    3    3    0    0  0.89523156776E+01  0.61081146487E+01  0.24951690784E+01  0.11121101082E+02  0.00000000000E+00 0. -1.
</event>
<event>
 7    1  0.2751796E-010  0.4778727E+02  0.7816164E-02  0.1312668E+00
        -11   -1    0    0    0    0  0.00000000000E+00  0.00000000000E+00  0.45593999997E+02  0.45594000000E+02  0.51100000000E-03 0. -1.
         11   -1    0    0    0    0 -0.00000000000E+00 -0.00000000000E+00 -0.45593999997E+02  0.45594000000E+02  0.51100000000E-03 0.  1.
    9900012    2    1    2    0    0  0.23619833017E+02  0.84939380498E+01 -0.35405931637E+02  0.47787268549E+02  0.19999988624E+02 0.  0.
         12    1    1    2    0    0 -0.23619833017E+02 -0.84939380498E+01  0.35405931637E+02  0.43400731451E+02  0.00000000000E+00 0. -1.
         11    1    3    3    0    0 -0.22370720212E+01  0.25678009764E+01 -0.57755755981E+01  0.67048763473E+01  0.51100000000E-03 0. -1.
        -11    1    3    3    0    0  0.22577137887E+02  0.62069898713E+01 -0.29662524423E+02  0.37790464854E+02  0.51100000000E-03 0.  1.
        -12    1    3    3    0    0  0.32797671513E+01 -0.28085279781E+00  0.32168384174E-01  0.32919273482E+01  0.00000000000E+00 0.  1.
</event>
<event>
 7    1  0.2751796E-010  0.4778727E+02  0.7816164E-02  0.1312668E+00
        -11   -1    0    0    0    0  0.00000000000E+00  0.00000000000E+00  0.45593999997E+02  0.45594000000E+02  0.51100000000E-03 0.  1.
         11   -1    0    0    0    0 -0.00000000000E+00 -0.00000000000E+00 -0.45593999997E+02  0.45594000000E+02  0.51100000000E-03 0. -1.
    9900012    2    1    2    0    0 -0.31602497173E+02  0.10936771966E+01  0.29727255788E+02  0.47787266204E+02  0.19999977930E+02 0.  0.
         12    1    1    2    0    0  0.31602497173E+02 -0.10936771966E+01 -0.29727255788E+02  0.43400733796E+02  0.00000000000E+00 0. -1.
         11    1    3    3    0    0 -0.13255917141E+02 -0.83416307544E+01  0.84021859353E+01  0.17773544150E+02  0.51100000000E-03 0. -1.
        -11    1    3    3    0    0 -0.10325758813E+02  0.66137431647E+01  0.15226144074E+02  0.19549894050E+02  0.51100000000E-03 0.  1.
         12    1    3    3    0    0 -0.80208212178E+01  0.28215647862E+01  0.60989257784E+01  0.10463828004E+02  0.00000000000E+00 0. -1.
</event>
<event>
 7    1  0.2751796E-010  0.4778724E+02  0.7816164E-02  0.1312668E+00
        -11   -1    0    0    0    0  0.00000000000E+00  0.00000000000E+00  0.45593999997E+02  0.45594000000E+02  0.51100000000E-03 0. -1.
         11   -1    0    0    0    0 -0.00000000000E+00 -0.00000000000E+00 -0.45593999997E+02  0.45594000000E+02  0.51100000000E-03 0.  1.
    9900012    2    1    2    0    0 -0.59441878099E+01  0.23107588907E+02 -0.36253718509E+02  0.47787238030E+02  0.19999849475E+02 0.  0.
         12    1    1    2    0    0  0.59441878099E+01 -0.23107588907E+02  0.36253718509E+02  0.43400761970E+02  0.00000000000E+00 0. -1.
         11    1    3    3    0    0 -0.73506675241E+01  0.55917963368E+01 -0.62092798590E+01  0.11129045599E+02  0.51100000000E-03 0. -1.
        -11    1    3    3    0    0 -0.24819622372E+01  0.47061931716E+01 -0.21895290210E+01  0.57534709794E+01  0.51100000000E-03 0.  1.
        -12    1    3    3    0    0  0.38884419513E+01  0.12809599398E+02 -0.27854909629E+02  0.30904721452E+02  0.00000000000E+00 0.  1.
</event>
<event>
 7    1  0.2751796E-010  0.4778728E+02  0.7816164E-02  0.1312668E+00
        -11   -1    0    0    0    0  0.00000000000E+00  0.00000000000E+00  0.45593999997E+02  0.45594000000E+02  0.51100000000E-03 0.  1.
         11   -1    0    0    0    0 -0.00000000000E+00 -0.00000000000E+00 -0.45593999997E+02  0.45594000000E+02  0.51100000000E-03 0. -1.
    9900012    2    1    2    0    0  0.29344473556E+01 -0.39106463331E+02  0.18592912275E+02  0.47787276015E+02  0.20000022662E+02 0.  0.
         12    1    1    2    0    0 -0.29344473556E+01  0.39106463331E+02 -0.18592912275E+02  0.43400723985E+02  0.00000000000E+00 0. -1.
         11    1    3    3    0    0  0.11424894742E+01 -0.33949942963E+01 -0.39785611064E+01  0.53535238123E+01  0.51100000000E-03 0. -1.
        -11    1    3    3    0    0 -0.64266243420E+00 -0.19582372045E+02  0.13147572343E+02  0.23595359050E+02  0.51100000000E-03 0.  1.
         12    1    3    3    0    0  0.24346203156E+01 -0.16129096990E+02  0.94239010377E+01  0.18838393152E+02  0.00000000000E+00 0. -1.
</event>
<event>
 7    1  0.2751796E-010  0.4778726E+02  0.7816164E-02  0.1312668E+00
        -11   -1    0    0    0    0  0.00000000000E+00  0.00000000000E+00  0.45593999997E+02  0.45594000000E+02  0.51100000000E-03 0.  1.
         11   -1    0    0    0    0 -0.00000000000E+00 -0.00000000000E+00 -0.45593999997E+02  0.45594000000E+02  0.51100000000E-03 0. -1.
    9900012    2    1    2    0    0 -0.25993129427E+02  0.40541656273E+01  0.34518763553E+02  0.47787261831E+02  0.19999957994E+02 0.  0.
         12    1    1    2    0    0  0.25993129427E+02 -0.40541656273E+01 -0.34518763553E+02  0.43400738169E+02  0.00000000000E+00 0. -1.
         11    1    3    3    0    0 -0.72008555172E+00  0.55983988709E+01  0.79393214647E+01  0.97413253052E+01  0.51100000000E-03 0. -1.
        -11    1    3    3    0    0 -0.20189822402E+02 -0.14940342501E+01  0.25966002381E+02  0.32925588026E+02  0.51100000000E-03 0.  1.
        -12    1    3    3    0    0 -0.50832214737E+01 -0.50198993418E-01  0.61343970741E+00  0.51203485003E+01  0.00000000000E+00 0.  1.
</event>
<event>
 7    1  0.2751796E-010  0.4778726E+02  0.7816164E-02  0.1312668E+00
        -11   -1    0    0    0    0  0.00000000000E+00  0.00000000000E+00  0.45593999997E+02  0.45594000000E+02  0.51100000000E-03 0.  1.
         11   -1    0    0    0    0 -0.00000000000E+00 -0.00000000000E+00 -0.45593999997E+02  0.45594000000E+02  0.51100000000E-03 0. -1.
    9900012    2    1    2    0    0  0.22890705373E+02 -0.16434252273E+01  0.36836647699E+02  0.47787264377E+02  0.19999969599E+02 0.  0.
         12    1    1    2    0    0 -0.22890705373E+02  0.16434252273E+01 -0.36836647699E+02  0.43400735623E+02  0.00000000000E+00 0. -1.
         11    1    3    3    0    0  0.15359506663E+02 -0.77745537827E+01  0.17195128873E+02  0.24331678707E+02  0.51100000000E-03 0. -1.
        -11    1    3    3    0    0  0.19627052790E+01  0.19003521320E+01  0.14552099043E+02  0.14806320848E+02  0.51100000000E-03 0.  1.
         12    1    3    3    0    0  0.55684934308E+01  0.42307764235E+01  0.50894197825E+01  0.86492648217E+01  0.00000000000E+00 0. -1.
</event>
<event>
 7    1  0.2751796E-010  0.4778727E+02  0.7816164E-02  0.1312668E+00
        -11   -1    0    0    0    0  0.00000000000E+00  0.00000000000E+00  0.45593999997E+02  0.45594000000E+02  0.51100000000E-03 0. -1.
         11   -1    0    0    0    0 -0.00000000000E+00 -0.00000000000E+00 -0.45593999997E+02  0.45594000000E+02  0.51100000000E-03 0.  1.
    9900012    2    1    2    0    0  0.31742542154E+01 -0.42422069523E+02 -0.85974134542E+01  0.47787269701E+02  0.19999993874E+02 0.  0.
         12    1    1    2    0    0 -0.31742542154E+01  0.42422069523E+02  0.85974134542E+01  0.43400730299E+02  0.00000000000E+00 0. -1.
         11    1    3    3    0    0 -0.93057526515E+00 -0.17797784759E+01  0.44674574586E+01  0.48981382333E+01  0.51100000000E-03 0. -1.
        -11    1    3    3    0    0  0.14756584053E+01 -0.15821557226E+02 -0.52260550501E+01  0.16727548907E+02  0.51100000000E-03 0.  1.
         12    1    3    3    0    0  0.26291710753E+01 -0.24820733820E+02 -0.78388158627E+01  0.26161582560E+02  0.00000000000E+00 0. -1.
</event>
<event>
 7    1  0.2751796E-010  0.4778726E+02  0.7816164E-02  0.1312668E+00
        -11   -1    0    0    0    0  0.00000000000E+00  0.00000000000E+00  0.45593999997E+02  0.45594000000E+02  0.51100000000E-03 0. -1.
         11   -1    0    0    0    0 -0.00000000000E+00 -0.00000000000E+00 -0.45593999997E+02  0.45594000000E+02  0.51100000000E-03 0.  1.
    9900012    2    1    2    0    0 -0.25363355453E+02 -0.35090384858E+02 -0.29981902925E+01  0.47787262053E+02  0.19999959003E+02 0.  0.
         12    1    1    2    0    0  0.25363355453E+02  0.35090384858E+02  0.29981902925E+01  0.43400737947E+02  0.00000000000E+00 0. -1.
         11    1    3    3    0    0 -0.31284490048E+01 -0.10777156760E+02 -0.71783779935E+01  0.13321539396E+02  0.51100000000E-03 0. -1.
        -11    1    3    3    0    0 -0.15104654751E+02 -0.11557471168E+02  0.54850715222E+01  0.19794235141E+02  0.51100000000E-03 0.  1.
        -12    1    3    3    0    0 -0.71302516973E+01 -0.12755756930E+02 -0.13048838212E+01  0.14671487515E+02  0.00000000000E+00 0.  1.
</event>
<event>
 7    1  0.2751796E-010  0.4778728E+02  0.7816164E-02  0.1312668E+00
        -11   -1    0    0    0    0  0.00000000000E+00  0.00000000000E+00  0.45593999997E+02  0.45594000000E+02  0.51100000000E-03 0. -1.
         11   -1    0    0    0    0 -0.00000000000E+00 -0.00000000000E+00 -0.45593999997E+02  0.45594000000E+02  0.51100000000E-03 0.  1.
    9900012    2    1    2    0    0  0.16862727116E+02 -0.39451915959E+02  0.65435107019E+01  0.47787276839E+02  0.20000026418E+02 0.  0.
         12    1    1    2    0    0 -0.16862727116E+02  0.39451915959E+02 -0.65435107019E+01  0.43400723161E+02  0.00000000000E+00 0. -1.
         11    1    3    3    0    0 -0.90671237459E+00 -0.16724162531E+02 -0.30350966309E+01  0.17021502622E+02  0.51100000000E-03 0. -1.
        -11    1    3    3    0    0  0.18041674318E+01 -0.52274144722E+01  0.13931563740E+01  0.57027859095E+01  0.51100000000E-03 0.  1.
         12    1    3    3    0    0  0.15965272059E+02 -0.17500338956E+02  0.81854509588E+01  0.25062988307E+02  0.00000000000E+00 0. -1.
</event>
<event>
 7    1  0.2751796E-010  0.4778727E+02  0.7816164E-02  0.1312668E+00
        -11   -1    0    0    0    0  0.00000000000E+00  0.00000000000E+00  0.45593999997E+02  0.45594000000E+02  0.51100000000E-03 0.  1.
         11   -1    0    0    0    0 -0.00000000000E+00 -0.00000000000E+00 -0.45593999997E+02  0.45594000000E+02  0.51100000000E-03 0. -1.
    9900012    2    1    2    0    0 -0.80172307279E+00  0.43093090244E+02  0.50957007274E+01  0.47787270138E+02  0.19999995866E+02 0.  0.
         12    1    1    2    0    0  0.80172307279E+00 -0.43093090244E+02 -0.50957007274E+01  0.43400729862E+02  0.00000000000E+00 0. -1.
         11    1    3    3    0    0 -0.65303820877E+00  0.13382235422E+01 -0.37131622976E+01  0.40006094111E+01  0.51100000000E-03 0. -1.
        -11    1    3    3    0    0 -0.13210376643E+01  0.18170045515E+02  0.86616640244E+01  0.20172261114E+02  0.51100000000E-03 0.  1.
        -12    1    3    3    0    0  0.11723528003E+01  0.23584821187E+02  0.14719900049E+00  0.23614399613E+02  0.00000000000E+00 0.  1.
</event>
<event>
 7    1  0.2751796E-010  0.4778729E+02  0.7816164E-02  0.1312668E+00
        -11   -1    0    0    0    0  0.00000000000E+00  0.00000000000E+00  0.45593999997E+02  0.45594000000E+02  0.51100000000E-03 0.  1.
         11   -1    0    0    0    0 -0.00000000000E+00 -0.00000000000E+00 -0.45593999997E+02  0.45594000000E+02  0.51100000000E-03 0. -1.
    9900012    2    1    2    0    0 -0.24351871942E+02 -0.24047820895E+02  0.26689148959E+02  0.47787285386E+02  0.20000065388E+02 0.  0.
         12    1    1    2    0    0  0.24351871942E+02  0.24047820895E+02 -0.26689148959E+02  0.43400714614E+02  0.00000000000E+00 0. -1.
         11    1    3    3    0    0  0.45417039040E+00 -0.36625239546E+01 -0.18659748038E+01  0.41354824013E+01  0.51100000000E-03 0. -1.
        -11    1    3    3    0    0 -0.23703490993E+02 -0.19895824765E+02  0.24648628600E+02  0.39563293853E+02  0.51100000000E-03 0.  1.
         12    1    3    3    0    0 -0.11025513395E+01 -0.48947217465E+00  0.39064951626E+01  0.40885091319E+01  0.00000000000E+00 0. -1.
</event>
<event>
 7    1  0.2751796E-010  0.4778727E+02  0.7816164E-02  0.1312668E+00
        -11   -1    0    0    0    0  0.00000000000E+00  0.00000000000E+00  0.45593999997E+02  0.45594000000E+02  0.51100000000E-03 0.  1.
         11   -1    0    0    0    0 -0.00000000000E+00 -0.00000000000E+00 -0.45593999997E+02  0.45594000000E+02  0.51100000000E-03 0. -1.
    9900012    2    1    2    0    0 -0.23263825521E+02  0.18044999248E+02  0.31887239164E+02  0.47787267319E+02  0.19999983013E+02 0.  0.
         12    1    1    2    0    0  0.23263825521E+02 -0.18044999248E+02 -0.31887239164E+02  0.43400732681E+02  0.00000000000E+00 0. -1.
         11    1    3    3    0    0 -0.14890423389E+02  0.12302336996E+02  0.21829960043E+02  0.29148230821E+02  0.51100000000E-03 0. -1.
        -11    1    3    3    0    0 -0.57844348099E+01  0.65059614302E+01  0.12341566786E+02  0.15103029206E+02  0.51100000000E-03 0.  1.
         12    1    3    3    0    0 -0.25889673228E+01 -0.76329917757E+00 -0.22842876648E+01  0.35360072919E+01  0.00000000000E+00 0. -1.
</event>
<event>
 7    1  0.2751796E-010  0.4778727E+02  0.7816164E-02  0.1312668E+00
        -11   -1    0    0    0    0  0.00000000000E+00  0.00000000000E+00  0.45593999997E+02  0.45594000000E+02  0.51100000000E-03 0.  1.
         11   -1    0    0    0    0 -0.00000000000E+00 -0.00000000000E+00 -0.45593999997E+02  0.45594000000E+02  0.51100000000E-03 0. -1.
    9900012    2    1    2    0    0  0.66016908389E+01  0.22927273197E+02  0.36254390649E+02  0.47787273975E+02  0.20000013362E+02 0.  0.
         12    1    1    2    0    0 -0.66016908389E+01 -0.22927273197E+02 -0.36254390649E+02  0.43400726025E+02  0.00000000000E+00 0. -1.
         11    1    3    3    0    0  0.48718012787E+01 -0.21386162650E+01  0.35068965219E+01  0.63723190994E+01  0.51100000000E-03 0. -1.
        -11    1    3    3    0    0 -0.65597691075E-01  0.18786988805E+02  0.25241389690E+02  0.31465584456E+02  0.51100000000E-03 0.  1.
         12    1    3    3    0    0  0.17954872512E+01  0.62789006567E+01  0.75061044367E+01  0.99493704193E+01  0.00000000000E+00 0. -1.
</event>
<event>
 7    1  0.2751796E-010  0.4778727E+02  0.7816164E-02  0.1312668E+00
        -11   -1    0    0    0    0  0.00000000000E+00  0.00000000000E+00  0.45593999997E+02  0.45594000000E+02  0.51100000000E-03 0. -1.
         11   -1    0    0    0    0 -0.00000000000E+00 -0.00000000000E+00 -0.45593999997E+02  0.45594000000E+02  0.51100000000E-03 0.  1.
    9900012    2    1    2    0    0  0.36053081608E+02 -0.11197021003E+01 -0.24135973238E+02  0.47787266937E+02  0.19999981273E+02 0.  0.
         12    1    1    2    0    0 -0.36053081608E+02  0.11197021003E+01  0.24135973238E+02  0.43400733063E+02  0.00000000000E+00 0. -1.
         11    1    3    3    0    0  0.19117636213E+02 -0.48996441304E+01 -0.49419793609E+01  0.20344868818E+02  0.51100000000E-03 0. -1.
        -11    1    3    3    0    0  0.74044354126E+01  0.76612237851E+00 -0.22623535150E+01  0.77801575155E+01  0.51100000000E-03 0.  1.
         12    1    3    3    0    0  0.95310099833E+01  0.30138196516E+01 -0.16931640362E+02  0.19662240603E+02  0.00000000000E+00 0. -1.
</event>
<event>
 7    1  0.2751796E-010  0.4778727E+02  0.7816164E-02  0.1312668E+00
        -11   -1    0    0    0    0  0.00000000000E+00  0.00000000000E+00  0.45593999997E+02  0.45594000000E+02  0.51100000000E-03 0.  1.
         11   -1    0    0    0    0 -0.00000000000E+00 -0.00000000000E+00 -0.45593999997E+02  0.45594000000E+02  0.51100000000E-03 0. -1.
    9900012    2    1    2    0    0 -0.11830190894E+02  0.14181875985E+02  0.39275237868E+02  0.47787270368E+02  0.19999996916E+02 0.  0.
         12    1    1    2    0    0  0.11830190894E+02 -0.14181875985E+02 -0.39275237868E+02  0.43400729632E+02  0.00000000000E+00 0. -1.
         11    1    3    3    0    0 -0.50671885086E+01  0.13291090754E+02  0.30659888776E+02  0.33798790996E+02  0.51100000000E-03 0. -1.
        -11    1    3    3    0    0 -0.40133715448E+01  0.27019792113E+01  0.94281670605E+01  0.10597083429E+02  0.51100000000E-03 0.  1.
         12    1    3    3    0    0 -0.27496308401E+01 -0.18111939800E+01 -0.81281796900E+00  0.33913959428E+01  0.00000000000E+00 0. -1.
</event>
<event>
 7    1  0.2751796E-010  0.4778727E+02  0.7816164E-02  0.1312668E+00
        -11   -1    0    0    0    0  0.00000000000E+00  0.00000000000E+00  0.45593999997E+02  0.45594000000E+02  0.51100000000E-03 0. -1.
         11   -1    0    0    0    0 -0.00000000000E+00 -0.00000000000E+00 -0.45593999997E+02  0.45594000000E+02  0.51100000000E-03 0.  1.
    9900012    2    1    2    0    0  0.36773561210E+02  0.14497473387E+02 -0.17920716484E+02  0.47787267080E+02  0.19999981926E+02 0.  0.
         12    1    1    2    0    0 -0.36773561210E+02 -0.14497473387E+02  0.17920716484E+02  0.43400732920E+02  0.00000000000E+00 0. -1.
         11    1    3    3    0    0  0.27450250530E+01  0.18288900559E+01  0.29366189128E+01  0.44163030102E+01  0.51100000000E-03 0. -1.
        -11    1    3    3    0    0  0.25286748477E+02  0.14123350723E+02 -0.14022742303E+02  0.32179589590E+02  0.51100000000E-03 0.  1.
        -12    1    3    3    0    0  0.87417876800E+01 -0.14547673920E+01 -0.68345930936E+01  0.11191374480E+02  0.00000000000E+00 0.  1.
</event>
<event>
 7    1  0.2751796E-010  0.4778727E+02  0.7816164E-02  0.1312668E+00
        -11   -1    0    0    0    0  0.00000000000E+00  0.00000000000E+00  0.45593999997E+02  0.45594000000E+02  0.51100000000E-03 0.  1.
         11   -1    0    0    0    0 -0.00000000000E+00 -0.00000000000E+00 -0.45593999997E+02  0.45594000000E+02  0.51100000000E-03 0. -1.
    9900012    2    1    2    0    0 -0.34521905995E+02  0.19364661839E+02  0.17800872950E+02  0.47787271901E+02  0.20000003907E+02 0.  0.
         12    1    1    2    0    0  0.34521905995E+02 -0.19364661839E+02 -0.17800872950E+02  0.43400728099E+02  0.00000000000E+00 0. -1.
         11    1    3    3    0    0 -0.78597145048E+01  0.90764586749E+01  0.92286526558E+01  0.15143488511E+02  0.51100000000E-03 0. -1.
        -11    1    3    3    0    0 -0.39875412559E+01 -0.29117991154E+01 -0.30173742561E+00  0.49467267047E+01  0.51100000000E-03 0.  1.
        -12    1    3    3    0    0 -0.22674650235E+02  0.13200002280E+02  0.88739577197E+01  0.27697056686E+02  0.00000000000E+00 0.  1.
</event>
<event>
 7    1  0.2751796E-010  0.4778727E+02  0.7816164E-02  0.1312668E+00
        -11   -1    0    0    0    0  0.00000000000E+00  0.00000000000E+00  0.45593999997E+02  0.45594000000E+02  0.51100000000E-03 0.  1.
         11   -1    0    0    0    0 -0.00000000000E+00 -0.00000000000E+00 -0.45593999997E+02  0.45594000000E+02  0.51100000000E-03 0. -1.
    9900012    2    1    2    0    0  0.11138046080E+02  0.41716028897E+02 -0.43977458100E+01  0.47787270679E+02  0.19999998332E+02 0.  0.
         12    1    1    2    0    0 -0.11138046080E+02 -0.41716028897E+02  0.43977458100E+01  0.43400729321E+02  0.00000000000E+00 0. -1.
         11    1    3    3    0    0  0.91564601750E+01  0.15724120502E+02 -0.80344219044E+01  0.19890718039E+02  0.51100000000E-03 0. -1.
        -11    1    3    3    0    0  0.38341220921E+01  0.22335974087E+02  0.38685772508E+00  0.22665963244E+02  0.51100000000E-03 0.  1.
         12    1    3    3    0    0 -0.18525361874E+01  0.36559343079E+01  0.32498183693E+01  0.52305893953E+01  0.00000000000E+00 0. -1.
</event>
<event>
 7    1  0.2751796E-010  0.4778727E+02  0.7816164E-02  0.1312668E+00
        -11   -1    0    0    0    0  0.00000000000E+00  0.00000000000E+00  0.45593999997E+02  0.45594000000E+02  0.51100000000E-03 0. -1.
         11   -1    0    0    0    0 -0.00000000000E+00 -0.00000000000E+00 -0.45593999997E+02  0.45594000000E+02  0.51100000000E-03 0.  1.
    9900012    2    1    2    0    0 -0.32725194411E+02  0.27596255947E+02 -0.71506458204E+01  0.47787269278E+02  0.19999991947E+02 0.  0.
         12    1    1    2    0    0  0.32725194411E+02 -0.27596255947E+02  0.71506458204E+01  0.43400730722E+02  0.00000000000E+00 0. -1.
         11    1    3    3    0    0 -0.10237028117E+02  0.13275955705E+02  0.49796594716E+01  0.17488417689E+02  0.51100000000E-03 0. -1.
        -11    1    3    3    0    0 -0.10761086506E+02  0.28583234668E+01 -0.68446526363E+01  0.13069822715E+02  0.51100000000E-03 0.  1.
         12    1    3    3    0    0 -0.11727079788E+02  0.11461976776E+02 -0.52856526557E+01  0.17229028874E+02  0.00000000000E+00 0. -1.
</event>
<event>
 7    1  0.2751796E-010  0.4778727E+02  0.7816164E-02  0.1312668E+00
        -11   -1    0    0    0    0  0.00000000000E+00  0.00000000000E+00  0.45593999997E+02  0.45594000000E+02  0.51100000000E-03 0.  1.
         11   -1    0    0    0    0 -0.00000000000E+00 -0.00000000000E+00 -0.45593999997E+02  0.45594000000E+02  0.51100000000E-03 0. -1.
    9900012    2    1    2    0    0  0.25496164864E+02  0.47432849498E+01  0.34800433937E+02  0.47787269855E+02  0.19999994578E+02 0.  0.
         12    1    1    2    0    0 -0.25496164864E+02 -0.47432849498E+01 -0.34800433937E+02  0.43400730145E+02  0.00000000000E+00 0. -1.
         11    1    3    3    0    0  0.18906663955E+02  0.43460328693E+01  0.31613997969E+02  0.37091708122E+02  0.51100000000E-03 0. -1.
        -11    1    3    3    0    0  0.30120776594E+01  0.11168830059E+01  0.55038627522E+01  0.63727972611E+01  0.51100000000E-03 0.  1.
         12    1    3    3    0    0  0.35774232503E+01 -0.71963092535E+00 -0.23174267841E+01  0.43227644720E+01  0.00000000000E+00 0. -1.
</event>
<event>
 7    1  0.2751796E-010  0.4778727E+02  0.7816164E-02  0.1312668E+00
        -11   -1    0    0    0    0  0.00000000000E+00  0.00000000000E+00  0.45593999997E+02  0.45594000000E+02  0.51100000000E-03 0.  1.
         11   -1    0    0    0    0 -0.00000000000E+00 -0.00000000000E+00 -0.45593999997E+02  0.45594000000E+02  0.51100000000E-03 0. -1.
    9900012    2    1    2    0    0 -0.31849487418E+02 -0.14909798027E+01  0.29445037167E+02  0.47787273240E+02  0.20000010011E+02 0.  0.
         12    1    1    2    0    0  0.31849487418E+02  0.14909798027E+01 -0.29445037167E+02  0.43400726760E+02  0.00000000000E+00 0. -1.
         11    1    3    3    0    0 -0.18045066997E+02 -0.40192567834E+01  0.23563500396E+02  0.29950249067E+02  0.51100000000E-03 0. -1.
        -11    1    3    3    0    0 -0.10084652367E+02  0.43514697540E+01  0.75954842598E+01  0.13353908933E+02  0.51100000000E-03 0.  1.
         12    1    3    3    0    0 -0.37197680544E+01 -0.18231927733E+01 -0.17139474888E+01  0.44831152407E+01  0.00000000000E+00 0. -1.
</event>
<event>
 7    1  0.2751796E-010  0.4778728E+02  0.7816164E-02  0.1312668E+00
        -11   -1    0    0    0    0  0.00000000000E+00  0.00000000000E+00  0.45593999997E+02  0.45594000000E+02  0.51100000000E-03 0. -1.
         11   -1    0    0    0    0 -0.00000000000E+00 -0.00000000000E+00 -0.45593999997E+02  0.45594000000E+02  0.51100000000E-03 0.  1.
    9900012    2    1    2    0    0 -0.43012266930E+02 -0.51389674931E+01  0.26755831420E+01  0.47787276060E+02  0.20000022867E+02 0.  0.
         12    1    1    2    0    0  0.43012266930E+02  0.51389674931E+01 -0.26755831420E+01  0.43400723940E+02  0.00000000000E+00 0. -1.
         11    1    3    3    0    0 -0.11242222387E+02 -0.83220718111E+01 -0.37564185070E+01  0.14482925246E+02  0.51100000000E-03 0. -1.
        -11    1    3    3    0    0 -0.27238349290E+02  0.27005536479E+00  0.60509979605E+01  0.27903676792E+02  0.51100000000E-03 0.  1.
         12    1    3    3    0    0 -0.45316952538E+01  0.29130489532E+01  0.38100368847E+00  0.54006740216E+01  0.00000000000E+00 0. -1.
</event>
<event>
 7    1  0.2751796E-010  0.4778727E+02  0.7816164E-02  0.1312668E+00
        -11   -1    0    0    0    0  0.00000000000E+00  0.00000000000E+00  0.45593999997E+02  0.45594000000E+02  0.51100000000E-03 0.  1.
         11   -1    0    0    0    0 -0.00000000000E+00 -0.00000000000E+00 -0.45593999997E+02  0.45594000000E+02  0.51100000000E-03 0. -1.
    9900012    2    1    2    0    0  0.11868561424E+02  0.40062889737E+02 -0.11735649178E+02  0.47787270214E+02  0.19999996214E+02 0.  0.
         12    1    1    2    0    0 -0.11868561424E+02 -0.40062889737E+02  0.11735649178E+02  0.43400729786E+02  0.00000000000E+00 0. -1.
         11    1    3    3    0    0  0.82517978641E+01  0.14671133042E+02  0.26097123248E+01  0.17033640580E+02  0.51100000000E-03 0. -1.
        -11    1    3    3    0    0  0.27079655382E+01  0.14704230900E+02 -0.32093534160E+01  0.15292070930E+02  0.51100000000E-03 0.  1.
         12    1    3    3    0    0  0.90879802166E+00  0.10687525795E+02 -0.11136008087E+02  0.15461558704E+02  0.00000000000E+00 0. -1.
</event>
<event>
 7    1  0.2751796E-010  0.4778727E+02  0.7816164E-02  0.1312668E+00
        -11   -1    0    0    0    0  0.00000000000E+00  0.00000000000E+00  0.45593999997E+02  0.45594000000E+02  0.51100000000E-03 0. -1.
         11   -1    0    0    0    0 -0.00000000000E+00 -0.00000000000E+00 -0.45593999997E+02  0.45594000000E+02  0.51100000000E-03 0.  1.
    9900012    2    1    2    0    0 -0.43018729456E+02 -0.18379738782E+01  0.54437156555E+01  0.47787271065E+02  0.20000000092E+02 0.  0.
         12    1    1    2    0    0  0.43018729456E+02  0.18379738782E+01 -0.54437156555E+01  0.43400728935E+02  0.00000000000E+00 0. -1.
         11    1    3    3    0    0 -0.98562734934E+01 -0.22948030217E+01 -0.41858647136E+01  0.10951425101E+02  0.51100000000E-03 0. -1.
        -11    1    3    3    0    0 -0.22416355988E+02  0.14825500705E-02  0.25661335653E-01  0.22416370731E+02  0.51100000000E-03 0.  1.
         12    1    3    3    0    0 -0.10746099975E+02  0.45534659337E+00  0.96039190334E+01  0.14419475233E+02  0.00000000000E+00 0. -1.
</event>
<event>
 7    1  0.2751796E-010  0.4778728E+02  0.7816164E-02  0.1312668E+00
        -11   -1    0    0    0    0  0.00000000000E+00  0.00000000000E+00  0.45593999997E+02  0.45594000000E+02  0.51100000000E-03 0.  1.
         11   -1    0    0    0    0 -0.00000000000E+00 -0.00000000000E+00 -0.45593999997E+02  0.45594000000E+02  0.51100000000E-03 0. -1.
    9900012    2    1    2    0    0  0.36672216075E+02 -0.17947393610E+02  0.14719455761E+02  0.47787277112E+02  0.20000027665E+02 0.  0.
         12    1    1    2    0    0 -0.36672216075E+02  0.17947393610E+02 -0.14719455761E+02  0.43400722888E+02  0.00000000000E+00 0. -1.
         11    1    3    3    0    0  0.65331340338E+01 -0.10154690238E+02  0.17875540945E+01  0.12206347694E+02  0.51100000000E-03 0. -1.
        -11    1    3    3    0    0  0.23812818253E+02 -0.41403076813E+01  0.47859557714E+01  0.24639355384E+02  0.51100000000E-03 0.  1.
         12    1    3    3    0    0  0.63262637887E+01 -0.36523956911E+01  0.81459458954E+01  0.10941574034E+02  0.00000000000E+00 0. -1.
</event>
<event>
 7    1  0.2751796E-010  0.4778727E+02  0.7816164E-02  0.1312668E+00
        -11   -1    0    0    0    0  0.00000000000E+00  0.00000000000E+00  0.45593999997E+02  0.45594000000E+02  0.51100000000E-03 0.  1.
         11   -1    0    0    0    0 -0.00000000000E+00 -0.00000000000E+00 -0.45593999997E+02  0.45594000000E+02  0.51100000000E-03 0. -1.
    9900012    2    1    2    0    0 -0.50812714383E+01  0.17403306824E+01  0.43067104697E+02  0.47787267549E+02  0.19999984063E+02 0.  0.
         12    1    1    2    0    0  0.50812714383E+01 -0.17403306824E+01 -0.43067104697E+02  0.43400732451E+02  0.00000000000E+00 0. -1.
         11    1    3    3    0    0 -0.13065381806E+01  0.75394128566E+01  0.14536676056E+02  0.16427560356E+02  0.51100000000E-03 0. -1.
        -11    1    3    3    0    0 -0.36838682903E+01 -0.54083154226E+01  0.29549038425E+02  0.30264937360E+02  0.51100000000E-03 0.  1.
        -12    1    3    3    0    0 -0.90864967395E-01 -0.39076675157E+00 -0.10186097838E+01  0.10947698334E+01  0.00000000000E+00 0.  1.
</event>
<event>
 7    1  0.2751796E-010  0.4778727E+02  0.7816164E-02  0.1312668E+00
        -11   -1    0    0    0    0  0.00000000000E+00  0.00000000000E+00  0.45593999997E+02  0.45594000000E+02  0.51100000000E-03 0.  1.
         11   -1    0    0    0    0 -0.00000000000E+00 -0.00000000000E+00 -0.45593999997E+02  0.45594000000E+02  0.51100000000E-03 0. -1.
    9900012    2    1    2    0    0  0.33204563070E+02 -0.25047350967E+02  0.12397999957E+02  0.47787271872E+02  0.20000003773E+02 0.  0.
         12    1    1    2    0    0 -0.33204563070E+02  0.25047350967E+02 -0.12397999957E+02  0.43400728128E+02  0.00000000000E+00 0. -1.
         11    1    3    3    0    0  0.60483092384E+01 -0.67596362647E+01  0.56227642647E+01  0.10671935406E+02  0.51100000000E-03 0. -1.
        -11    1    3    3    0    0  0.24574136334E+02 -0.18469171871E+02  0.96656501507E+00  0.30756019482E+02  0.51100000000E-03 0.  1.
        -12    1    3    3    0    0  0.25821174974E+01  0.18145716846E+00  0.58086706768E+01  0.63593169842E+01  0.00000000000E+00 0.  1.
</event>
<event>
 7    1  0.2751796E-010  0.4778727E+02  0.7816164E-02  0.1312668E+00
        -11   -1    0    0    0    0  0.00000000000E+00  0.00000000000E+00  0.45593999997E+02  0.45594000000E+02  0.51100000000E-03 0.  1.
         11   -1    0    0    0    0 -0.00000000000E+00 -0.00000000000E+00 -0.45593999997E+02  0.45594000000E+02  0.51100000000E-03 0. -1.
    9900012    2    1    2    0    0  0.27331056799E+02  0.27434835174E+02  0.19595058838E+02  0.47787272153E+02  0.20000005054E+02 0.  0.
         12    1    1    2    0    0 -0.27331056799E+02 -0.27434835174E+02 -0.19595058838E+02  0.43400727847E+02  0.00000000000E+00 0. -1.
         11    1    3    3    0    0  0.17003198638E+00  0.32853316556E+01  0.77221331781E+01  0.83936676158E+01  0.51100000000E-03 0. -1.
        -11    1    3    3    0    0  0.20901310309E+02  0.13939848675E+02  0.51020284036E+01  0.25636201899E+02  0.51100000000E-03 0.  1.
         12    1    3    3    0    0  0.62597145032E+01  0.10209654844E+02  0.67708972564E+01  0.13757402638E+02  0.00000000000E+00 0. -1.
</event>
<event>
 7    1  0.2751796E-010  0.4778727E+02  0.7816164E-02  0.1312668E+00
        -11   -1    0    0    0    0  0.00000000000E+00  0.00000000000E+00  0.45593999997E+02  0.45594000000E+02  0.51100000000E-03 0. -1.
         11   -1    0    0    0    0 -0.00000000000E+00 -0.00000000000E+00 -0.45593999997E+02  0.45594000000E+02  0.51100000000E-03 0.  1.
    9900012    2    1    2    0    0  0.42925476743E+02  0.58891866645E+01  0.25187348809E+01  0.47787273064E+02  0.20000009207E+02 0.  0.
         12    1    1    2    0    0 -0.42925476743E+02 -0.58891866645E+01 -0.25187348809E+01  0.43400726936E+02  0.00000000000E+00 0. -1.
         11    1    3    3    0    0  0.92234268966E+01  0.60359579860E+00  0.51758062916E+01  0.10593625566E+02  0.51100000000E-03 0. -1.
        -11    1    3    3    0    0  0.10426731162E+02  0.43052016960E+01  0.54489816064E+01  0.12527684749E+02  0.51100000000E-03 0.  1.
        -12    1    3    3    0    0  0.23275318685E+02  0.98038916990E+00 -0.81060530171E+01  0.24665962749E+02  0.00000000000E+00 0.  1.
</event>
<event>
 7    1  0.2751796E-010  0.4778727E+02  0.7816164E-02  0.1312668E+00
        -11   -1    0    0    0    0  0.00000000000E+00  0.00000000000E+00  0.45593999997E+02  0.45594000000E+02  0.51100000000E-03 0.  1.
         11   -1    0    0    0    0 -0.00000000000E+00 -0.00000000000E+00 -0.45593999997E+02  0.45594000000E+02  0.51100000000E-03 0. -1.
    9900012    2    1    2    0    0  0.40079358213E+02  0.16600333128E+02  0.13028041766E+01  0.47787270588E+02  0.19999997920E+02 0.  0.
         12    1    1    2    0    0 -0.40079358213E+02 -0.16600333128E+02 -0.13028041766E+01  0.43400729412E+02  0.00000000000E+00 0. -1.
         11    1    3    3    0    0  0.69368041201E+01 -0.24985308401E+01 -0.51190411337E+01  0.89758838088E+01  0.51100000000E-03 0. -1.
        -11    1    3    3    0    0  0.20466873572E+02  0.12282711417E+02  0.45266758013E+01  0.24295034629E+02  0.51100000000E-03 0.  1.
         12    1    3    3    0    0  0.12675680522E+02  0.68161525510E+01  0.18951695090E+01  0.14516352150E+02  0.00000000000E+00 0. -1.
</event>
<event>
 7    1  0.2751796E-010  0.4778728E+02  0.7816164E-02  0.1312668E+00
        -11   -1    0    0    0    0  0.00000000000E+00  0.00000000000E+00  0.45593999997E+02  0.45594000000E+02  0.51100000000E-03 0.  1.
         11   -1    0    0    0    0 -0.00000000000E+00 -0.00000000000E+00 -0.45593999997E+02  0.45594000000E+02  0.51100000000E-03 0. -1.
    9900012    2    1    2    0    0  0.36248020230E+02 -0.13122029250E+02  0.19937792768E+02  0.47787283385E+02  0.20000056265E+02 0.  0.
         12    1    1    2    0    0 -0.36248020230E+02  0.13122029250E+02 -0.19937792768E+02  0.43400716615E+02  0.00000000000E+00 0. -1.
         11    1    3    3    0    0  0.54442172631E+01 -0.39564596060E+01  0.47027656510E+01  0.82103032375E+01  0.51100000000E-03 0. -1.
        -11    1    3    3    0    0  0.33775215405E+01 -0.23539495989E+01  0.10030138676E+02  0.10842159038E+02  0.51100000000E-03 0.  1.
        -12    1    3    3    0    0  0.27426281427E+02 -0.68116200454E+01  0.52048884406E+01  0.28734821110E+02  0.00000000000E+00 0.  1.
</event>
<event>
 7    1  0.2751796E-010  0.4778728E+02  0.7816164E-02  0.1312668E+00
        -11   -1    0    0    0    0  0.00000000000E+00  0.00000000000E+00  0.45593999997E+02  0.45594000000E+02  0.51100000000E-03 0.  1.
         11   -1    0    0    0    0 -0.00000000000E+00 -0.00000000000E+00 -0.45593999997E+02  0.45594000000E+02  0.51100000000E-03 0. -1.
    9900012    2    1    2    0    0  0.42044376896E+02 -0.90790039438E+01 -0.57848882707E+01  0.47787275657E+02  0.20000021029E+02 0.  0.
         12    1    1    2    0    0 -0.42044376896E+02  0.90790039438E+01  0.57848882707E+01  0.43400724343E+02  0.00000000000E+00 0. -1.
         11    1    3    3    0    0  0.14330056563E+02  0.15571941733E+01 -0.86278502019E+01  0.16799261120E+02  0.51100000000E-03 0. -1.
        -11    1    3    3    0    0  0.20336126168E+02 -0.97268979874E+01 -0.11069432958E+01  0.22569800524E+02  0.51100000000E-03 0.  1.
         12    1    3    3    0    0  0.73781941655E+01 -0.90930012971E+00  0.39499052269E+01  0.84182140132E+01  0.00000000000E+00 0. -1.
</event>
<event>
 7    1  0.2751796E-010  0.4778727E+02  0.7816164E-02  0.1312668E+00
        -11   -1    0    0    0    0  0.00000000000E+00  0.00000000000E+00  0.45593999997E+02  0.45594000000E+02  0.51100000000E-03 0.  1.
         11   -1    0    0    0    0 -0.00000000000E+00 -0.00000000000E+00 -0.45593999997E+02  0.45594000000E+02  0.51100000000E-03 0. -1.
    9900012    2    1    2    0    0 -0.31973910733E+02  0.11731875951E+02  0.26900848193E+02  0.47787268273E+02  0.19999987366E+02 0.  0.
         12    1    1    2    0    0  0.31973910733E+02 -0.11731875951E+02 -0.26900848193E+02  0.43400731727E+02  0.00000000000E+00 0. -1.
         11    1    3    3    0    0 -0.23303203448E+02  0.66070462877E+01  0.12902902045E+02  0.27444074644E+02  0.51100000000E-03 0.  1.
        -11    1    3    3    0    0  0.19444941153E+01  0.30300675642E+01  0.17582835677E+01  0.40067353511E+01  0.51100000000E-03 0. -1.
        -12    1    3    3    0    0 -0.10615201400E+02  0.20947620991E+01  0.12239662580E+02  0.16336458279E+02  0.00000000000E+00 0.  1.
</event>
<event>
 7    1  0.2751796E-010  0.4778727E+02  0.7816164E-02  0.1312668E+00
        -11   -1    0    0    0    0  0.00000000000E+00  0.00000000000E+00  0.45593999997E+02  0.45594000000E+02  0.51100000000E-03 0. -1.
         11   -1    0    0    0    0 -0.00000000000E+00 -0.00000000000E+00 -0.45593999997E+02  0.45594000000E+02  0.51100000000E-03 0.  1.
    9900012    2    1    2    0    0 -0.36377263736E+02 -0.57558277391E+01 -0.22960585667E+02  0.47787270005E+02  0.19999995262E+02 0.  0.
         12    1    1    2    0    0  0.36377263736E+02  0.57558277391E+01  0.22960585667E+02  0.43400729995E+02  0.00000000000E+00 0. -1.
         11    1    3    3    0    0 -0.44131042746E+01 -0.18908135280E+01  0.13382665448E+01  0.49841371111E+01  0.51100000000E-03 0. -1.
        -11    1    3    3    0    0 -0.12158552223E+02  0.52963300437E+01 -0.11146839039E+02  0.17324362179E+02  0.51100000000E-03 0.  1.
        -12    1    3    3    0    0 -0.19805607239E+02 -0.91613442547E+01 -0.13152013173E+02  0.25478770715E+02  0.00000000000E+00 0.  1.
</event>
<event>
 7    1  0.2751796E-010  0.4778727E+02  0.7816164E-02  0.1312668E+00
        -11   -1    0    0    0    0  0.00000000000E+00  0.00000000000E+00  0.45593999997E+02  0.45594000000E+02  0.51100000000E-03 0. -1.
         11   -1    0    0    0    0 -0.00000000000E+00 -0.00000000000E+00 -0.45593999997E+02  0.45594000000E+02  0.51100000000E-03 0.  1.
    9900012    2    1    2    0    0 -0.13307801634E+02  0.38941763687E+02 -0.13786395218E+02  0.47787271475E+02  0.20000001965E+02 0.  0.
         12    1    1    2    0    0  0.13307801634E+02 -0.38941763687E+02  0.13786395218E+02  0.43400728525E+02  0.00000000000E+00 0. -1.
         11    1    3    3    0    0 -0.97659986597E+01  0.47772959125E+01 -0.17897946786E+01  0.11018196373E+02  0.51100000000E-03 0. -1.
        -11    1    3    3    0    0 -0.92829268186E+00  0.25709454935E+02 -0.10533840290E+02  0.27799273226E+02  0.51100000000E-03 0.  1.
         12    1    3    3    0    0 -0.26135102926E+01  0.84550128395E+01 -0.14627602488E+01  0.89698018769E+01  0.00000000000E+00 0. -1.
</event>
<event>
 7    1  0.2751796E-010  0.4778727E+02  0.7816164E-02  0.1312668E+00
        -11   -1    0    0    0    0  0.00000000000E+00  0.00000000000E+00  0.45593999997E+02  0.45594000000E+02  0.51100000000E-03 0. -1.
         11   -1    0    0    0    0 -0.00000000000E+00 -0.00000000000E+00 -0.45593999997E+02  0.45594000000E+02  0.51100000000E-03 0.  1.
    9900012    2    1    2    0    0 -0.22397135340E+02  0.35858365997E+02 -0.98065977364E+01  0.47787269101E+02  0.19999991140E+02 0.  0.
         12    1    1    2    0    0  0.22397135340E+02 -0.35858365997E+02  0.98065977364E+01  0.43400730899E+02  0.00000000000E+00 0. -1.
         11    1    3    3    0    0  0.64813631079E+00  0.82510628774E+01 -0.17053037988E+01  0.84503361230E+01  0.51100000000E-03 0. -1.
        -11    1    3    3    0    0 -0.18761570549E+02  0.15496287078E+02 -0.10080480723E+02  0.26339087580E+02  0.51100000000E-03 0.  1.
        -12    1    3    3    0    0 -0.42837011017E+01  0.12111016041E+02  0.19791867849E+01  0.12997845398E+02  0.00000000000E+00 0.  1.
</event>
<event>
 7    1  0.2751796E-010  0.4778727E+02  0.7816164E-02  0.1312668E+00
        -11   -1    0    0    0    0  0.00000000000E+00  0.00000000000E+00  0.45593999997E+02  0.45594000000E+02  0.51100000000E-03 0. -1.
         11   -1    0    0    0    0 -0.00000000000E+00 -0.00000000000E+00 -0.45593999997E+02  0.45594000000E+02  0.51100000000E-03 0.  1.
    9900012    2    1    2    0    0 -0.74597920041E+01 -0.39275417138E+02  0.16894268975E+02  0.47787271753E+02  0.20000003233E+02 0.  0.
         12    1    1    2    0    0  0.74597920041E+01  0.39275417138E+02 -0.16894268975E+02  0.43400728247E+02  0.00000000000E+00 0. -1.
         11    1    3    3    0    0 -0.13855128263E+01 -0.26439508386E+00 -0.50923198911E+00  0.14996226299E+01  0.51100000000E-03 0. -1.
        -11    1    3    3    0    0 -0.11551722558E+02 -0.20972694168E+02  0.11269824947E+02  0.26463279262E+02  0.51100000000E-03 0.  1.
        -12    1    3    3    0    0  0.54774433798E+01 -0.18038327887E+02  0.61336760171E+01  0.19824369862E+02  0.00000000000E+00 0.  1.
</event>
<event>
 7    1  0.2751796E-010  0.4778727E+02  0.7816164E-02  0.1312668E+00
        -11   -1    0    0    0    0  0.00000000000E+00  0.00000000000E+00  0.45593999997E+02  0.45594000000E+02  0.51100000000E-03 0.  1.
         11   -1    0    0    0    0 -0.00000000000E+00 -0.00000000000E+00 -0.45593999997E+02  0.45594000000E+02  0.51100000000E-03 0. -1.
    9900012    2    1    2    0    0  0.27920874314E+02  0.24752647950E+01  0.33134891660E+02  0.47787271854E+02  0.20000003692E+02 0.  0.
         12    1    1    2    0    0 -0.27920874314E+02 -0.24752647950E+01 -0.33134891660E+02  0.43400728146E+02  0.00000000000E+00 0. -1.
         11    1    3    3    0    0  0.75291941538E+01  0.89299617834E+01  0.10015464053E+02  0.15386438916E+02  0.51100000000E-03 0. -1.
        -11    1    3    3    0    0  0.16465391080E+02 -0.49619009333E+01  0.22233420666E+02  0.28107909190E+02  0.51100000000E-03 0.  1.
         12    1    3    3    0    0  0.39262890805E+01 -0.14927960550E+01  0.88600694139E+00  0.42929237480E+01  0.00000000000E+00 0. -1.
</event>
<event>
 7    1  0.2751796E-010  0.4778727E+02  0.7816164E-02  0.1312668E+00
        -11   -1    0    0    0    0  0.00000000000E+00  0.00000000000E+00  0.45593999997E+02  0.45594000000E+02  0.51100000000E-03 0.  1.
         11   -1    0    0    0    0 -0.00000000000E+00 -0.00000000000E+00 -0.45593999997E+02  0.45594000000E+02  0.51100000000E-03 0. -1.
    9900012    2    1    2    0    0 -0.11256268075E+02  0.22614173256E+02  0.35291911152E+02  0.47787269640E+02  0.19999993597E+02 0.  0.
         12    1    1    2    0    0  0.11256268075E+02 -0.22614173256E+02 -0.35291911152E+02  0.43400730360E+02  0.00000000000E+00 0. -1.
         11    1    3    3    0    0  0.18317314037E+01  0.89320009298E+00 -0.56480607552E-01  0.20386850325E+01  0.51100000000E-03 0. -1.
        -11    1    3    3    0    0  0.16052845223E+00  0.12428367043E+02  0.11536095251E+02  0.16957935330E+02  0.51100000000E-03 0.  1.
        -12    1    3    3    0    0 -0.13248527931E+02  0.92926061195E+01  0.23812296509E+02  0.28790649278E+02  0.00000000000E+00 0.  1.
</event>
<event>
 7    1  0.2751796E-010  0.4778727E+02  0.7816164E-02  0.1312668E+00
        -11   -1    0    0    0    0  0.00000000000E+00  0.00000000000E+00  0.45593999997E+02  0.45594000000E+02  0.51100000000E-03 0. -1.
         11   -1    0    0    0    0 -0.00000000000E+00 -0.00000000000E+00 -0.45593999997E+02  0.45594000000E+02  0.51100000000E-03 0.  1.
    9900012    2    1    2    0    0  0.15952842566E+02 -0.17517266756E+02 -0.36363102613E+02  0.47787273598E+02  0.20000011643E+02 0.  0.
         12    1    1    2    0    0 -0.15952842566E+02  0.17517266756E+02  0.36363102613E+02  0.43400726402E+02  0.00000000000E+00 0. -1.
         11    1    3    3    0    0  0.97455486299E+01 -0.16852476178E+02 -0.16533882958E+02  0.25541162020E+02  0.51100000000E-03 0.  1.
        -11    1    3    3    0    0 -0.21057405018E+00  0.55188378124E+00 -0.12150453986E+02  0.12164803716E+02  0.51100000000E-03 0. -1.
         12    1    3    3    0    0  0.64178679862E+01 -0.12166743597E+01 -0.76787656698E+01  0.10081307861E+02  0.00000000000E+00 0. -1.
</event>
<event>
 7    1  0.2751796E-010  0.4778728E+02  0.7816164E-02  0.1312668E+00
        -11   -1    0    0    0    0  0.00000000000E+00  0.00000000000E+00  0.45593999997E+02  0.45594000000E+02  0.51100000000E-03 0. -1.
         11   -1    0    0    0    0 -0.00000000000E+00 -0.00000000000E+00 -0.45593999997E+02  0.45594000000E+02  0.51100000000E-03 0.  1.
    9900012    2    1    2    0    0 -0.33578946520E+02  0.20392236003E+02  0.18445412442E+02  0.47787283661E+02  0.20000057523E+02 0.  0.
         12    1    1    2    0    0  0.33578946520E+02 -0.20392236003E+02 -0.18445412442E+02  0.43400716339E+02  0.00000000000E+00 0. -1.
         11    1    3    3    0    0 -0.17107958088E+02  0.16692924659E+02  0.49139403786E+01  0.24402515729E+02  0.51100000000E-03 0. -1.
        -11    1    3    3    0    0 -0.11751933046E+02  0.65836331501E+01  0.10488351622E+02  0.17072131553E+02  0.51100000000E-03 0.  1.
         12    1    3    3    0    0 -0.47190553862E+01 -0.28843218062E+01  0.30431204420E+01  0.63126363783E+01  0.00000000000E+00 0. -1.
</event>
<event>
 7    1  0.2770161E-010  0.4778725E+02  0.7816164E-02  0.1312668E+00
        -11   -1    0    0    0    0  0.00000000000E+00  0.00000000000E+00  0.45593999997E+02  0.45594000000E+02  0.51100000000E-03 0.  1.
         11   -1    0    0    0    0 -0.00000000000E+00 -0.00000000000E+00 -0.45593999997E+02  0.45594000000E+02  0.51100000000E-03 0. -1.
    9900012    2    1    2    0    0  0.37511538158E+02 -0.66576856869E+01  0.20789064832E+02  0.47787245510E+02  0.19999883579E+02 0.  0.
         12    1    1    2    0    0 -0.37511538158E+02  0.66576856869E+01 -0.20789064832E+02  0.43400754490E+02  0.00000000000E+00 0. -1.
         11    1    3    3    0    0  0.70138859465E+00  0.41494496668E+01  0.19202930139E+01  0.46257328088E+01  0.51100000000E-03 0. -1.
        -11    1    3    3    0    0  0.20217313069E+02 -0.36458874476E+01  0.12231332165E+02  0.23908946648E+02  0.51100000000E-03 0.  1.
         12    1    3    3    0    0  0.16592836494E+02 -0.71612479061E+01  0.66374396534E+01  0.19252566053E+02  0.00000000000E+00 0. -1.
</event>
<event>
 7    1  0.2751796E-010  0.4778727E+02  0.7816164E-02  0.1312668E+00
        -11   -1    0    0    0    0  0.00000000000E+00  0.00000000000E+00  0.45593999997E+02  0.45594000000E+02  0.51100000000E-03 0. -1.
         11   -1    0    0    0    0 -0.00000000000E+00 -0.00000000000E+00 -0.45593999997E+02  0.45594000000E+02  0.51100000000E-03 0.  1.
    9900012    2    1    2    0    0 -0.21073944502E+02  0.27458209007E+02  0.26183178487E+02  0.47787271729E+02  0.20000003121E+02 0.  0.
         12    1    1    2    0    0  0.21073944502E+02 -0.27458209007E+02 -0.26183178487E+02  0.43400728271E+02  0.00000000000E+00 0. -1.
         11    1    3    3    0    0 -0.38114456927E+01  0.66332286464E+01  0.84165808077E+01  0.11373903169E+02  0.51100000000E-03 0.  1.
        -11    1    3    3    0    0 -0.31900996103E+01 -0.27151221612E+01  0.37074213264E+01  0.55940680213E+01  0.51100000000E-03 0. -1.
        -12    1    3    3    0    0 -0.14072399200E+02  0.23540102522E+02  0.14059176353E+02  0.30819300539E+02  0.00000000000E+00 0.  1.
</event>
<event>
 7    1  0.2751796E-010  0.4778727E+02  0.7816164E-02  0.1312668E+00
        -11   -1    0    0    0    0  0.00000000000E+00  0.00000000000E+00  0.45593999997E+02  0.45594000000E+02  0.51100000000E-03 0.  1.
         11   -1    0    0    0    0 -0.00000000000E+00 -0.00000000000E+00 -0.45593999997E+02  0.45594000000E+02  0.51100000000E-03 0. -1.
    9900012    2    1    2    0    0  0.33541469608E+01  0.42926435080E+02  0.54492490456E+01  0.47787269065E+02  0.19999990977E+02 0.  0.
         12    1    1    2    0    0 -0.33541469608E+01 -0.42926435080E+02 -0.54492490456E+01  0.43400730935E+02  0.00000000000E+00 0. -1.
         11    1    3    3    0    0  0.68880437367E+01  0.26562838259E+02 -0.63603072673E+00  0.27448753309E+02  0.51100000000E-03 0. -1.
        -11    1    3    3    0    0 -0.17946577000E+01  0.17018204289E+02  0.67054409459E+01  0.18379418163E+02  0.51100000000E-03 0.  1.
         12    1    3    3    0    0 -0.17392390759E+01 -0.65460746739E+00 -0.62016117354E+00  0.19590975934E+01  0.00000000000E+00 0. -1.
</event>
<event>
 7    1  0.2751796E-010  0.4778727E+02  0.7816164E-02  0.1312668E+00
        -11   -1    0    0    0    0  0.00000000000E+00  0.00000000000E+00  0.45593999997E+02  0.45594000000E+02  0.51100000000E-03 0.  1.
         11   -1    0    0    0    0 -0.00000000000E+00 -0.00000000000E+00 -0.45593999997E+02  0.45594000000E+02  0.51100000000E-03 0. -1.
    9900012    2    1    2    0    0  0.39551351099E+02  0.15691508243E+02  0.85492949980E+01  0.47787271323E+02  0.20000001271E+02 0.  0.
         12    1    1    2    0    0 -0.39551351099E+02 -0.15691508243E+02 -0.85492949980E+01  0.43400728677E+02  0.00000000000E+00 0. -1.
         11    1    3    3    0    0  0.19970997798E+02  0.29027647107E+01  0.10819305938E+02  0.22898126065E+02  0.51100000000E-03 0. -1.
        -11    1    3    3    0    0  0.54245847234E+01 -0.38663853137E+00 -0.22739844364E+00  0.54430982986E+01  0.51100000000E-03 0.  1.
         12    1    3    3    0    0  0.14155768577E+02  0.13175382064E+02 -0.20426124968E+01  0.19446046960E+02  0.00000000000E+00 0. -1.
</event>
<event>
 7    1  0.2751796E-010  0.4778727E+02  0.7816164E-02  0.1312668E+00
        -11   -1    0    0    0    0  0.00000000000E+00  0.00000000000E+00  0.45593999997E+02  0.45594000000E+02  0.51100000000E-03 0.  1.
         11   -1    0    0    0    0 -0.00000000000E+00 -0.00000000000E+00 -0.45593999997E+02  0.45594000000E+02  0.51100000000E-03 0. -1.
    9900012    2    1    2    0    0 -0.27245063564E+02  0.32228552801E+02  0.10131640547E+02  0.47787271384E+02  0.20000001548E+02 0.  0.
         12    1    1    2    0    0  0.27245063564E+02 -0.32228552801E+02 -0.10131640547E+02  0.43400728616E+02  0.00000000000E+00 0. -1.
         11    1    3    3    0    0 -0.93897465925E+01  0.50511657571E+01 -0.48545982097E+01  0.11715320765E+02  0.51100000000E-03 0. -1.
        -11    1    3    3    0    0 -0.85946741079E+01  0.14881772675E+02  0.57556990390E+01  0.18123566224E+02  0.51100000000E-03 0.  1.
         12    1    3    3    0    0 -0.92606428632E+01  0.12295614368E+02  0.92305397176E+01  0.17948384396E+02  0.00000000000E+00 0. -1.
</event>
<event>
 7    1  0.2751796E-010  0.4778727E+02  0.7816164E-02  0.1312668E+00
        -11   -1    0    0    0    0  0.00000000000E+00  0.00000000000E+00  0.45593999997E+02  0.45594000000E+02  0.51100000000E-03 0.  1.
         11   -1    0    0    0    0 -0.00000000000E+00 -0.00000000000E+00 -0.45593999997E+02  0.45594000000E+02  0.51100000000E-03 0. -1.
    9900012    2    1    2    0    0  0.99259038903E+00 -0.23003094183E+02  0.36789883201E+02  0.47787273237E+02  0.20000009995E+02 0.  0.
         12    1    1    2    0    0 -0.99259038903E+00  0.23003094183E+02 -0.36789883201E+02  0.43400726763E+02  0.00000000000E+00 0. -1.
         11    1    3    3    0    0 -0.75472064452E+01 -0.65419526257E+01  0.16078535987E+02  0.18928200892E+02  0.51100000000E-03 0.  1.
        -11    1    3    3    0    0  0.37104834973E+01 -0.14357456555E+02  0.15329299605E+02  0.21328189637E+02  0.51100000000E-03 0. -1.
        -12    1    3    3    0    0  0.48293133369E+01 -0.21036850019E+01  0.53820476088E+01  0.75308827076E+01  0.00000000000E+00 0.  1.
</event>
<event>
 7    1  0.2751796E-010  0.4778727E+02  0.7816164E-02  0.1312668E+00
        -11   -1    0    0    0    0  0.00000000000E+00  0.00000000000E+00  0.45593999997E+02  0.45594000000E+02  0.51100000000E-03 0.  1.
         11   -1    0    0    0    0 -0.00000000000E+00 -0.00000000000E+00 -0.45593999997E+02  0.45594000000E+02  0.51100000000E-03 0. -1.
    9900012    2    1    2    0    0  0.75776395987E+01 -0.15882103939E+02  0.39673183836E+02  0.47787270016E+02  0.19999995312E+02 0.  0.
         12    1    1    2    0    0 -0.75776395987E+01  0.15882103939E+02 -0.39673183836E+02  0.43400729984E+02  0.00000000000E+00 0. -1.
         11    1    3    3    0    0  0.21639344809E+00 -0.54967009037E+01  0.30988345805E+02  0.31472815618E+02  0.51100000000E-03 0. -1.
        -11    1    3    3    0    0  0.68751492408E+01 -0.52452891525E+01  0.54595908724E+01  0.10226821018E+02  0.51100000000E-03 0.  1.
         12    1    3    3    0    0  0.48609690987E+00 -0.51401138834E+01  0.32252471589E+01  0.60876333805E+01  0.00000000000E+00 0. -1.
</event>
<event>
 7    1  0.2751796E-010  0.4778727E+02  0.7816164E-02  0.1312668E+00
        -11   -1    0    0    0    0  0.00000000000E+00  0.00000000000E+00  0.45593999997E+02  0.45594000000E+02  0.51100000000E-03 0.  1.
         11   -1    0    0    0    0 -0.00000000000E+00 -0.00000000000E+00 -0.45593999997E+02  0.45594000000E+02  0.51100000000E-03 0. -1.
    9900012    2    1    2    0    0  0.71160992018E+01  0.27162802316E+02  0.33093301357E+02  0.47787270833E+02  0.19999999035E+02 0.  0.
         12    1    1    2    0    0 -0.71160992018E+01 -0.27162802316E+02 -0.33093301357E+02  0.43400729167E+02  0.00000000000E+00 0. -1.
         11    1    3    3    0    0  0.10907336485E+02  0.14695574646E+02  0.92203656004E+01  0.20492560734E+02  0.51100000000E-03 0. -1.
        -11    1    3    3    0    0 -0.27161063593E+01  0.11239097497E+02  0.21544106413E+02  0.24450829591E+02  0.51100000000E-03 0.  1.
        -12    1    3    3    0    0 -0.10751309242E+01  0.12281301734E+01  0.23288293442E+01  0.28438805076E+01  0.00000000000E+00 0.  1.
</event>
<event>
 7    1  0.2751796E-010  0.4778728E+02  0.7816164E-02  0.1312668E+00
        -11   -1    0    0    0    0  0.00000000000E+00  0.00000000000E+00  0.45593999997E+02  0.45594000000E+02  0.51100000000E-03 0.  1.
         11   -1    0    0    0    0 -0.00000000000E+00 -0.00000000000E+00 -0.45593999997E+02  0.45594000000E+02  0.51100000000E-03 0. -1.
    9900012    2    1    2    0    0  0.25995989676E+02 -0.29302756412E+02  0.18686353841E+02  0.47787276130E+02  0.20000023185E+02 0.  0.
         12    1    1    2    0    0 -0.25995989676E+02  0.29302756412E+02 -0.18686353841E+02  0.43400723870E+02  0.00000000000E+00 0. -1.
         11    1    3    3    0    0  0.28662891669E+01  0.50790635285E+00 -0.15828712688E+01  0.33134670915E+01  0.51100000000E-03 0. -1.
        -11    1    3    3    0    0  0.13612413842E+02 -0.19251003542E+02  0.18851961050E+02  0.30187669398E+02  0.51100000000E-03 0.  1.
        -12    1    3    3    0    0  0.95172866671E+01 -0.10559659223E+02  0.14172640605E+01  0.14286139641E+02  0.00000000000E+00 0.  1.
</event>
<event>
 7    1  0.2751796E-010  0.4778728E+02  0.7816164E-02  0.1312668E+00
        -11   -1    0    0    0    0  0.00000000000E+00  0.00000000000E+00  0.45593999997E+02  0.45594000000E+02  0.51100000000E-03 0.  1.
         11   -1    0    0    0    0 -0.00000000000E+00 -0.00000000000E+00 -0.45593999997E+02  0.45594000000E+02  0.51100000000E-03 0. -1.
    9900012    2    1    2    0    0  0.52713669543E+01 -0.16025929501E+02  0.39987561862E+02  0.47787276163E+02  0.20000023337E+02 0.  0.
         12    1    1    2    0    0 -0.52713669543E+01  0.16025929501E+02 -0.39987561862E+02  0.43400723837E+02  0.00000000000E+00 0. -1.
         11    1    3    3    0    0 -0.38539318817E+01  0.13342591764E+01  0.12919582793E+02  0.13548013076E+02  0.51100000000E-03 0.  1.
        -11    1    3    3    0    0  0.47788679457E+01 -0.14327794789E+02  0.16204260280E+02  0.22151779474E+02  0.51100000000E-03 0. -1.
         12    1    3    3    0    0  0.43464308903E+01 -0.30323938884E+01  0.10863718788E+02  0.12087483613E+02  0.00000000000E+00 0. -1.
</event>
<event>
 7    1  0.2751796E-010  0.4778727E+02  0.7816164E-02  0.1312668E+00
        -11   -1    0    0    0    0  0.00000000000E+00  0.00000000000E+00  0.45593999997E+02  0.45594000000E+02  0.51100000000E-03 0.  1.
         11   -1    0    0    0    0 -0.00000000000E+00 -0.00000000000E+00 -0.45593999997E+02  0.45594000000E+02  0.51100000000E-03 0. -1.
    9900012    2    1    2    0    0  0.13573656518E+02  0.36424683647E+00  0.41221922887E+02  0.47787265518E+02  0.19999974804E+02 0.  0.
         12    1    1    2    0    0 -0.13573656518E+02 -0.36424683647E+00 -0.41221922887E+02  0.43400734482E+02  0.00000000000E+00 0. -1.
         11    1    3    3    0    0  0.85075446363E+01 -0.43178534224E+01  0.94837684091E+01  0.13452287442E+02  0.51100000000E-03 0. -1.
        -11    1    3    3    0    0  0.55378958564E+01  0.66196254706E+01  0.31047292807E+02  0.32224557760E+02  0.51100000000E-03 0.  1.
        -12    1    3    3    0    0 -0.47178397490E+00 -0.19375252117E+01  0.69086167124E+00  0.21104203169E+01  0.00000000000E+00 0.  1.
</event>
<event>
 7    1  0.2751796E-010  0.4778728E+02  0.7816164E-02  0.1312668E+00
        -11   -1    0    0    0    0  0.00000000000E+00  0.00000000000E+00  0.45593999997E+02  0.45594000000E+02  0.51100000000E-03 0.  1.
         11   -1    0    0    0    0 -0.00000000000E+00 -0.00000000000E+00 -0.45593999997E+02  0.45594000000E+02  0.51100000000E-03 0. -1.
    9900012    2    1    2    0    0  0.10078192691E+02 -0.26778067357E+02  0.32634154722E+02  0.47787275194E+02  0.20000018920E+02 0.  0.
         12    1    1    2    0    0 -0.10078192691E+02  0.26778067357E+02 -0.32634154722E+02  0.43400724806E+02  0.00000000000E+00 0. -1.
         11    1    3    3    0    0  0.20314116418E+01 -0.86181749536E+01  0.11302471619E+01  0.89261991742E+01  0.51100000000E-03 0. -1.
        -11    1    3    3    0    0  0.43611563013E+01 -0.96809588827E+01  0.26040751225E+02  0.28122257623E+02  0.51100000000E-03 0.  1.
        -12    1    3    3    0    0  0.36856247483E+01 -0.84789335205E+01  0.54631563346E+01  0.10738818397E+02  0.00000000000E+00 0.  1.
</event>
<event>
 7    1  0.2751796E-010  0.4778723E+02  0.7816164E-02  0.1312668E+00
        -11   -1    0    0    0    0  0.00000000000E+00  0.00000000000E+00  0.45593999997E+02  0.45594000000E+02  0.51100000000E-03 0. -1.
         11   -1    0    0    0    0 -0.00000000000E+00 -0.00000000000E+00 -0.45593999997E+02  0.45594000000E+02  0.51100000000E-03 0.  1.
    9900012    2    1    2    0    0  0.21437414510E+01 -0.38265711705E+02 -0.20365807633E+02  0.47787234566E+02  0.19999833681E+02 0.  0.
         12    1    1    2    0    0 -0.21437414510E+01  0.38265711705E+02  0.20365807633E+02  0.43400765434E+02  0.00000000000E+00 0. -1.
         11    1    3    3    0    0 -0.33472641168E+01 -0.22986885540E+02 -0.16126162801E+02  0.28278157840E+02  0.51100000000E-03 0. -1.
        -11    1    3    3    0    0  0.49456671692E+01 -0.12744605306E+02  0.95465917358E+00  0.13703866701E+02  0.51100000000E-03 0.  1.
         12    1    3    3    0    0  0.54533839862E+00 -0.25342208590E+01 -0.51943040062E+01  0.58052100255E+01  0.00000000000E+00 0. -1.
</event>
<event>
 7    1  0.2751796E-010  0.4778727E+02  0.7816164E-02  0.1312668E+00
        -11   -1    0    0    0    0  0.00000000000E+00  0.00000000000E+00  0.45593999997E+02  0.45594000000E+02  0.51100000000E-03 0.  1.
         11   -1    0    0    0    0 -0.00000000000E+00 -0.00000000000E+00 -0.45593999997E+02  0.45594000000E+02  0.51100000000E-03 0. -1.
    9900012    2    1    2    0    0  0.67193696108E-01 -0.14122257206E+02  0.41038770721E+02  0.47787269985E+02  0.19999995168E+02 0.  0.
         12    1    1    2    0    0 -0.67193696108E-01  0.14122257206E+02 -0.41038770721E+02  0.43400730015E+02  0.00000000000E+00 0. -1.
         11    1    3    3    0    0  0.13695961028E+01 -0.15006079125E+01  0.19648024705E+01  0.28263167907E+01  0.51100000000E-03 0. -1.
        -11    1    3    3    0    0  0.26077473543E+01  0.37248588905E+01  0.14442686219E+02  0.15141535771E+02  0.51100000000E-03 0.  1.
        -12    1    3    3    0    0 -0.39101497611E+01 -0.16346508184E+02  0.24631282031E+02  0.29819417423E+02  0.00000000000E+00 0.  1.
</event>
<event>
 7    1  0.2751796E-010  0.4778726E+02  0.7816164E-02  0.1312668E+00
        -11   -1    0    0    0    0  0.00000000000E+00  0.00000000000E+00  0.45593999997E+02  0.45594000000E+02  0.51100000000E-03 0. -1.
         11   -1    0    0    0    0 -0.00000000000E+00 -0.00000000000E+00 -0.45593999997E+02  0.45594000000E+02  0.51100000000E-03 0.  1.
    9900012    2    1    2    0    0  0.39207396702E+02  0.83180010352E+01  0.16649768756E+02  0.47787263865E+02  0.19999967267E+02 0.  0.
         12    1    1    2    0    0 -0.39207396702E+02 -0.83180010352E+01 -0.16649768756E+02  0.43400736135E+02  0.00000000000E+00 0. -1.
         11    1    3    3    0    0 -0.22650049903E+01  0.83061996573E+00  0.19573793985E+01  0.31066881891E+01  0.51100000000E-03 0. -1.
        -11    1    3    3    0    0  0.21519793541E+02  0.47928344378E+01  0.70834962901E+01  0.23157044197E+02  0.51100000000E-03 0.  1.
         12    1    3    3    0    0  0.19952608152E+02  0.26945466317E+01  0.76088930677E+01  0.21523531479E+02  0.00000000000E+00 0. -1.
</event>
<event>
 7    1  0.2751796E-010  0.4778728E+02  0.7816164E-02  0.1312668E+00
        -11   -1    0    0    0    0  0.00000000000E+00  0.00000000000E+00  0.45593999997E+02  0.45594000000E+02  0.51100000000E-03 0. -1.
         11   -1    0    0    0    0 -0.00000000000E+00 -0.00000000000E+00 -0.45593999997E+02  0.45594000000E+02  0.51100000000E-03 0.  1.
    9900012    2    1    2    0    0 -0.13000250567E+02  0.41310304022E+02 -0.28416850875E+01  0.47787275267E+02  0.20000019253E+02 0.  0.
         12    1    1    2    0    0  0.13000250567E+02 -0.41310304022E+02  0.28416850875E+01  0.43400724733E+02  0.00000000000E+00 0. -1.
         11    1    3    3    0    0 -0.13536810443E+02  0.23106564092E+02 -0.38904836458E+01  0.27060938719E+02  0.51100000000E-03 0.  1.
        -11    1    3    3    0    0  0.12892688957E-01  0.17799576821E+02  0.35405333122E+01  0.18148291314E+02  0.51100000000E-03 0. -1.
        -12    1    3    3    0    0  0.52366718714E+00  0.40416310885E+00 -0.24917347539E+01  0.25780452334E+01  0.00000000000E+00 0.  1.
</event>
<event>
 7    1  0.2751796E-010  0.4778727E+02  0.7816164E-02  0.1312668E+00
        -11   -1    0    0    0    0  0.00000000000E+00  0.00000000000E+00  0.45593999997E+02  0.45594000000E+02  0.51100000000E-03 0.  1.
         11   -1    0    0    0    0 -0.00000000000E+00 -0.00000000000E+00 -0.45593999997E+02  0.45594000000E+02  0.51100000000E-03 0. -1.
    9900012    2    1    2    0    0 -0.81913254906E+01 -0.27749957476E+02  0.32349113558E+02  0.47787273034E+02  0.20000009069E+02 0.  0.
         12    1    1    2    0    0  0.81913254906E+01  0.27749957476E+02 -0.32349113558E+02  0.43400726966E+02  0.00000000000E+00 0. -1.
         11    1    3    3    0    0 -0.44586964170E+01 -0.91834059721E+01  0.21785593737E+02  0.24058824030E+02  0.51100000000E-03 0. -1.
        -11    1    3    3    0    0 -0.44584972032E+01 -0.24036785863E+01  0.23478395907E+01  0.55828504423E+01  0.51100000000E-03 0.  1.
         12    1    3    3    0    0  0.72586812959E+00 -0.16162872917E+02  0.82156802312E+01  0.18145598561E+02  0.00000000000E+00 0. -1.
</event>
<event>
 7    1  0.2751796E-010  0.4778728E+02  0.7816164E-02  0.1312668E+00
        -11   -1    0    0    0    0  0.00000000000E+00  0.00000000000E+00  0.45593999997E+02  0.45594000000E+02  0.51100000000E-03 0. -1.
         11   -1    0    0    0    0 -0.00000000000E+00 -0.00000000000E+00 -0.45593999997E+02  0.45594000000E+02  0.51100000000E-03 0.  1.
    9900012    2    1    2    0    0 -0.22615162579E+02  0.21746507584E+02 -0.29987775786E+02  0.47787275730E+02  0.20000021362E+02 0.  0.
         12    1    1    2    0    0  0.22615162579E+02 -0.21746507584E+02  0.29987775786E+02  0.43400724270E+02  0.00000000000E+00 0. -1.
         11    1    3    3    0    0 -0.10029422622E+01 -0.18311757387E+01  0.10849997171E+01  0.23529391014E+01  0.51100000000E-03 0. -1.
        -11    1    3    3    0    0 -0.17643969714E+02  0.13194527432E+02 -0.20687019299E+02  0.30221813135E+02  0.51100000000E-03 0.  1.
         12    1    3    3    0    0 -0.39682506026E+01  0.10383155891E+02 -0.10385756204E+02  0.15212523493E+02  0.00000000000E+00 0. -1.
</event>
<event>
 7    1  0.2751796E-010  0.4778726E+02  0.7816164E-02  0.1312668E+00
        -11   -1    0    0    0    0  0.00000000000E+00  0.00000000000E+00  0.45593999997E+02  0.45594000000E+02  0.51100000000E-03 0. -1.
         11   -1    0    0    0    0 -0.00000000000E+00 -0.00000000000E+00 -0.45593999997E+02  0.45594000000E+02  0.51100000000E-03 0.  1.
    9900012    2    1    2    0    0 -0.40210305861E+02 -0.88003732598E+01 -0.13758950273E+02  0.47787262914E+02  0.19999962931E+02 0.  0.
         12    1    1    2    0    0  0.40210305861E+02  0.88003732598E+01  0.13758950273E+02  0.43400737086E+02  0.00000000000E+00 0. -1.
         11    1    3    3    0    0 -0.80411576049E+01 -0.72438610820E+00  0.44579724293E+01  0.92227148553E+01  0.51100000000E-03 0. -1.
        -11    1    3    3    0    0 -0.23509485789E+02 -0.50542768869E+01 -0.93289725252E+01  0.25792854932E+02  0.51100000000E-03 0.  1.
         12    1    3    3    0    0 -0.86596624672E+01 -0.30217102647E+01 -0.88879501770E+01  0.12771693127E+02  0.00000000000E+00 0. -1.
</event>
<event>
 7    1  0.2751796E-010  0.4778727E+02  0.7816164E-02  0.1312668E+00
        -11   -1    0    0    0    0  0.00000000000E+00  0.00000000000E+00  0.45593999997E+02  0.45594000000E+02  0.51100000000E-03 0. -1.
         11   -1    0    0    0    0 -0.00000000000E+00 -0.00000000000E+00 -0.45593999997E+02  0.45594000000E+02  0.51100000000E-03 0.  1.
    9900012    2    1    2    0    0 -0.34395886965E+02  0.50089373635E+01 -0.25989556020E+02  0.47787268258E+02  0.19999987294E+02 0.  0.
         12    1    1    2    0    0  0.34395886965E+02 -0.50089373635E+01  0.25989556020E+02  0.43400731742E+02  0.00000000000E+00 0. -1.
         11    1    3    3    0    0 -0.22136140394E+02  0.32741496088E+01 -0.23839249009E+02  0.32696155137E+02  0.51100000000E-03 0. -1.
        -11    1    3    3    0    0 -0.10512111198E+02  0.46302094766E+01 -0.22621840571E+01  0.11707296811E+02  0.51100000000E-03 0.  1.
         12    1    3    3    0    0 -0.17476353735E+01 -0.28954217219E+01  0.11187704574E+00  0.33838163100E+01  0.00000000000E+00 0. -1.
</event>
<event>
 7    1  0.2751796E-010  0.4778728E+02  0.7816164E-02  0.1312668E+00
        -11   -1    0    0    0    0  0.00000000000E+00  0.00000000000E+00  0.45593999997E+02  0.45594000000E+02  0.51100000000E-03 0.  1.
         11   -1    0    0    0    0 -0.00000000000E+00 -0.00000000000E+00 -0.45593999997E+02  0.45594000000E+02  0.51100000000E-03 0. -1.
    9900012    2    1    2    0    0 -0.17409772483E+02 -0.37156084787E+02  0.14140272293E+02  0.47787284394E+02  0.20000060866E+02 0.  0.
         12    1    1    2    0    0  0.17409772483E+02  0.37156084787E+02 -0.14140272293E+02  0.43400715606E+02  0.00000000000E+00 0. -1.
         11    1    3    3    0    0 -0.95579926166E+01 -0.44378550392E+01  0.35005556787E+01  0.11104218592E+02  0.51100000000E-03 0. -1.
        -11    1    3    3    0    0 -0.82910778859E+01 -0.23472162605E+02  0.11431502677E+02  0.27392766263E+02  0.51100000000E-03 0.  1.
         12    1    3    3    0    0  0.43929801941E+00 -0.92460671428E+01 -0.79178606225E+00  0.92902995392E+01  0.00000000000E+00 0. -1.
</event>
<event>
 7    1  0.2751796E-010  0.4778727E+02  0.7816164E-02  0.1312668E+00
        -11   -1    0    0    0    0  0.00000000000E+00  0.00000000000E+00  0.45593999997E+02  0.45594000000E+02  0.51100000000E-03 0. -1.
         11   -1    0    0    0    0 -0.00000000000E+00 -0.00000000000E+00 -0.45593999997E+02  0.45594000000E+02  0.51100000000E-03 0.  1.
    9900012    2    1    2    0    0  0.27865100063E+02 -0.16377833665E+02 -0.28964217989E+02  0.47787272347E+02  0.20000005940E+02 0.  0.
         12    1    1    2    0    0 -0.27865100063E+02  0.16377833665E+02  0.28964217989E+02  0.43400727653E+02  0.00000000000E+00 0. -1.
         11    1    3    3    0    0  0.73007805272E+01 -0.10472134488E+02 -0.18600716287E+02  0.22560000968E+02  0.51100000000E-03 0.  1.
        -11    1    3    3    0    0  0.42665136478E+01 -0.28001941602E+01  0.88911389277E+00  0.51802268113E+01  0.51100000000E-03 0. -1.
         12    1    3    3    0    0  0.16297805888E+02 -0.31055050163E+01 -0.11252615595E+02  0.20047044568E+02  0.00000000000E+00 0. -1.
</event>
<event>
 7    1  0.2751796E-010  0.4778727E+02  0.7816164E-02  0.1312668E+00
        -11   -1    0    0    0    0  0.00000000000E+00  0.00000000000E+00  0.45593999997E+02  0.45594000000E+02  0.51100000000E-03 0.  1.
         11   -1    0    0    0    0 -0.00000000000E+00 -0.00000000000E+00 -0.45593999997E+02  0.45594000000E+02  0.51100000000E-03 0. -1.
    9900012    2    1    2    0    0  0.28647804967E+02 -0.15292107041E+02  0.28793723312E+02  0.47787265337E+02  0.19999973977E+02 0.  0.
         12    1    1    2    0    0 -0.28647804967E+02  0.15292107041E+02 -0.28793723312E+02  0.43400734663E+02  0.00000000000E+00 0. -1.
         11    1    3    3    0    0  0.35284219365E+01 -0.55130286838E+01  0.13721859977E+02  0.15203048646E+02  0.51100000000E-03 0. -1.
        -11    1    3    3    0    0  0.70974922430E+01 -0.75314821322E+01  0.80557398597E+01  0.13114593558E+02  0.51100000000E-03 0.  1.
         12    1    3    3    0    0  0.18021890787E+02 -0.22475962248E+01  0.70161234747E+01  0.19469623133E+02  0.00000000000E+00 0. -1.
</event>
<event>
 7    1  0.2751796E-010  0.4778727E+02  0.7816164E-02  0.1312668E+00
        -11   -1    0    0    0    0  0.00000000000E+00  0.00000000000E+00  0.45593999997E+02  0.45594000000E+02  0.51100000000E-03 0. -1.
         11   -1    0    0    0    0 -0.00000000000E+00 -0.00000000000E+00 -0.45593999997E+02  0.45594000000E+02  0.51100000000E-03 0.  1.
    9900012    2    1    2    0    0 -0.21570143745E+02 -0.31184601903E+02  0.21115696180E+02  0.47787272792E+02  0.20000007967E+02 0.  0.
         12    1    1    2    0    0  0.21570143745E+02  0.31184601903E+02 -0.21115696180E+02  0.43400727208E+02  0.00000000000E+00 0. -1.
         11    1    3    3    0    0 -0.12815508119E-01  0.20070652413E+01  0.19499184973E+01  0.27983312040E+01  0.51100000000E-03 0. -1.
        -11    1    3    3    0    0 -0.15798605252E+02 -0.26616578802E+02  0.10510143379E+02  0.32687938282E+02  0.51100000000E-03 0.  1.
         12    1    3    3    0    0 -0.57587229848E+01 -0.65750883420E+01  0.86556343036E+01  0.12301003305E+02  0.00000000000E+00 0. -1.
</event>
<event>
 7    1  0.2751796E-010  0.4778727E+02  0.7816164E-02  0.1312668E+00
        -11   -1    0    0    0    0  0.00000000000E+00  0.00000000000E+00  0.45593999997E+02  0.45594000000E+02  0.51100000000E-03 0. -1.
         11   -1    0    0    0    0 -0.00000000000E+00 -0.00000000000E+00 -0.45593999997E+02  0.45594000000E+02  0.51100000000E-03 0.  1.
    9900012    2    1    2    0    0  0.53689389686E+01 -0.42903575948E+02  0.37524324820E+01  0.47787273228E+02  0.20000009957E+02 0.  0.
         12    1    1    2    0    0 -0.53689389686E+01  0.42903575948E+02 -0.37524324820E+01  0.43400726772E+02  0.00000000000E+00 0. -1.
         11    1    3    3    0    0 -0.13677676239E+01 -0.32651531065E+02  0.91280630764E+01  0.33931030119E+02  0.51100000000E-03 0. -1.
        -11    1    3    3    0    0 -0.34855251543E+00 -0.56485070363E+00  0.87662270597E-01  0.66949989410E+00  0.51100000000E-03 0.  1.
         12    1    3    3    0    0  0.70852591079E+01 -0.96871941796E+01 -0.54632928649E+01  0.13186743215E+02  0.00000000000E+00 0. -1.
</event>
<event>
 7    1  0.2751796E-010  0.4778727E+02  0.7816164E-02  0.1312668E+00
        -11   -1    0    0    0    0  0.00000000000E+00  0.00000000000E+00  0.45593999997E+02  0.45594000000E+02  0.51100000000E-03 0.  1.
         11   -1    0    0    0    0 -0.00000000000E+00 -0.00000000000E+00 -0.45593999997E+02  0.45594000000E+02  0.51100000000E-03 0. -1.
    9900012    2    1    2    0    0  0.11265635323E+02  0.18447227645E+02  0.37635202425E+02  0.47787271797E+02  0.20000003429E+02 0.  0.
         12    1    1    2    0    0 -0.11265635323E+02 -0.18447227645E+02 -0.37635202425E+02  0.43400728203E+02  0.00000000000E+00 0. -1.
         11    1    3    3    0    0  0.10268280118E+02  0.21490472196E+02  0.24502464928E+02  0.34170875897E+02  0.51100000000E-03 0. -1.
        -11    1    3    3    0    0  0.14043881718E+01 -0.26884745480E+01  0.11650809184E+02  0.12039167598E+02  0.51100000000E-03 0.  1.
         12    1    3    3    0    0 -0.40703296721E+00 -0.35477000268E+00  0.14819283133E+01  0.15772283021E+01  0.00000000000E+00 0. -1.
</event>
<event>
 7    1  0.2751796E-010  0.4778727E+02  0.7816164E-02  0.1312668E+00
        -11   -1    0    0    0    0  0.00000000000E+00  0.00000000000E+00  0.45593999997E+02  0.45594000000E+02  0.51100000000E-03 0.  1.
         11   -1    0    0    0    0 -0.00000000000E+00 -0.00000000000E+00 -0.45593999997E+02  0.45594000000E+02  0.51100000000E-03 0. -1.
    9900012    2    1    2    0    0  0.80940421685E+01 -0.42636587068E+02  0.48073506174E+00  0.47787272107E+02  0.20000004843E+02 0.  0.
         12    1    1    2    0    0 -0.80940421685E+01  0.42636587068E+02 -0.48073506174E+00  0.43400727893E+02  0.00000000000E+00 0. -1.
         11    1    3    3    0    0  0.56998210108E+01 -0.19572784441E+02 -0.68121750612E+01  0.21493896335E+02  0.51100000000E-03 0. -1.
        -11    1    3    3    0    0  0.35203330023E+01 -0.23459631489E+02  0.78346089462E+01  0.24982556948E+02  0.51100000000E-03 0.  1.
         12    1    3    3    0    0 -0.11261118446E+01  0.39582886157E+00 -0.54169882328E+00  0.13108188240E+01  0.00000000000E+00 0. -1.
</event>
<event>
 7    1  0.2751796E-010  0.4778728E+02  0.7816164E-02  0.1312668E+00
        -11   -1    0    0    0    0  0.00000000000E+00  0.00000000000E+00  0.45593999997E+02  0.45594000000E+02  0.51100000000E-03 0. -1.
         11   -1    0    0    0    0 -0.00000000000E+00 -0.00000000000E+00 -0.45593999997E+02  0.45594000000E+02  0.51100000000E-03 0.  1.
    9900012    2    1    2    0    0 -0.29261323018E+02  0.23006585863E+02  0.22318039934E+02  0.47787275071E+02  0.20000018360E+02 0.  0.
         12    1    1    2    0    0  0.29261323018E+02 -0.23006585863E+02 -0.22318039934E+02  0.43400724929E+02  0.00000000000E+00 0. -1.
         11    1    3    3    0    0 -0.46658720868E+00 -0.60664885935E-01  0.17166668058E+00  0.50085283471E+00  0.51100000000E-03 0. -1.
        -11    1    3    3    0    0 -0.15009473641E+02  0.21707920548E+01  0.14815306210E+02  0.21201177691E+02  0.51100000000E-03 0.  1.
        -12    1    3    3    0    0 -0.13785262168E+02  0.20896458694E+02  0.73310670434E+01  0.26085244545E+02  0.00000000000E+00 0.  1.
</event>
<event>
 7    1  0.2751796E-010  0.4778727E+02  0.7816164E-02  0.1312668E+00
        -11   -1    0    0    0    0  0.00000000000E+00  0.00000000000E+00  0.45593999997E+02  0.45594000000E+02  0.51100000000E-03 0. -1.
         11   -1    0    0    0    0 -0.00000000000E+00 -0.00000000000E+00 -0.45593999997E+02  0.45594000000E+02  0.51100000000E-03 0.  1.
    9900012    2    1    2    0    0  0.19836082352E+02  0.50272542869E+01 -0.38273750164E+02  0.47787269587E+02  0.19999993355E+02 0.  0.
         12    1    1    2    0    0 -0.19836082352E+02 -0.50272542869E+01  0.38273750164E+02  0.43400730413E+02  0.00000000000E+00 0. -1.
         11    1    3    3    0    0 -0.24776494881E+01  0.13397134572E+00 -0.20973983433E+01  0.32489652782E+01  0.51100000000E-03 0. -1.
        -11    1    3    3    0    0  0.53467068585E+01  0.70480115956E+01 -0.11338492594E+02  0.14381347511E+02  0.51100000000E-03 0.  1.
         12    1    3    3    0    0  0.16967024982E+02 -0.21547286544E+01 -0.24837859227E+02  0.30156956798E+02  0.00000000000E+00 0. -1.
</event>
<event>
 7    1  0.2751796E-010  0.4778727E+02  0.7816164E-02  0.1312668E+00
        -11   -1    0    0    0    0  0.00000000000E+00  0.00000000000E+00  0.45593999997E+02  0.45594000000E+02  0.51100000000E-03 0.  1.
         11   -1    0    0    0    0 -0.00000000000E+00 -0.00000000000E+00 -0.45593999997E+02  0.45594000000E+02  0.51100000000E-03 0. -1.
    9900012    2    1    2    0    0 -0.21028548836E+02  0.11227348126E+02  0.36268030282E+02  0.47787271520E+02  0.20000002169E+02 0.  0.
         12    1    1    2    0    0  0.21028548836E+02 -0.11227348126E+02 -0.36268030282E+02  0.43400728480E+02  0.00000000000E+00 0. -1.
         11    1    3    3    0    0 -0.41299750116E+01  0.54720709574E+01  0.12238226026E+01  0.69640502714E+01  0.51100000000E-03 0. -1.
        -11    1    3    3    0    0 -0.12876208313E+02  0.90507010198E+01  0.26405417256E+02  0.30740169001E+02  0.51100000000E-03 0.  1.
        -12    1    3    3    0    0 -0.40223655106E+01 -0.32954238508E+01  0.86387904232E+01  0.10083052248E+02  0.00000000000E+00 0.  1.
</event>
<event>
 7    1  0.2751796E-010  0.4778725E+02  0.7816164E-02  0.1312668E+00
        -11   -1    0    0    0    0  0.00000000000E+00  0.00000000000E+00  0.45593999997E+02  0.45594000000E+02  0.51100000000E-03 0.  1.
         11   -1    0    0    0    0 -0.00000000000E+00 -0.00000000000E+00 -0.45593999997E+02  0.45594000000E+02  0.51100000000E-03 0. -1.
    9900012    2    1    2    0    0  0.82267329707E+01 -0.14189044160E+02  0.40182292913E+02  0.47787253771E+02  0.19999921242E+02 0.  0.
         12    1    1    2    0    0 -0.82267329707E+01  0.14189044160E+02 -0.40182292913E+02  0.43400746229E+02  0.00000000000E+00 0. -1.
         11    1    3    3    0    0  0.66102661934E+01 -0.11150471737E+02  0.32929456553E+02  0.35388949521E+02  0.51100000000E-03 0. -1.
        -11    1    3    3    0    0  0.38320979758E+01 -0.41089533034E+01  0.80454663674E+01  0.98131545120E+01  0.51100000000E-03 0.  1.
         12    1    3    3    0    0 -0.22156311985E+01  0.10703808807E+01 -0.79263000703E+00  0.25851497376E+01  0.00000000000E+00 0. -1.
</event>
<event>
 7    1  0.2751796E-010  0.4778727E+02  0.7816164E-02  0.1312668E+00
        -11   -1    0    0    0    0  0.00000000000E+00  0.00000000000E+00  0.45593999997E+02  0.45594000000E+02  0.51100000000E-03 0.  1.
         11   -1    0    0    0    0 -0.00000000000E+00 -0.00000000000E+00 -0.45593999997E+02  0.45594000000E+02  0.51100000000E-03 0. -1.
    9900012    2    1    2    0    0  0.15709623454E+01 -0.27110289192E+02  0.33855396973E+02  0.47787267207E+02  0.19999982504E+02 0.  0.
         12    1    1    2    0    0 -0.15709623454E+01  0.27110289192E+02 -0.33855396973E+02  0.43400732793E+02  0.00000000000E+00 0. -1.
         11    1    3    3    0    0  0.72935849406E+01 -0.11606573980E+02  0.25555932842E+02  0.29000252491E+02  0.51100000000E-03 0. -1.
        -11    1    3    3    0    0 -0.45202240129E+01 -0.13868641543E+02  0.61482367268E+01  0.15829480676E+02  0.51100000000E-03 0.  1.
         12    1    3    3    0    0 -0.12023985823E+01 -0.16350736695E+01  0.21512274036E+01  0.29575340399E+01  0.00000000000E+00 0. -1.
</event>
<event>
 7    1  0.2751796E-010  0.4778726E+02  0.7816164E-02  0.1312668E+00
        -11   -1    0    0    0    0  0.00000000000E+00  0.00000000000E+00  0.45593999997E+02  0.45594000000E+02  0.51100000000E-03 0.  1.
         11   -1    0    0    0    0 -0.00000000000E+00 -0.00000000000E+00 -0.45593999997E+02  0.45594000000E+02  0.51100000000E-03 0. -1.
    9900012    2    1    2    0    0 -0.39107348298E+02 -0.15597811262E+02 -0.10533181088E+02  0.47787259098E+02  0.19999945529E+02 0.  0.
         12    1    1    2    0    0  0.39107348298E+02  0.15597811262E+02  0.10533181088E+02  0.43400740902E+02  0.00000000000E+00 0. -1.
         11    1    3    3    0    0 -0.74966159841E+00 -0.64216904420E+00  0.25272135689E+01  0.27131498811E+01  0.51100000000E-03 0. -1.
        -11    1    3    3    0    0 -0.25186719404E+02 -0.58104421038E+01 -0.13232762730E+02  0.29038561974E+02  0.51100000000E-03 0.  1.
        -12    1    3    3    0    0 -0.13170967295E+02 -0.91452001138E+01  0.17236807293E+00  0.16035547243E+02  0.00000000000E+00 0.  1.
</event>
<event>
 7    1  0.2751796E-010  0.4778725E+02  0.7816164E-02  0.1312668E+00
        -11   -1    0    0    0    0  0.00000000000E+00  0.00000000000E+00  0.45593999997E+02  0.45594000000E+02  0.51100000000E-03 0.  1.
         11   -1    0    0    0    0 -0.00000000000E+00 -0.00000000000E+00 -0.45593999997E+02  0.45594000000E+02  0.51100000000E-03 0. -1.
    9900012    2    1    2    0    0 -0.43392167096E+02  0.61559918120E+00 -0.60499825722E+00  0.47787249424E+02  0.19999901424E+02 0.  0.
         12    1    1    2    0    0  0.43392167096E+02 -0.61559918120E+00  0.60499825722E+00  0.43400750576E+02  0.00000000000E+00 0. -1.
         11    1    3    3    0    0 -0.18821181280E+02  0.82756508118E+01  0.79278932557E+00  0.20575513999E+02  0.51100000000E-03 0. -1.
        -11    1    3    3    0    0 -0.18721033320E+02 -0.38370395002E+01 -0.43928439301E+01  0.19608596043E+02  0.51100000000E-03 0.  1.
        -12    1    3    3    0    0 -0.58499524954E+01 -0.38230121304E+01  0.29950563473E+01  0.76031393826E+01  0.00000000000E+00 0.  1.
</event>
<event>
 7    1  0.2751796E-010  0.4778727E+02  0.7816164E-02  0.1312668E+00
        -11   -1    0    0    0    0  0.00000000000E+00  0.00000000000E+00  0.45593999997E+02  0.45594000000E+02  0.51100000000E-03 0.  1.
         11   -1    0    0    0    0 -0.00000000000E+00 -0.00000000000E+00 -0.45593999997E+02  0.45594000000E+02  0.51100000000E-03 0. -1.
    9900012    2    1    2    0    0  0.36876828422E+01  0.36262570970E+02  0.23559507048E+02  0.47787269241E+02  0.19999991776E+02 0.  0.
         12    1    1    2    0    0 -0.36876828422E+01 -0.36262570970E+02 -0.23559507048E+02  0.43400730759E+02  0.00000000000E+00 0. -1.
         11    1    3    3    0    0  0.17669909447E+01  0.20873072381E+01 -0.13954809556E+01  0.30702566445E+01  0.51100000000E-03 0. -1.
        -11    1    3    3    0    0  0.60125550046E+01  0.22780065635E+02  0.22042996971E+02  0.32264158501E+02  0.51100000000E-03 0.  1.
        -12    1    3    3    0    0 -0.40918631071E+01  0.11395198097E+02  0.29119910327E+01  0.12452854096E+02  0.00000000000E+00 0.  1.
</event>
<event>
 7    1  0.2751796E-010  0.4778729E+02  0.7816164E-02  0.1312668E+00
        -11   -1    0    0    0    0  0.00000000000E+00  0.00000000000E+00  0.45593999997E+02  0.45594000000E+02  0.51100000000E-03 0.  1.
         11   -1    0    0    0    0 -0.00000000000E+00 -0.00000000000E+00 -0.45593999997E+02  0.45594000000E+02  0.51100000000E-03 0. -1.
    9900012    2    1    2    0    0 -0.24596082591E+02  0.15283111407E+02  0.32327715127E+02  0.47787286430E+02  0.20000070147E+02 0.  0.
         12    1    1    2    0    0  0.24596082591E+02 -0.15283111407E+02 -0.32327715127E+02  0.43400713570E+02  0.00000000000E+00 0. -1.
         11    1    3    3    0    0 -0.23529150801E+02  0.78588443455E+01  0.24839796581E+02  0.35105524726E+02  0.51100000000E-03 0. -1.
        -11    1    3    3    0    0  0.18011035023E+01  0.68199834140E+01  0.64909129786E+01  0.95858280367E+01  0.51100000000E-03 0.  1.
         12    1    3    3    0    0 -0.28680352928E+01  0.60428364709E+00  0.99700556702E+00  0.30959336665E+01  0.00000000000E+00 0. -1.
</event>
<event>
 7    1  0.2751796E-010  0.4778726E+02  0.7816164E-02  0.1312668E+00
        -11   -1    0    0    0    0  0.00000000000E+00  0.00000000000E+00  0.45593999997E+02  0.45594000000E+02  0.51100000000E-03 0.  1.
         11   -1    0    0    0    0 -0.00000000000E+00 -0.00000000000E+00 -0.45593999997E+02  0.45594000000E+02  0.51100000000E-03 0. -1.
    9900012    2    1    2    0    0  0.60885043119E+01 -0.25502183435E+02  0.34586026736E+02  0.47787257033E+02  0.19999936118E+02 0.  0.
         12    1    1    2    0    0 -0.60885043119E+01  0.25502183435E+02 -0.34586026736E+02  0.43400742967E+02  0.00000000000E+00 0. -1.
         11    1    3    3    0    0  0.64495539700E+01 -0.11251731857E+02  0.77273311670E+01  0.15096683855E+02  0.51100000000E-03 0. -1.
        -11    1    3    3    0    0  0.89564914266E+00 -0.49050354247E+01  0.21012066857E+02  0.21595566994E+02  0.51100000000E-03 0.  1.
        -12    1    3    3    0    0 -0.12566988008E+01 -0.93454161531E+01  0.58466287115E+01  0.11095006185E+02  0.00000000000E+00 0.  1.
</event>
<event>
 7    1  0.2751796E-010  0.4778726E+02  0.7816164E-02  0.1312668E+00
        -11   -1    0    0    0    0  0.00000000000E+00  0.00000000000E+00  0.45593999997E+02  0.45594000000E+02  0.51100000000E-03 0.  1.
         11   -1    0    0    0    0 -0.00000000000E+00 -0.00000000000E+00 -0.45593999997E+02  0.45594000000E+02  0.51100000000E-03 0. -1.
    9900012    2    1    2    0    0  0.27391748027E+02  0.12297393395E+02  0.31338319948E+02  0.47787262201E+02  0.19999959681E+02 0.  0.
         12    1    1    2    0    0 -0.27391748027E+02 -0.12297393395E+02 -0.31338319948E+02  0.43400737799E+02  0.00000000000E+00 0. -1.
         11    1    3    3    0    0 -0.33689575010E+00 -0.17171164883E+00 -0.39824747892E+00  0.54916750847E+00  0.51100000000E-03 0. -1.
        -11    1    3    3    0    0  0.10395812748E+02 -0.36141715993E+01  0.13243367943E+02  0.17219812827E+02  0.51100000000E-03 0.  1.
        -12    1    3    3    0    0  0.17332831029E+02  0.16083276643E+02  0.18493199484E+02  0.30018281866E+02  0.00000000000E+00 0.  1.
</event>
<event>
 7    1  0.2751796E-010  0.4778727E+02  0.7816164E-02  0.1312668E+00
        -11   -1    0    0    0    0  0.00000000000E+00  0.00000000000E+00  0.45593999997E+02  0.45594000000E+02  0.51100000000E-03 0.  1.
         11   -1    0    0    0    0 -0.00000000000E+00 -0.00000000000E+00 -0.45593999997E+02  0.45594000000E+02  0.51100000000E-03 0. -1.
    9900012    2    1    2    0    0 -0.21348079850E+02  0.34108804587E+02  0.16262608062E+02  0.47787268617E+02  0.19999988932E+02 0.  0.
         12    1    1    2    0    0  0.21348079850E+02 -0.34108804587E+02 -0.16262608062E+02  0.43400731383E+02  0.00000000000E+00 0. -1.
         11    1    3    3    0    0 -0.83752574464E+01  0.20809124584E+02  0.13525154912E+02  0.26193404111E+02  0.51100000000E-03 0. -1.
        -11    1    3    3    0    0 -0.79249051631E+01  0.11034785425E+02  0.63394016372E+01  0.14991951994E+02  0.51100000000E-03 0.  1.
         12    1    3    3    0    0 -0.50479172400E+01  0.22648945772E+01 -0.36019484871E+01  0.66019125117E+01  0.00000000000E+00 0. -1.
</event>
<event>
 7    1  0.2751796E-010  0.4778727E+02  0.7816164E-02  0.1312668E+00
        -11   -1    0    0    0    0  0.00000000000E+00  0.00000000000E+00  0.45593999997E+02  0.45594000000E+02  0.51100000000E-03 0. -1.
         11   -1    0    0    0    0 -0.00000000000E+00 -0.00000000000E+00 -0.45593999997E+02  0.45594000000E+02  0.51100000000E-03 0.  1.
    9900012    2    1    2    0    0 -0.34039837043E+02  0.26894179899E+02 -0.12712079799E+01  0.47787269728E+02  0.19999994000E+02 0.  0.
         12    1    1    2    0    0  0.34039837043E+02 -0.26894179899E+02  0.12712079799E+01  0.43400730272E+02  0.00000000000E+00 0. -1.
         11    1    3    3    0    0  0.75454083001E+00  0.10131207184E+01  0.28741633198E-01  0.12635552211E+01  0.51100000000E-03 0. -1.
        -11    1    3    3    0    0 -0.25020254384E+02  0.25980646330E+02  0.22122014920E+01  0.36137251540E+02  0.51100000000E-03 0.  1.
        -12    1    3    3    0    0 -0.97741234897E+01 -0.99587149344E-01 -0.35121511051E+01  0.10386462968E+02  0.00000000000E+00 0.  1.
</event>
<event>
 7    1  0.2751796E-010  0.4778727E+02  0.7816164E-02  0.1312668E+00
        -11   -1    0    0    0    0  0.00000000000E+00  0.00000000000E+00  0.45593999997E+02  0.45594000000E+02  0.51100000000E-03 0. -1.
         11   -1    0    0    0    0 -0.00000000000E+00 -0.00000000000E+00 -0.45593999997E+02  0.45594000000E+02  0.51100000000E-03 0.  1.
    9900012    2    1    2    0    0  0.38513528304E+02 -0.57634383937E+01  0.19160231551E+02  0.47787267775E+02  0.19999985094E+02 0.  0.
         12    1    1    2    0    0 -0.38513528304E+02  0.57634383937E+01 -0.19160231551E+02  0.43400732225E+02  0.00000000000E+00 0. -1.
         11    1    3    3    0    0 -0.52286766257E+00  0.44539876291E+00  0.45149607114E+01  0.45669071741E+01  0.51100000000E-03 0. -1.
        -11    1    3    3    0    0  0.35998454511E+02 -0.82774350587E+01  0.13922884257E+02  0.39474692711E+02  0.51100000000E-03 0.  1.
         12    1    3    3    0    0  0.30379414551E+01  0.20685979021E+01  0.72238658323E+00  0.37456678898E+01  0.00000000000E+00 0. -1.
</event>
<event>
 7    1  0.2751796E-010  0.4778726E+02  0.7816164E-02  0.1312668E+00
        -11   -1    0    0    0    0  0.00000000000E+00  0.00000000000E+00  0.45593999997E+02  0.45594000000E+02  0.51100000000E-03 0.  1.
         11   -1    0    0    0    0 -0.00000000000E+00 -0.00000000000E+00 -0.45593999997E+02  0.45594000000E+02  0.51100000000E-03 0. -1.
    9900012    2    1    2    0    0  0.35453625991E+02  0.89353456071E+01  0.23384268286E+02  0.47787262676E+02  0.19999961843E+02 0.  0.
         12    1    1    2    0    0 -0.35453625991E+02 -0.89353456071E+01 -0.23384268286E+02  0.43400737324E+02  0.00000000000E+00 0. -1.
         11    1    3    3    0    0  0.36224142373E+01 -0.47966992931E+01  0.53944774666E+01  0.80765460695E+01  0.51100000000E-03 0. -1.
        -11    1    3    3    0    0  0.16733256732E+02  0.10790319208E+02  0.11690337004E+02  0.23088890164E+02  0.51100000000E-03 0.  1.
        -12    1    3    3    0    0  0.15097955023E+02  0.29417256918E+01  0.62994538146E+01  0.16621826442E+02  0.00000000000E+00 0.  1.
</event>
<event>
 7    1  0.2751796E-010  0.4778722E+02  0.7816164E-02  0.1312668E+00
        -11   -1    0    0    0    0  0.00000000000E+00  0.00000000000E+00  0.45593999997E+02  0.45594000000E+02  0.51100000000E-03 0. -1.
         11   -1    0    0    0    0 -0.00000000000E+00 -0.00000000000E+00 -0.45593999997E+02  0.45594000000E+02  0.51100000000E-03 0.  1.
    9900012    2    1    2    0    0 -0.16549842990E+01 -0.42263590867E+02 -0.97302406427E+01  0.47787220411E+02  0.19999769139E+02 0.  0.
         12    1    1    2    0    0  0.16549842990E+01  0.42263590867E+02  0.97302406427E+01  0.43400779589E+02  0.00000000000E+00 0. -1.
         11    1    3    3    0    0  0.68244437134E+01 -0.74757156444E+01 -0.21520910941E+01  0.10348471034E+02  0.51100000000E-03 0. -1.
        -11    1    3    3    0    0 -0.85738378774E+00 -0.78070139249E+01  0.14449321027E+01  0.79857624824E+01  0.51100000000E-03 0.  1.
         12    1    3    3    0    0 -0.76220442246E+01 -0.26980861298E+02 -0.90230816513E+01  0.29452986895E+02  0.00000000000E+00 0. -1.
</event>
<event>
 7    1  0.2751796E-010  0.4778726E+02  0.7816164E-02  0.1312668E+00
        -11   -1    0    0    0    0  0.00000000000E+00  0.00000000000E+00  0.45593999997E+02  0.45594000000E+02  0.51100000000E-03 0.  1.
         11   -1    0    0    0    0 -0.00000000000E+00 -0.00000000000E+00 -0.45593999997E+02  0.45594000000E+02  0.51100000000E-03 0. -1.
    9900012    2    1    2    0    0 -0.33825147003E+02  0.83601813071E+01  0.25876449849E+02  0.47787264315E+02  0.19999969317E+02 0.  0.
         12    1    1    2    0    0  0.33825147003E+02 -0.83601813071E+01 -0.25876449849E+02  0.43400735685E+02  0.00000000000E+00 0. -1.
         11    1    3    3    0    0 -0.10834330020E+02  0.99667774732E+01  0.79483269520E+01  0.16730070585E+02  0.51100000000E-03 0. -1.
        -11    1    3    3    0    0 -0.20971273580E+02  0.98951795587E+00  0.18161319976E+02  0.27759809165E+02  0.51100000000E-03 0.  1.
        -12    1    3    3    0    0 -0.20195434031E+01 -0.25961141220E+01 -0.23319707921E+00  0.32973845650E+01  0.00000000000E+00 0.  1.
</event>
<event>
 7    1  0.2751796E-010  0.4778728E+02  0.7816164E-02  0.1312668E+00
        -11   -1    0    0    0    0  0.00000000000E+00  0.00000000000E+00  0.45593999997E+02  0.45594000000E+02  0.51100000000E-03 0.  1.
         11   -1    0    0    0    0 -0.00000000000E+00 -0.00000000000E+00 -0.45593999997E+02  0.45594000000E+02  0.51100000000E-03 0. -1.
    9900012    2    1    2    0    0 -0.39431973453E+02 -0.10151023673E+02  0.15023280856E+02  0.47787276738E+02  0.20000025960E+02 0.  0.
         12    1    1    2    0    0  0.39431973453E+02  0.10151023673E+02 -0.15023280856E+02  0.43400723262E+02  0.00000000000E+00 0. -1.
         11    1    3    3    0    0 -0.74227049624E+01 -0.70612852074E+01 -0.17700279598E+01  0.10396696445E+02  0.51100000000E-03 0. -1.
        -11    1    3    3    0    0 -0.27940212523E+02 -0.56004092272E+01  0.13173730345E+02  0.31393745090E+02  0.51100000000E-03 0.  1.
         12    1    3    3    0    0 -0.40690559674E+01  0.25106707620E+01  0.36195784704E+01  0.59968352024E+01  0.00000000000E+00 0. -1.
</event>
<event>
 7    1  0.2751796E-010  0.4778727E+02  0.7816164E-02  0.1312668E+00
        -11   -1    0    0    0    0  0.00000000000E+00  0.00000000000E+00  0.45593999997E+02  0.45594000000E+02  0.51100000000E-03 0.  1.
         11   -1    0    0    0    0 -0.00000000000E+00 -0.00000000000E+00 -0.45593999997E+02  0.45594000000E+02  0.51100000000E-03 0. -1.
    9900012    2    1    2    0    0 -0.21243459021E+02  0.60942309130E+01  0.37352361914E+02  0.47787272562E+02  0.20000006919E+02 0.  0.
         12    1    1    2    0    0  0.21243459021E+02 -0.60942309130E+01 -0.37352361914E+02  0.43400727438E+02  0.00000000000E+00 0. -1.
         11    1    3    3    0    0  0.12331167605E+01  0.16991287220E+00  0.74966043702E+00  0.14530789246E+01  0.51100000000E-03 0. -1.
        -11    1    3    3    0    0 -0.52582660309E+01 -0.54309152208E+01  0.12532439548E+02  0.14635786383E+02  0.51100000000E-03 0.  1.
        -12    1    3    3    0    0 -0.17218309751E+02  0.11355233262E+02  0.24070261929E+02  0.31698407254E+02  0.00000000000E+00 0.  1.
</event>
<event>
 7    1  0.2751796E-010  0.4778727E+02  0.7816164E-02  0.1312668E+00
        -11   -1    0    0    0    0  0.00000000000E+00  0.00000000000E+00  0.45593999997E+02  0.45594000000E+02  0.51100000000E-03 0.  1.
         11   -1    0    0    0    0 -0.00000000000E+00 -0.00000000000E+00 -0.45593999997E+02  0.45594000000E+02  0.51100000000E-03 0. -1.
    9900012    2    1    2    0    0  0.20035185970E+02  0.36570466660E+02  0.12033945185E+02  0.47787267917E+02  0.19999985743E+02 0.  0.
         12    1    1    2    0    0 -0.20035185970E+02 -0.36570466660E+02 -0.12033945185E+02  0.43400732083E+02  0.00000000000E+00 0. -1.
         11    1    3    3    0    0  0.17253192648E+02  0.22126474965E+02  0.87882782824E+00  0.28071798830E+02  0.51100000000E-03 0. -1.
        -11    1    3    3    0    0  0.33761406661E+01  0.12547855632E+02  0.11874139495E+02  0.17602334952E+02  0.51100000000E-03 0.  1.
         12    1    3    3    0    0 -0.59414734434E+00  0.18961360637E+01 -0.71902213885E+00  0.21131341356E+01  0.00000000000E+00 0. -1.
</event>
<event>
 7    1  0.2751796E-010  0.4778727E+02  0.7816164E-02  0.1312668E+00
        -11   -1    0    0    0    0  0.00000000000E+00  0.00000000000E+00  0.45593999997E+02  0.45594000000E+02  0.51100000000E-03 0.  1.
         11   -1    0    0    0    0 -0.00000000000E+00 -0.00000000000E+00 -0.45593999997E+02  0.45594000000E+02  0.51100000000E-03 0. -1.
    9900012    2    1    2    0    0 -0.11122348117E+02 -0.47482528276E+01  0.41681782175E+02  0.47787268465E+02  0.19999988238E+02 0.  0.
         12    1    1    2    0    0  0.11122348117E+02  0.47482528276E+01 -0.41681782175E+02  0.43400731535E+02  0.00000000000E+00 0. -1.
         11    1    3    3    0    0  0.51157022263E+01 -0.66850928469E+00  0.39460712723E+01  0.64952900381E+01  0.51100000000E-03 0. -1.
        -11    1    3    3    0    0 -0.89437538627E+01 -0.23522868691E+01  0.19824977954E+02  0.21875871133E+02  0.51100000000E-03 0.  1.
         12    1    3    3    0    0 -0.72942964803E+01 -0.17274566738E+01  0.17910732948E+02  0.19416107294E+02  0.00000000000E+00 0. -1.
</event>
<event>
 7    1  0.2751796E-010  0.4778727E+02  0.7816164E-02  0.1312668E+00
        -11   -1    0    0    0    0  0.00000000000E+00  0.00000000000E+00  0.45593999997E+02  0.45594000000E+02  0.51100000000E-03 0.  1.
         11   -1    0    0    0    0 -0.00000000000E+00 -0.00000000000E+00 -0.45593999997E+02  0.45594000000E+02  0.51100000000E-03 0. -1.
    9900012    2    1    2    0    0 -0.39830700469E+02  0.12208165290E+02  0.12169612641E+02  0.47787268769E+02  0.19999989625E+02 0.  0.
         12    1    1    2    0    0  0.39830700469E+02 -0.12208165290E+02 -0.12169612641E+02  0.43400731231E+02  0.00000000000E+00 0. -1.
         11    1    3    3    0    0 -0.74029859984E+01  0.59325389406E+01 -0.36415263077E+01  0.10161689529E+02  0.51100000000E-03 0. -1.
        -11    1    3    3    0    0 -0.17101701218E+02  0.67011059096E+01  0.55919871059E+01  0.19200086589E+02  0.51100000000E-03 0.  1.
         12    1    3    3    0    0 -0.15326013252E+02 -0.42547956045E+00  0.10219151842E+02  0.18425492651E+02  0.00000000000E+00 0. -1.
</event>
<event>
 7    1  0.2751796E-010  0.4778727E+02  0.7816164E-02  0.1312668E+00
        -11   -1    0    0    0    0  0.00000000000E+00  0.00000000000E+00  0.45593999997E+02  0.45594000000E+02  0.51100000000E-03 0.  1.
         11   -1    0    0    0    0 -0.00000000000E+00 -0.00000000000E+00 -0.45593999997E+02  0.45594000000E+02  0.51100000000E-03 0. -1.
    9900012    2    1    2    0    0  0.42676732345E+02  0.10981215912E+01 -0.78175299481E+01  0.47787272712E+02  0.20000007603E+02 0.  0.
         12    1    1    2    0    0 -0.42676732345E+02 -0.10981215912E+01  0.78175299481E+01  0.43400727288E+02  0.00000000000E+00 0. -1.
         11    1    3    3    0    0  0.15658359534E+01  0.27342009540E+00  0.29518361336E+01  0.33526016170E+01  0.51100000000E-03 0. -1.
        -11    1    3    3    0    0  0.36787453304E+02 -0.34012135742E+01 -0.10387682615E+02  0.38376932195E+02  0.51100000000E-03 0.  1.
        -12    1    3    3    0    0  0.43234430873E+01  0.42259150700E+01 -0.38168346649E+00  0.60577388997E+01  0.00000000000E+00 0.  1.
</event>
<event>
 7    1  0.2751796E-010  0.4778727E+02  0.7816164E-02  0.1312668E+00
        -11   -1    0    0    0    0  0.00000000000E+00  0.00000000000E+00  0.45593999997E+02  0.45594000000E+02  0.51100000000E-03 0.  1.
         11   -1    0    0    0    0 -0.00000000000E+00 -0.00000000000E+00 -0.45593999997E+02  0.45594000000E+02  0.51100000000E-03 0. -1.
    9900012    2    1    2    0    0 -0.40753051087E+02 -0.75627196600E+01  0.12869239123E+02  0.47787271698E+02  0.20000002980E+02 0.  0.
         12    1    1    2    0    0  0.40753051087E+02  0.75627196600E+01 -0.12869239123E+02  0.43400728302E+02  0.00000000000E+00 0. -1.
         11    1    3    3    0    0 -0.19452007540E+02 -0.43328021019E+00 -0.64676760511E+00  0.19467579142E+02  0.51100000000E-03 0. -1.
        -11    1    3    3    0    0 -0.21536007745E+02 -0.87359982240E+01  0.12327231884E+02  0.26307374265E+02  0.51100000000E-03 0.  1.
         12    1    3    3    0    0  0.23496419831E+00  0.16065587742E+01  0.11887748446E+01  0.20123182901E+01  0.00000000000E+00 0. -1.
</event>
<event>
 7    1  0.2751796E-010  0.4778727E+02  0.7816164E-02  0.1312668E+00
        -11   -1    0    0    0    0  0.00000000000E+00  0.00000000000E+00  0.45593999997E+02  0.45594000000E+02  0.51100000000E-03 0.  1.
         11   -1    0    0    0    0 -0.00000000000E+00 -0.00000000000E+00 -0.45593999997E+02  0.45594000000E+02  0.51100000000E-03 0. -1.
    9900012    2    1    2    0    0  0.21825315602E+02 -0.93791660327E+01  0.36322314574E+02  0.47787266221E+02  0.19999978007E+02 0.  0.
         12    1    1    2    0    0 -0.21825315602E+02  0.93791660327E+01 -0.36322314574E+02  0.43400733779E+02  0.00000000000E+00 0. -1.
         11    1    3    3    0    0  0.13843990634E+02  0.20296078493E+00  0.25419801156E+02  0.28945872950E+02  0.51100000000E-03 0.  1.
        -11    1    3    3    0    0  0.96680460101E+01 -0.87318098214E+01  0.77274271433E+01  0.15146905523E+02  0.51100000000E-03 0. -1.
        -12    1    3    3    0    0 -0.16867210423E+01 -0.85031699623E+00  0.31750862745E+01  0.36944877479E+01  0.00000000000E+00 0.  1.
</event>
<event>
 7    1  0.2751796E-010  0.4778727E+02  0.7816164E-02  0.1312668E+00
        -11   -1    0    0    0    0  0.00000000000E+00  0.00000000000E+00  0.45593999997E+02  0.45594000000E+02  0.51100000000E-03 0. -1.
         11   -1    0    0    0    0 -0.00000000000E+00 -0.00000000000E+00 -0.45593999997E+02  0.45594000000E+02  0.51100000000E-03 0.  1.
    9900012    2    1    2    0    0  0.11828304912E+02  0.43919057514E+01 -0.41526203506E+02  0.47787271771E+02  0.20000003312E+02 0.  0.
         12    1    1    2    0    0 -0.11828304912E+02 -0.43919057514E+01  0.41526203506E+02  0.43400728229E+02  0.00000000000E+00 0. -1.
         11    1    3    3    0    0  0.60551216885E+01 -0.27439083101E+01 -0.37225241924E+01  0.76191021847E+01  0.51100000000E-03 0. -1.
        -11    1    3    3    0    0  0.77817338798E+01  0.77906943635E+01 -0.26985238120E+02  0.29145383468E+02  0.51100000000E-03 0.  1.
         12    1    3    3    0    0 -0.20085506566E+01 -0.65488030197E+00 -0.10818441194E+02  0.11022786119E+02  0.00000000000E+00 0. -1.
</event>
<event>
 7    1  0.2751796E-010  0.4778727E+02  0.7816164E-02  0.1312668E+00
        -11   -1    0    0    0    0  0.00000000000E+00  0.00000000000E+00  0.45593999997E+02  0.45594000000E+02  0.51100000000E-03 0.  1.
         11   -1    0    0    0    0 -0.00000000000E+00 -0.00000000000E+00 -0.45593999997E+02  0.45594000000E+02  0.51100000000E-03 0. -1.
    9900012    2    1    2    0    0 -0.61709380171E+01 -0.75570038599E+01  0.42289883731E+02  0.47787273631E+02  0.20000011795E+02 0.  0.
         12    1    1    2    0    0  0.61709380171E+01  0.75570038599E+01 -0.42289883731E+02  0.43400726369E+02  0.00000000000E+00 0. -1.
         11    1    3    3    0    0  0.13733484534E+01 -0.12203435666E+02  0.30199107276E+02  0.32600552274E+02  0.51100000000E-03 0.  1.
        -11    1    3    3    0    0 -0.71497712999E+01  0.35754142511E+01  0.11076142260E+02  0.13659566038E+02  0.51100000000E-03 0. -1.
        -12    1    3    3    0    0 -0.39451517060E+00  0.10710175550E+01  0.10146341950E+01  0.15271553204E+01  0.00000000000E+00 0.  1.
</event>
<event>
 7    1  0.2751796E-010  0.4778727E+02  0.7816164E-02  0.1312668E+00
        -11   -1    0    0    0    0  0.00000000000E+00  0.00000000000E+00  0.45593999997E+02  0.45594000000E+02  0.51100000000E-03 0. -1.
         11   -1    0    0    0    0 -0.00000000000E+00 -0.00000000000E+00 -0.45593999997E+02  0.45594000000E+02  0.51100000000E-03 0.  1.
    9900012    2    1    2    0    0  0.21157463223E+02  0.74363315264E+01 -0.37157584363E+02  0.47787270141E+02  0.19999995881E+02 0.  0.
         12    1    1    2    0    0 -0.21157463223E+02 -0.74363315264E+01  0.37157584363E+02  0.43400729859E+02  0.00000000000E+00 0. -1.
         11    1    3    3    0    0  0.10777826587E+02  0.56988464186E+01 -0.54142470747E+01  0.13339882612E+02  0.51100000000E-03 0. -1.
        -11    1    3    3    0    0  0.68872646031E+01  0.17903356683E+01 -0.91792666833E+01  0.11614587923E+02  0.51100000000E-03 0.  1.
         12    1    3    3    0    0  0.34923720329E+01 -0.52850560559E-01 -0.22564070605E+02  0.22832799606E+02  0.00000000000E+00 0. -1.
</event>
<event>
 7    1  0.2751796E-010  0.4778727E+02  0.7816164E-02  0.1312668E+00
        -11   -1    0    0    0    0  0.00000000000E+00  0.00000000000E+00  0.45593999997E+02  0.45594000000E+02  0.51100000000E-03 0.  1.
         11   -1    0    0    0    0 -0.00000000000E+00 -0.00000000000E+00 -0.45593999997E+02  0.45594000000E+02  0.51100000000E-03 0. -1.
    9900012    2    1    2    0    0  0.12461200903E+02 -0.39021224490E+02  0.14341744256E+02  0.47787272852E+02  0.20000008241E+02 0.  0.
         12    1    1    2    0    0 -0.12461200903E+02  0.39021224490E+02 -0.14341744256E+02  0.43400727148E+02  0.00000000000E+00 0. -1.
         11    1    3    3    0    0  0.49835863592E+01 -0.20944463829E+01 -0.25403831977E+01  0.59729712625E+01  0.51100000000E-03 0. -1.
        -11    1    3    3    0    0  0.86091262048E+01 -0.29113245195E+02  0.13462598317E+02  0.33210535279E+02  0.51100000000E-03 0.  1.
         12    1    3    3    0    0 -0.11315116609E+01 -0.78135329119E+01  0.34195291371E+01  0.86037663104E+01  0.00000000000E+00 0. -1.
</event>
<event>
 7    1  0.2751796E-010  0.4778727E+02  0.7816164E-02  0.1312668E+00
        -11   -1    0    0    0    0  0.00000000000E+00  0.00000000000E+00  0.45593999997E+02  0.45594000000E+02  0.51100000000E-03 0.  1.
         11   -1    0    0    0    0 -0.00000000000E+00 -0.00000000000E+00 -0.45593999997E+02  0.45594000000E+02  0.51100000000E-03 0. -1.
    9900012    2    1    2    0    0  0.26339868695E+02  0.32598059900E+02  0.11278345734E+02  0.47787271036E+02  0.19999999962E+02 0.  0.
         12    1    1    2    0    0 -0.26339868695E+02 -0.32598059900E+02 -0.11278345734E+02  0.43400728964E+02  0.00000000000E+00 0. -1.
         11    1    3    3    0    0  0.62315957541E+01  0.77577298643E+01  0.94049299876E+01  0.13691890542E+02  0.51100000000E-03 0. -1.
        -11    1    3    3    0    0  0.20917532798E+02  0.24847844945E+02  0.30979998067E+01  0.32627537140E+02  0.51100000000E-03 0.  1.
         12    1    3    3    0    0 -0.80925985661E+00 -0.75149098317E-02 -0.12245840607E+01  0.14678433537E+01  0.00000000000E+00 0. -1.
</event>
<event>
 7    1  0.2751796E-010  0.4778727E+02  0.7816164E-02  0.1312668E+00
        -11   -1    0    0    0    0  0.00000000000E+00  0.00000000000E+00  0.45593999997E+02  0.45594000000E+02  0.51100000000E-03 0. -1.
         11   -1    0    0    0    0 -0.00000000000E+00 -0.00000000000E+00 -0.45593999997E+02  0.45594000000E+02  0.51100000000E-03 0.  1.
    9900012    2    1    2    0    0  0.36259583682E+02  0.77718389598E+01 -0.22549154776E+02  0.47787271081E+02  0.20000000166E+02 0.  0.
         12    1    1    2    0    0 -0.36259583682E+02 -0.77718389598E+01  0.22549154776E+02  0.43400728919E+02  0.00000000000E+00 0. -1.
         11    1    3    3    0    0 -0.42931110706E+00 -0.43364328540E+00 -0.43267797932E+01  0.43695970256E+01  0.51100000000E-03 0. -1.
        -11    1    3    3    0    0  0.28269060040E+02  0.37060713063E+01 -0.84053063123E+01  0.29724129836E+02  0.51100000000E-03 0.  1.
        -12    1    3    3    0    0  0.84198347490E+01  0.44994109390E+01 -0.98170686703E+01  0.13693544219E+02  0.00000000000E+00 0.  1.
</event>
<event>
 7    1  0.2751796E-010  0.4778727E+02  0.7816164E-02  0.1312668E+00
        -11   -1    0    0    0    0  0.00000000000E+00  0.00000000000E+00  0.45593999997E+02  0.45594000000E+02  0.51100000000E-03 0.  1.
         11   -1    0    0    0    0 -0.00000000000E+00 -0.00000000000E+00 -0.45593999997E+02  0.45594000000E+02  0.51100000000E-03 0. -1.
    9900012    2    1    2    0    0 -0.34735421317E+02  0.15100879222E+02  0.21190497472E+02  0.47787271544E+02  0.20000002280E+02 0.  0.
         12    1    1    2    0    0  0.34735421317E+02 -0.15100879222E+02 -0.21190497472E+02  0.43400728456E+02  0.00000000000E+00 0. -1.
         11    1    3    3    0    0 -0.49236128804E+01  0.43226221779E+01 -0.28311291847E+01  0.71373888090E+01  0.51100000000E-03 0. -1.
        -11    1    3    3    0    0 -0.20869071204E+02  0.35013703054E+01  0.17064588354E+02  0.27184148007E+02  0.51100000000E-03 0.  1.
         12    1    3    3    0    0 -0.89427372333E+01  0.72768867383E+01  0.69570383026E+01  0.13465734728E+02  0.00000000000E+00 0. -1.
</event>
<event>
 7    1  0.2751796E-010  0.4778727E+02  0.7816164E-02  0.1312668E+00
        -11   -1    0    0    0    0  0.00000000000E+00  0.00000000000E+00  0.45593999997E+02  0.45594000000E+02  0.51100000000E-03 0.  1.
         11   -1    0    0    0    0 -0.00000000000E+00 -0.00000000000E+00 -0.45593999997E+02  0.45594000000E+02  0.51100000000E-03 0. -1.
    9900012    2    1    2    0    0  0.34117281267E+01  0.18179342226E+02  0.39261879326E+02  0.47787267970E+02  0.19999985982E+02 0.  0.
         12    1    1    2    0    0 -0.34117281267E+01 -0.18179342226E+02 -0.39261879326E+02  0.43400732030E+02  0.00000000000E+00 0. -1.
         11    1    3    3    0    0 -0.62943346771E+01  0.54672454888E+01  0.17696379820E+02  0.19561985617E+02  0.51100000000E-03 0. -1.
        -11    1    3    3    0    0  0.87250955271E+01  0.72087734611E+01  0.89577027488E+01  0.14433784866E+02  0.51100000000E-03 0.  1.
        -12    1    3    3    0    0  0.98096727671E+00  0.55033232756E+01  0.12607796756E+02  0.13791497487E+02  0.00000000000E+00 0.  1.
</event>
<event>
 7    1  0.2751796E-010  0.4778727E+02  0.7816164E-02  0.1312668E+00
        -11   -1    0    0    0    0  0.00000000000E+00  0.00000000000E+00  0.45593999997E+02  0.45594000000E+02  0.51100000000E-03 0.  1.
         11   -1    0    0    0    0 -0.00000000000E+00 -0.00000000000E+00 -0.45593999997E+02  0.45594000000E+02  0.51100000000E-03 0. -1.
    9900012    2    1    2    0    0  0.26363416866E+02  0.34450853219E+02  0.13162000770E+01  0.47787269372E+02  0.19999992375E+02 0.  0.
         12    1    1    2    0    0 -0.26363416866E+02 -0.34450853219E+02 -0.13162000770E+01  0.43400730628E+02  0.00000000000E+00 0. -1.
         11    1    3    3    0    0  0.88134177610E+01  0.19252866408E+02  0.65685330903E+01  0.22169682559E+02  0.51100000000E-03 0. -1.
        -11    1    3    3    0    0  0.49239748006E+01 -0.27060934866E+00  0.14539760712E+00  0.49335482142E+01  0.51100000000E-03 0.  1.
         12    1    3    3    0    0  0.12626024305E+02  0.15468596160E+02 -0.53977306205E+01  0.20684038599E+02  0.00000000000E+00 0. -1.
</event>
<event>
 7    1  0.2751796E-010  0.4778727E+02  0.7816164E-02  0.1312668E+00
        -11   -1    0    0    0    0  0.00000000000E+00  0.00000000000E+00  0.45593999997E+02  0.45594000000E+02  0.51100000000E-03 0. -1.
         11   -1    0    0    0    0 -0.00000000000E+00 -0.00000000000E+00 -0.45593999997E+02  0.45594000000E+02  0.51100000000E-03 0.  1.
    9900012    2    1    2    0    0 -0.29884541531E+02  0.46141641656E+01 -0.31132732846E+02  0.47787269731E+02  0.19999994010E+02 0.  0.
         12    1    1    2    0    0  0.29884541531E+02 -0.46141641656E+01  0.31132732846E+02  0.43400730269E+02  0.00000000000E+00 0. -1.
         11    1    3    3    0    0 -0.23796725122E+02 -0.16902160138E+01 -0.23485047480E+02  0.33476684604E+02  0.51100000000E-03 0. -1.
        -11    1    3    3    0    0  0.85035997274E+00  0.34561126320E+01 -0.54245824580E+01  0.64879828693E+01  0.51100000000E-03 0.  1.
         12    1    3    3    0    0 -0.69381763825E+01  0.28482675475E+01 -0.22231029076E+01  0.78226022572E+01  0.00000000000E+00 0. -1.
</event>
<event>
 7    1  0.2751796E-010  0.4778727E+02  0.7816164E-02  0.1312668E+00
        -11   -1    0    0    0    0  0.00000000000E+00  0.00000000000E+00  0.45593999997E+02  0.45594000000E+02  0.51100000000E-03 0.  1.
         11   -1    0    0    0    0 -0.00000000000E+00 -0.00000000000E+00 -0.45593999997E+02  0.45594000000E+02  0.51100000000E-03 0. -1.
    9900012    2    1    2    0    0 -0.10127802989E+02 -0.40286475661E+02 -0.12571827867E+02  0.47787269931E+02  0.19999994925E+02 0.  0.
         12    1    1    2    0    0  0.10127802989E+02  0.40286475661E+02  0.12571827867E+02  0.43400730069E+02  0.00000000000E+00 0. -1.
         11    1    3    3    0    0 -0.65347433778E+01 -0.17426803740E+02 -0.96083465041E+01  0.20945564744E+02  0.51100000000E-03 0. -1.
        -11    1    3    3    0    0 -0.20137877116E+01 -0.32262290044E+01  0.43978582856E+01  0.58142112361E+01  0.51100000000E-03 0.  1.
         12    1    3    3    0    0 -0.15792718996E+01 -0.19633442916E+02 -0.73613396487E+01  0.21027493952E+02  0.00000000000E+00 0. -1.
</event>
<event>
 7    1  0.2751796E-010  0.4778727E+02  0.7816164E-02  0.1312668E+00
        -11   -1    0    0    0    0  0.00000000000E+00  0.00000000000E+00  0.45593999997E+02  0.45594000000E+02  0.51100000000E-03 0.  1.
         11   -1    0    0    0    0 -0.00000000000E+00 -0.00000000000E+00 -0.45593999997E+02  0.45594000000E+02  0.51100000000E-03 0. -1.
    9900012    2    1    2    0    0  0.38430579949E+02  0.14635627569E+02  0.13874891769E+02  0.47787266237E+02  0.19999978081E+02 0.  0.
         12    1    1    2    0    0 -0.38430579949E+02 -0.14635627569E+02 -0.13874891769E+02  0.43400733763E+02  0.00000000000E+00 0. -1.
         11    1    3    3    0    0  0.12442296758E+01 -0.19076534093E+01  0.22129285736E+01  0.31755790258E+01  0.51100000000E-03 0. -1.
        -11    1    3    3    0    0  0.25594510037E+02  0.89408172983E+01  0.10111688315E+01  0.27130050141E+02  0.51100000000E-03 0.  1.
        -12    1    3    3    0    0  0.11591840236E+02  0.76024636798E+01  0.10650794364E+02  0.17481637070E+02  0.00000000000E+00 0.  1.
</event>
<event>
 7    1  0.2751796E-010  0.4778727E+02  0.7816164E-02  0.1312668E+00
        -11   -1    0    0    0    0  0.00000000000E+00  0.00000000000E+00  0.45593999997E+02  0.45594000000E+02  0.51100000000E-03 0.  1.
         11   -1    0    0    0    0 -0.00000000000E+00 -0.00000000000E+00 -0.45593999997E+02  0.45594000000E+02  0.51100000000E-03 0. -1.
    9900012    2    1    2    0    0 -0.16684099054E+02  0.21286393288E+02  0.33943386379E+02  0.47787272134E+02  0.20000004966E+02 0.  0.
         12    1    1    2    0    0  0.16684099054E+02 -0.21286393288E+02 -0.33943386379E+02  0.43400727866E+02  0.00000000000E+00 0. -1.
         11    1    3    3    0    0 -0.14037911549E+02  0.79555916373E+01  0.19284419517E+02  0.25144447405E+02  0.51100000000E-03 0. -1.
        -11    1    3    3    0    0 -0.48825512209E+01  0.48105638921E+01  0.11297953364E+02  0.13214559465E+02  0.51100000000E-03 0.  1.
         12    1    3    3    0    0  0.22363637161E+01  0.85202377587E+01  0.33610134983E+01  0.94282652630E+01  0.00000000000E+00 0. -1.
</event>
<event>
 7    1  0.2751796E-010  0.4778727E+02  0.7816164E-02  0.1312668E+00
        -11   -1    0    0    0    0  0.00000000000E+00  0.00000000000E+00  0.45593999997E+02  0.45594000000E+02  0.51100000000E-03 0. -1.
         11   -1    0    0    0    0 -0.00000000000E+00 -0.00000000000E+00 -0.45593999997E+02  0.45594000000E+02  0.51100000000E-03 0.  1.
    9900012    2    1    2    0    0  0.28300957840E+02 -0.20662140253E+02 -0.25607709908E+02  0.47787273494E+02  0.20000011168E+02 0.  0.
         12    1    1    2    0    0 -0.28300957840E+02  0.20662140253E+02  0.25607709908E+02  0.43400726506E+02  0.00000000000E+00 0. -1.
         11    1    3    3    0    0  0.39896461558E+01  0.10822110520E+01  0.13987018749E+01  0.43640376265E+01  0.51100000000E-03 0. -1.
        -11    1    3    3    0    0  0.10517212759E+02 -0.10086045536E+02 -0.18243646714E+02  0.23348891289E+02  0.51100000000E-03 0.  1.
        -12    1    3    3    0    0  0.13794098926E+02 -0.11658305769E+02 -0.87627650692E+01  0.20074344578E+02  0.00000000000E+00 0.  1.
</event>
<event>
 7    1  0.2751796E-010  0.4778727E+02  0.7816164E-02  0.1312668E+00
        -11   -1    0    0    0    0  0.00000000000E+00  0.00000000000E+00  0.45593999997E+02  0.45594000000E+02  0.51100000000E-03 0.  1.
         11   -1    0    0    0    0 -0.00000000000E+00 -0.00000000000E+00 -0.45593999997E+02  0.45594000000E+02  0.51100000000E-03 0. -1.
    9900012    2    1    2    0    0 -0.23246124182E+02 -0.15826718583E+00  0.36649909907E+02  0.47787271502E+02  0.20000002085E+02 0.  0.
         12    1    1    2    0    0  0.23246124182E+02  0.15826718583E+00 -0.36649909907E+02  0.43400728498E+02  0.00000000000E+00 0. -1.
         11    1    3    3    0    0 -0.16283378817E+02  0.19040088766E+01  0.10343295318E+02  0.19384463722E+02  0.51100000000E-03 0. -1.
        -11    1    3    3    0    0 -0.70942532087E+01  0.11879244276E+01  0.20782873366E+02  0.21992440033E+02  0.51100000000E-03 0.  1.
         12    1    3    3    0    0  0.13150784344E+00 -0.32502004900E+01  0.55237412235E+01  0.64103677462E+01  0.00000000000E+00 0. -1.
</event>
<event>
 7    1  0.2751796E-010  0.4778727E+02  0.7816164E-02  0.1312668E+00
        -11   -1    0    0    0    0  0.00000000000E+00  0.00000000000E+00  0.45593999997E+02  0.45594000000E+02  0.51100000000E-03 0. -1.
         11   -1    0    0    0    0 -0.00000000000E+00 -0.00000000000E+00 -0.45593999997E+02  0.45594000000E+02  0.51100000000E-03 0.  1.
    9900012    2    1    2    0    0 -0.73800535057E+01  0.19801408898E+02 -0.37908607895E+02  0.47787268017E+02  0.19999986197E+02 0.  0.
         12    1    1    2    0    0  0.73800535057E+01 -0.19801408898E+02  0.37908607895E+02  0.43400731983E+02  0.00000000000E+00 0. -1.
         11    1    3    3    0    0 -0.25693718273E+01  0.39305394576E+01  0.13973728247E+01  0.48993329227E+01  0.51100000000E-03 0. -1.
        -11    1    3    3    0    0 -0.53450737545E+01  0.12321837747E+02 -0.28609694814E+02  0.31605571289E+02  0.51100000000E-03 0.  1.
         12    1    3    3    0    0  0.53439207599E+00  0.35490316936E+01 -0.10696285906E+02  0.11282363806E+02  0.00000000000E+00 0. -1.
</event>
<event>
 7    1  0.2751796E-010  0.4778727E+02  0.7816164E-02  0.1312668E+00
        -11   -1    0    0    0    0  0.00000000000E+00  0.00000000000E+00  0.45593999997E+02  0.45594000000E+02  0.51100000000E-03 0. -1.
         11   -1    0    0    0    0 -0.00000000000E+00 -0.00000000000E+00 -0.45593999997E+02  0.45594000000E+02  0.51100000000E-03 0.  1.
    9900012    2    1    2    0    0 -0.16230963960E+01 -0.30905494784E+02 -0.30427602543E+02  0.47787273667E+02  0.20000011957E+02 0.  0.
         12    1    1    2    0    0  0.16230963960E+01  0.30905494784E+02  0.30427602543E+02  0.43400726333E+02  0.00000000000E+00 0. -1.
         11    1    3    3    0    0  0.30899271724E+01 -0.12481474822E+02 -0.28327845764E+01  0.13166606715E+02  0.51100000000E-03 0. -1.
        -11    1    3    3    0    0  0.10734004517E+01 -0.91992951711E+01 -0.17361762334E+02  0.19677652598E+02  0.51100000000E-03 0.  1.
         12    1    3    3    0    0 -0.57864240201E+01 -0.92247247904E+01 -0.10233055632E+02  0.14943014354E+02  0.00000000000E+00 0. -1.
</event>
<event>
 7    1  0.2751796E-010  0.4778727E+02  0.7816164E-02  0.1312668E+00
        -11   -1    0    0    0    0  0.00000000000E+00  0.00000000000E+00  0.45593999997E+02  0.45594000000E+02  0.51100000000E-03 0.  1.
         11   -1    0    0    0    0 -0.00000000000E+00 -0.00000000000E+00 -0.45593999997E+02  0.45594000000E+02  0.51100000000E-03 0. -1.
    9900012    2    1    2    0    0  0.58186147629E+01  0.22685706801E+02  0.36539376356E+02  0.47787267341E+02  0.19999983115E+02 0.  0.
         12    1    1    2    0    0 -0.58186147629E+01 -0.22685706801E+02 -0.36539376356E+02  0.43400732659E+02  0.00000000000E+00 0. -1.
         11    1    3    3    0    0  0.39271828637E+01  0.11957693928E+02  0.50204025722E+01  0.13550411491E+02  0.51100000000E-03 0. -1.
        -11    1    3    3    0    0  0.37232149894E+01  0.10862910774E+02  0.28098598549E+02  0.30354512037E+02  0.51100000000E-03 0.  1.
         12    1    3    3    0    0 -0.18317830902E+01 -0.13489790050E+00  0.34203752349E+01  0.38823438128E+01  0.00000000000E+00 0. -1.
</event>
<event>
 7    1  0.2751796E-010  0.4778727E+02  0.7816164E-02  0.1312668E+00
        -11   -1    0    0    0    0  0.00000000000E+00  0.00000000000E+00  0.45593999997E+02  0.45594000000E+02  0.51100000000E-03 0. -1.
         11   -1    0    0    0    0 -0.00000000000E+00 -0.00000000000E+00 -0.45593999997E+02  0.45594000000E+02  0.51100000000E-03 0.  1.
    9900012    2    1    2    0    0 -0.39038813435E+01  0.14041561507E+02 -0.40880526822E+02  0.47787271753E+02  0.20000003232E+02 0.  0.
         12    1    1    2    0    0  0.39038813435E+01 -0.14041561507E+02  0.40880526822E+02  0.43400728247E+02  0.00000000000E+00 0. -1.
         11    1    3    3    0    0 -0.10073568752E+02  0.82095599717E+01 -0.15544337923E+02  0.20260802157E+02  0.51100000000E-03 0. -1.
        -11    1    3    3    0    0  0.14054975027E+01  0.30723317997E+01 -0.18211984340E+02  0.18522716318E+02  0.51100000000E-03 0.  1.
         12    1    3    3    0    0  0.47641899053E+01  0.27596697355E+01 -0.71242045590E+01  0.90037532786E+01  0.00000000000E+00 0. -1.
</event>
<event>
 7    1  0.2751796E-010  0.4778727E+02  0.7816164E-02  0.1312668E+00
        -11   -1    0    0    0    0  0.00000000000E+00  0.00000000000E+00  0.45593999997E+02  0.45594000000E+02  0.51100000000E-03 0.  1.
         11   -1    0    0    0    0 -0.00000000000E+00 -0.00000000000E+00 -0.45593999997E+02  0.45594000000E+02  0.51100000000E-03 0. -1.
    9900012    2    1    2    0    0 -0.40394736099E+02 -0.15309605704E+02  0.41839053056E+01  0.47787265042E+02  0.19999972631E+02 0.  0.
         12    1    1    2    0    0  0.40394736099E+02  0.15309605704E+02 -0.41839053056E+01  0.43400734958E+02  0.00000000000E+00 0. -1.
         11    1    3    3    0    0 -0.17885738414E+02 -0.17298718440E+02  0.13341004394E+01  0.24918369178E+02  0.51100000000E-03 0. -1.
        -11    1    3    3    0    0 -0.17064101367E+02  0.64756275359E+00  0.23814249274E+01  0.17241637913E+02  0.51100000000E-03 0.  1.
         12    1    3    3    0    0 -0.54448963181E+01  0.13415499820E+01  0.46837993879E+00  0.56272579501E+01  0.00000000000E+00 0. -1.
</event>
<event>
 7    1  0.2751796E-010  0.4778727E+02  0.7816164E-02  0.1312668E+00
        -11   -1    0    0    0    0  0.00000000000E+00  0.00000000000E+00  0.45593999997E+02  0.45594000000E+02  0.51100000000E-03 0.  1.
         11   -1    0    0    0    0 -0.00000000000E+00 -0.00000000000E+00 -0.45593999997E+02  0.45594000000E+02  0.51100000000E-03 0. -1.
    9900012    2    1    2    0    0 -0.37840190877E+02  0.14014471138E+02  0.15979283747E+02  0.47787274707E+02  0.20000016699E+02 0.  0.
         12    1    1    2    0    0  0.37840190877E+02 -0.14014471138E+02 -0.15979283747E+02  0.43400725293E+02  0.00000000000E+00 0. -1.
         11    1    3    3    0    0 -0.86981541500E+01 -0.39788101567E+01  0.44711023855E+01  0.10558388735E+02  0.51100000000E-03 0. -1.
        -11    1    3    3    0    0 -0.19719165328E+02  0.15326722407E+02  0.50001550408E+01  0.25470678273E+02  0.51100000000E-03 0.  1.
         12    1    3    3    0    0 -0.94228713994E+01  0.26665588876E+01  0.65080263206E+01  0.11758207699E+02  0.00000000000E+00 0. -1.
</event>
<event>
 7    1  0.2751796E-010  0.4778727E+02  0.7816164E-02  0.1312668E+00
        -11   -1    0    0    0    0  0.00000000000E+00  0.00000000000E+00  0.45593999997E+02  0.45594000000E+02  0.51100000000E-03 0. -1.
         11   -1    0    0    0    0 -0.00000000000E+00 -0.00000000000E+00 -0.45593999997E+02  0.45594000000E+02  0.51100000000E-03 0.  1.
    9900012    2    1    2    0    0 -0.28132019482E+01 -0.28625711318E+02 -0.32500435833E+02  0.47787265179E+02  0.19999973256E+02 0.  0.
         12    1    1    2    0    0  0.28132019482E+01  0.28625711318E+02  0.32500435833E+02  0.43400734821E+02  0.00000000000E+00 0. -1.
         11    1    3    3    0    0  0.11178383658E+01 -0.44348216769E+01  0.18061782675E+01  0.49172640882E+01  0.51100000000E-03 0. -1.
        -11    1    3    3    0    0 -0.22166152841E+01 -0.18592039895E+02 -0.30800559321E+02  0.36045135394E+02  0.51100000000E-03 0.  1.
        -12    1    3    3    0    0 -0.17144250299E+01 -0.55988497461E+01 -0.35060547797E+01  0.68248656969E+01  0.00000000000E+00 0.  1.
</event>
<event>
 7    1  0.2751796E-010  0.4778728E+02  0.7816164E-02  0.1312668E+00
        -11   -1    0    0    0    0  0.00000000000E+00  0.00000000000E+00  0.45593999997E+02  0.45594000000E+02  0.51100000000E-03 0.  1.
         11   -1    0    0    0    0 -0.00000000000E+00 -0.00000000000E+00 -0.45593999997E+02  0.45594000000E+02  0.51100000000E-03 0. -1.
    9900012    2    1    2    0    0 -0.16295158024E+02  0.27593923785E+01  0.40130741075E+02  0.47787276497E+02  0.20000024860E+02 0.  0.
         12    1    1    2    0    0  0.16295158024E+02 -0.27593923785E+01 -0.40130741075E+02  0.43400723503E+02  0.00000000000E+00 0. -1.
         11    1    3    3    0    0 -0.35531795376E+00  0.12753908424E+01  0.26096174904E+01  0.29262563723E+01  0.51100000000E-03 0. -1.
        -11    1    3    3    0    0 -0.95947039910E+01  0.94373560789E+01  0.15024910787E+02  0.20171018290E+02  0.51100000000E-03 0.  1.
        -12    1    3    3    0    0 -0.63451360792E+01 -0.79533545428E+01  0.22496212798E+02  0.24690001835E+02  0.00000000000E+00 0.  1.
</event>
<event>
 7    1  0.2751796E-010  0.4778727E+02  0.7816164E-02  0.1312668E+00
        -11   -1    0    0    0    0  0.00000000000E+00  0.00000000000E+00  0.45593999997E+02  0.45594000000E+02  0.51100000000E-03 0.  1.
         11   -1    0    0    0    0 -0.00000000000E+00 -0.00000000000E+00 -0.45593999997E+02  0.45594000000E+02  0.51100000000E-03 0. -1.
    9900012    2    1    2    0    0  0.24835175660E+02 -0.15766987501E+02  0.31909861324E+02  0.47787273110E+02  0.20000009417E+02 0.  0.
         12    1    1    2    0    0 -0.24835175660E+02  0.15766987501E+02 -0.31909861324E+02  0.43400726890E+02  0.00000000000E+00 0. -1.
         11    1    3    3    0    0 -0.25109152664E+01  0.11411123177E+01  0.19877018598E+01  0.33996752406E+01  0.51100000000E-03 0. -1.
        -11    1    3    3    0    0  0.13969665069E+02 -0.49002659212E+01  0.13949895396E+02  0.20341183104E+02  0.51100000000E-03 0.  1.
         12    1    3    3    0    0  0.13376425858E+02 -0.12007833897E+02  0.15972264068E+02  0.24046414765E+02  0.00000000000E+00 0. -1.
</event>
<event>
 7    1  0.2751796E-010  0.4778728E+02  0.7816164E-02  0.1312668E+00
        -11   -1    0    0    0    0  0.00000000000E+00  0.00000000000E+00  0.45593999997E+02  0.45594000000E+02  0.51100000000E-03 0. -1.
         11   -1    0    0    0    0 -0.00000000000E+00 -0.00000000000E+00 -0.45593999997E+02  0.45594000000E+02  0.51100000000E-03 0.  1.
    9900012    2    1    2    0    0 -0.41842656597E+02 -0.25495494860E+01 -0.11238963606E+02  0.47787280921E+02  0.20000045031E+02 0.  0.
         12    1    1    2    0    0  0.41842656597E+02  0.25495494860E+01  0.11238963606E+02  0.43400719079E+02  0.00000000000E+00 0. -1.
         11    1    3    3    0    0 -0.31477614141E+01  0.13139636486E+01  0.39203087032E+01  0.51965106542E+01  0.51100000000E-03 0. -1.
        -11    1    3    3    0    0 -0.23605571735E+02  0.12010487364E+01 -0.67075896332E+01  0.24569438209E+02  0.51100000000E-03 0.  1.
        -12    1    3    3    0    0 -0.15089323448E+02 -0.50645618710E+01 -0.84516826756E+01  0.18021332057E+02  0.00000000000E+00 0.  1.
</event>
<event>
 7    1  0.2751796E-010  0.4778729E+02  0.7816164E-02  0.1312668E+00
        -11   -1    0    0    0    0  0.00000000000E+00  0.00000000000E+00  0.45593999997E+02  0.45594000000E+02  0.51100000000E-03 0.  1.
         11   -1    0    0    0    0 -0.00000000000E+00 -0.00000000000E+00 -0.45593999997E+02  0.45594000000E+02  0.51100000000E-03 0. -1.
    9900012    2    1    2    0    0 -0.86599738845E+01  0.27584442850E+02  0.32368583629E+02  0.47787287550E+02  0.20000075255E+02 0.  0.
         12    1    1    2    0    0  0.86599738845E+01 -0.27584442850E+02 -0.32368583629E+02  0.43400712450E+02  0.00000000000E+00 0. -1.
         11    1    3    3    0    0  0.58720356981E+01  0.46128039461E+01  0.47365901094E+01  0.88427399380E+01  0.51100000000E-03 0. -1.
        -11    1    3    3    0    0 -0.13280587776E+02  0.22262442489E+02  0.26786320319E+02  0.37275961607E+02  0.51100000000E-03 0.  1.
        -12    1    3    3    0    0 -0.12514218063E+01  0.70919641462E+00  0.84567320131E+00  0.16685860047E+01  0.00000000000E+00 0.  1.
</event>
<event>
 7    1  0.2751796E-010  0.4778727E+02  0.7816164E-02  0.1312668E+00
        -11   -1    0    0    0    0  0.00000000000E+00  0.00000000000E+00  0.45593999997E+02  0.45594000000E+02  0.51100000000E-03 0. -1.
         11   -1    0    0    0    0 -0.00000000000E+00 -0.00000000000E+00 -0.45593999997E+02  0.45594000000E+02  0.51100000000E-03 0.  1.
    9900012    2    1    2    0    0  0.41327173610E+02 -0.45560422505E+01 -0.12447115500E+02  0.47787268626E+02  0.19999988971E+02 0.  0.
         12    1    1    2    0    0 -0.41327173610E+02  0.45560422505E+01  0.12447115500E+02  0.43400731374E+02  0.00000000000E+00 0. -1.
         11    1    3    3    0    0  0.96028703222E+01  0.15797103480E+01 -0.75666310245E+01  0.12327388553E+02  0.51100000000E-03 0. -1.
        -11    1    3    3    0    0  0.93339700495E+01  0.44645866097E+01 -0.12340020071E+01  0.10420090772E+02  0.51100000000E-03 0.  1.
        -12    1    3    3    0    0  0.22390333238E+02 -0.10600339208E+02 -0.36464824684E+01  0.25039789301E+02  0.00000000000E+00 0.  1.
</event>
<event>
 7    1  0.2751796E-010  0.4778727E+02  0.7816164E-02  0.1312668E+00
        -11   -1    0    0    0    0  0.00000000000E+00  0.00000000000E+00  0.45593999997E+02  0.45594000000E+02  0.51100000000E-03 0.  1.
         11   -1    0    0    0    0 -0.00000000000E+00 -0.00000000000E+00 -0.45593999997E+02  0.45594000000E+02  0.51100000000E-03 0. -1.
    9900012    2    1    2    0    0 -0.36370728622E+01  0.32040708264E+02  0.29048024416E+02  0.47787274113E+02  0.20000013990E+02 0.  0.
         12    1    1    2    0    0  0.36370728622E+01 -0.32040708264E+02 -0.29048024416E+02  0.43400725887E+02  0.00000000000E+00 0. -1.
         11    1    3    3    0    0 -0.83394371464E+00  0.63664463390E+01  0.17793810999E+01  0.66628296141E+01  0.51100000000E-03 0. -1.
        -11    1    3    3    0    0 -0.98002973102E+01  0.12825153149E+02  0.14877194927E+02  0.21951339591E+02  0.51100000000E-03 0.  1.
        -12    1    3    3    0    0  0.69971681626E+01  0.12849108776E+02  0.12391448389E+02  0.19173104908E+02  0.00000000000E+00 0.  1.
</event>
<event>
 7    1  0.2751796E-010  0.4778727E+02  0.7816164E-02  0.1312668E+00
        -11   -1    0    0    0    0  0.00000000000E+00  0.00000000000E+00  0.45593999997E+02  0.45594000000E+02  0.51100000000E-03 0.  1.
         11   -1    0    0    0    0 -0.00000000000E+00 -0.00000000000E+00 -0.45593999997E+02  0.45594000000E+02  0.51100000000E-03 0. -1.
    9900012    2    1    2    0    0 -0.33296681239E+02  0.14748383015E+02  0.23610157510E+02  0.47787270505E+02  0.19999997540E+02 0.  0.
         12    1    1    2    0    0  0.33296681239E+02 -0.14748383015E+02 -0.23610157510E+02  0.43400729495E+02  0.00000000000E+00 0. -1.
         11    1    3    3    0    0 -0.53349008762E+01 -0.41922824909E+01  0.24245580425E+01  0.72051982488E+01  0.51100000000E-03 0. -1.
        -11    1    3    3    0    0 -0.71660289678E+01  0.91630951069E+01  0.69670448331E+01  0.13559277159E+02  0.51100000000E-03 0.  1.
         12    1    3    3    0    0 -0.20795751395E+02  0.97775703987E+01  0.14218554634E+02  0.27022795097E+02  0.00000000000E+00 0. -1.
</event>
<event>
 7    1  0.2751796E-010  0.4778728E+02  0.7816164E-02  0.1312668E+00
        -11   -1    0    0    0    0  0.00000000000E+00  0.00000000000E+00  0.45593999997E+02  0.45594000000E+02  0.51100000000E-03 0. -1.
         11   -1    0    0    0    0 -0.00000000000E+00 -0.00000000000E+00 -0.45593999997E+02  0.45594000000E+02  0.51100000000E-03 0.  1.
    9900012    2    1    2    0    0 -0.11969151235E+02  0.15822438752E+02 -0.38600683184E+02  0.47787275448E+02  0.20000020077E+02 0.  0.
         12    1    1    2    0    0  0.11969151235E+02 -0.15822438752E+02  0.38600683184E+02  0.43400724552E+02  0.00000000000E+00 0. -1.
         11    1    3    3    0    0 -0.10119033459E+01  0.44869237971E+01 -0.29809220445E+00  0.46092616291E+01  0.51100000000E-03 0. -1.
        -11    1    3    3    0    0 -0.12353648312E+02  0.55059626726E+01 -0.30279221025E+02  0.33162621695E+02  0.51100000000E-03 0.  1.
        -12    1    3    3    0    0  0.13964004225E+01  0.58295522823E+01 -0.80233699547E+01  0.10015392123E+02  0.00000000000E+00 0.  1.
</event>
<event>
 7    1  0.2751796E-010  0.4778727E+02  0.7816164E-02  0.1312668E+00
        -11   -1    0    0    0    0  0.00000000000E+00  0.00000000000E+00  0.45593999997E+02  0.45594000000E+02  0.51100000000E-03 0.  1.
         11   -1    0    0    0    0 -0.00000000000E+00 -0.00000000000E+00 -0.45593999997E+02  0.45594000000E+02  0.51100000000E-03 0. -1.
    9900012    2    1    2    0    0 -0.15546584717E+02  0.37215082343E+02  0.16030123679E+02  0.47787268263E+02  0.19999987318E+02 0.  0.
         12    1    1    2    0    0  0.15546584717E+02 -0.37215082343E+02 -0.16030123679E+02  0.43400731737E+02  0.00000000000E+00 0. -1.
         11    1    3    3    0    0 -0.44506435178E+01  0.69651688047E+01 -0.46378385681E+01  0.94779402322E+01  0.51100000000E-03 0. -1.
        -11    1    3    3    0    0 -0.39185985969E+01  0.10170630106E+02  0.78167254340E+01  0.13412618256E+02  0.51100000000E-03 0.  1.
         12    1    3    3    0    0 -0.71773426021E+01  0.20079283432E+02  0.12851236813E+02  0.24896709774E+02  0.00000000000E+00 0. -1.
</event>
<event>
 7    1  0.2751796E-010  0.4778727E+02  0.7816164E-02  0.1312668E+00
        -11   -1    0    0    0    0  0.00000000000E+00  0.00000000000E+00  0.45593999997E+02  0.45594000000E+02  0.51100000000E-03 0.  1.
         11   -1    0    0    0    0 -0.00000000000E+00 -0.00000000000E+00 -0.45593999997E+02  0.45594000000E+02  0.51100000000E-03 0. -1.
    9900012    2    1    2    0    0 -0.26222557561E+01  0.43308595208E+02 -0.10548677433E+01  0.47787269706E+02  0.19999993895E+02 0.  0.
         12    1    1    2    0    0  0.26222557561E+01 -0.43308595208E+02  0.10548677433E+01  0.43400730294E+02  0.00000000000E+00 0. -1.
         11    1    3    3    0    0 -0.29900283165E+01  0.52465811024E+01 -0.43589369328E+01  0.74476314384E+01  0.51100000000E-03 0. -1.
        -11    1    3    3    0    0 -0.28289535278E+01  0.35735887782E+02  0.46836821029E+01  0.36152365509E+02  0.51100000000E-03 0.  1.
        -12    1    3    3    0    0  0.31967260883E+01  0.23261263239E+01 -0.13796129134E+01  0.41872727579E+01  0.00000000000E+00 0.  1.
</event>
<event>
 7    1  0.2751796E-010  0.4778727E+02  0.7816164E-02  0.1312668E+00
        -11   -1    0    0    0    0  0.00000000000E+00  0.00000000000E+00  0.45593999997E+02  0.45594000000E+02  0.51100000000E-03 0.  1.
         11   -1    0    0    0    0 -0.00000000000E+00 -0.00000000000E+00 -0.45593999997E+02  0.45594000000E+02  0.51100000000E-03 0. -1.
    9900012    2    1    2    0    0 -0.23088709019E+02 -0.33257271529E+02 -0.15636134743E+02  0.47787270704E+02  0.19999998448E+02 0.  0.
         12    1    1    2    0    0  0.23088709019E+02  0.33257271529E+02  0.15636134743E+02  0.43400729296E+02  0.00000000000E+00 0. -1.
         11    1    3    3    0    0 -0.18164184732E+01 -0.12254832050E+02 -0.41912917035E+01  0.13078501866E+02  0.51100000000E-03 0. -1.
        -11    1    3    3    0    0 -0.15742539590E+02 -0.10552730477E+02 -0.10749629800E+01  0.18982708419E+02  0.51100000000E-03 0.  1.
        -12    1    3    3    0    0 -0.55297509556E+01 -0.10449709002E+02 -0.10369880059E+02  0.15726060419E+02  0.00000000000E+00 0.  1.
</event>
<event>
 7    1  0.2751796E-010  0.4778727E+02  0.7816164E-02  0.1312668E+00
        -11   -1    0    0    0    0  0.00000000000E+00  0.00000000000E+00  0.45593999997E+02  0.45594000000E+02  0.51100000000E-03 0. -1.
         11   -1    0    0    0    0 -0.00000000000E+00 -0.00000000000E+00 -0.45593999997E+02  0.45594000000E+02  0.51100000000E-03 0.  1.
    9900012    2    1    2    0    0 -0.38063879078E+02  0.17302340876E+02 -0.11635888434E+02  0.47787265099E+02  0.19999972894E+02 0.  0.
         12    1    1    2    0    0  0.38063879078E+02 -0.17302340876E+02  0.11635888434E+02  0.43400734901E+02  0.00000000000E+00 0. -1.
         11    1    3    3    0    0 -0.73529909202E+01  0.20056419665E+01  0.55013001719E+01  0.93996478132E+01  0.51100000000E-03 0. -1.
        -11    1    3    3    0    0 -0.24255463713E+02  0.12662674533E+02 -0.13179977567E+02  0.30370753286E+02  0.51100000000E-03 0.  1.
         12    1    3    3    0    0 -0.64554244451E+01  0.26340243770E+01 -0.39572110390E+01  0.80168639998E+01  0.00000000000E+00 0. -1.
</event>
<event>
 7    1  0.2751796E-010  0.4778728E+02  0.7816164E-02  0.1312668E+00
        -11   -1    0    0    0    0  0.00000000000E+00  0.00000000000E+00  0.45593999997E+02  0.45594000000E+02  0.51100000000E-03 0. -1.
         11   -1    0    0    0    0 -0.00000000000E+00 -0.00000000000E+00 -0.45593999997E+02  0.45594000000E+02  0.51100000000E-03 0.  1.
    9900012    2    1    2    0    0 -0.10110354896E+02  0.31156245916E+02 -0.28472647755E+02  0.47787278740E+02  0.20000035089E+02 0.  0.
         12    1    1    2    0    0  0.10110354896E+02 -0.31156245916E+02  0.28472647755E+02  0.43400721260E+02  0.00000000000E+00 0. -1.
         11    1    3    3    0    0  0.11336122785E+01  0.95750676006E+01  0.15306572884E+00  0.96431543456E+01  0.51100000000E-03 0. -1.
        -11    1    3    3    0    0 -0.11976954136E+02  0.18569281252E+02 -0.25501796092E+02  0.33743254745E+02  0.51100000000E-03 0.  1.
        -12    1    3    3    0    0  0.73298696214E+00  0.30118970625E+01 -0.31239173918E+01  0.44008696495E+01  0.00000000000E+00 0.  1.
</event>
<event>
 7    1  0.2751796E-010  0.4778727E+02  0.7816164E-02  0.1312668E+00
        -11   -1    0    0    0    0  0.00000000000E+00  0.00000000000E+00  0.45593999997E+02  0.45594000000E+02  0.51100000000E-03 0. -1.
         11   -1    0    0    0    0 -0.00000000000E+00 -0.00000000000E+00 -0.45593999997E+02  0.45594000000E+02  0.51100000000E-03 0.  1.
    9900012    2    1    2    0    0 -0.40820179093E+02  0.14438086738E+02  0.29795509355E+01  0.47787273121E+02  0.20000009468E+02 0.  0.
         12    1    1    2    0    0  0.40820179093E+02 -0.14438086738E+02 -0.29795509355E+01  0.43400726879E+02  0.00000000000E+00 0. -1.
         11    1    3    3    0    0  0.44061653389E+00  0.38205045350E+01 -0.10921018250E+01  0.39978850019E+01  0.51100000000E-03 0. -1.
        -11    1    3    3    0    0 -0.18952565016E+02  0.36595480931E+00  0.31892125542E+01  0.19222505575E+02  0.51100000000E-03 0.  1.
        -12    1    3    3    0    0 -0.22308230611E+02  0.10251627394E+02  0.88244020630E+00  0.24566882544E+02  0.00000000000E+00 0.  1.
</event>
<event>
 7    1  0.2751796E-010  0.4778727E+02  0.7816164E-02  0.1312668E+00
        -11   -1    0    0    0    0  0.00000000000E+00  0.00000000000E+00  0.45593999997E+02  0.45594000000E+02  0.51100000000E-03 0.  1.
         11   -1    0    0    0    0 -0.00000000000E+00 -0.00000000000E+00 -0.45593999997E+02  0.45594000000E+02  0.51100000000E-03 0. -1.
    9900012    2    1    2    0    0  0.35504124514E+02 -0.14697048533E+02  0.20176148317E+02  0.47787273578E+02  0.20000011552E+02 0.  0.
         12    1    1    2    0    0 -0.35504124514E+02  0.14697048533E+02 -0.20176148317E+02  0.43400726422E+02  0.00000000000E+00 0. -1.
         11    1    3    3    0    0 -0.62121874905E+00  0.94357489885E+00  0.26732713953E+00  0.11609092921E+01  0.51100000000E-03 0. -1.
        -11    1    3    3    0    0  0.18792858048E+02 -0.13255828353E+02  0.17640696297E+02  0.28984179564E+02  0.51100000000E-03 0.  1.
        -12    1    3    3    0    0  0.17332485215E+02 -0.23847950790E+01  0.22681248805E+01  0.17642184722E+02  0.00000000000E+00 0.  1.
</event>
<event>
 7    1  0.2751796E-010  0.4778727E+02  0.7816164E-02  0.1312668E+00
        -11   -1    0    0    0    0  0.00000000000E+00  0.00000000000E+00  0.45593999997E+02  0.45594000000E+02  0.51100000000E-03 0.  1.
         11   -1    0    0    0    0 -0.00000000000E+00 -0.00000000000E+00 -0.45593999997E+02  0.45594000000E+02  0.51100000000E-03 0. -1.
    9900012    2    1    2    0    0 -0.20893731886E+02 -0.21432543362E+02  0.31428035445E+02  0.47787270064E+02  0.19999995529E+02 0.  0.
         12    1    1    2    0    0  0.20893731886E+02  0.21432543362E+02 -0.31428035445E+02  0.43400729936E+02  0.00000000000E+00 0. -1.
         11    1    3    3    0    0  0.26956543017E+00 -0.63489299779E-01  0.27636565874E+01  0.27774978680E+01  0.51100000000E-03 0. -1.
        -11    1    3    3    0    0 -0.49610787088E+01 -0.17068024334E+02  0.16934014498E+02  0.24549757716E+02  0.51100000000E-03 0.  1.
        -12    1    3    3    0    0 -0.16202218607E+02 -0.43010297278E+01  0.11730364359E+02  0.20460014480E+02  0.00000000000E+00 0.  1.
</event>
<event>
 7    1  0.2751796E-010  0.4778726E+02  0.7816164E-02  0.1312668E+00
        -11   -1    0    0    0    0  0.00000000000E+00  0.00000000000E+00  0.45593999997E+02  0.45594000000E+02  0.51100000000E-03 0.  1.
         11   -1    0    0    0    0 -0.00000000000E+00 -0.00000000000E+00 -0.45593999997E+02  0.45594000000E+02  0.51100000000E-03 0. -1.
    9900012    2    1    2    0    0  0.24441271756E+02 -0.98806690784E+01  0.34476375617E+02  0.47787264267E+02  0.19999969099E+02 0.  0.
         12    1    1    2    0    0 -0.24441271756E+02  0.98806690784E+01 -0.34476375617E+02  0.43400735733E+02  0.00000000000E+00 0. -1.
         11    1    3    3    0    0 -0.19719591428E+01 -0.26047023266E+01  0.53796549000E+01  0.62939482183E+01  0.51100000000E-03 0. -1.
        -11    1    3    3    0    0  0.14344213633E+02  0.12395326420E+01  0.17822954287E+02  0.22911800578E+02  0.51100000000E-03 0.  1.
         12    1    3    3    0    0  0.12069017266E+02 -0.85154993938E+01  0.11273766429E+02  0.18581515471E+02  0.00000000000E+00 0. -1.
</event>
<event>
 7    1  0.2751796E-010  0.4778727E+02  0.7816164E-02  0.1312668E+00
        -11   -1    0    0    0    0  0.00000000000E+00  0.00000000000E+00  0.45593999997E+02  0.45594000000E+02  0.51100000000E-03 0.  1.
         11   -1    0    0    0    0 -0.00000000000E+00 -0.00000000000E+00 -0.45593999997E+02  0.45594000000E+02  0.51100000000E-03 0. -1.
    9900012    2    1    2    0    0  0.15373544913E+02  0.39787075393E+02  0.80166323218E+01  0.47787266766E+02  0.19999980492E+02 0.  0.
         12    1    1    2    0    0 -0.15373544913E+02 -0.39787075393E+02 -0.80166323218E+01  0.43400733234E+02  0.00000000000E+00 0. -1.
         11    1    3    3    0    0 -0.89181790394E+00  0.21786701032E+02  0.29087359814E+01  0.21998100516E+02  0.51100000000E-03 0. -1.
        -11    1    3    3    0    0  0.14117650136E+02  0.10987425854E+02  0.28498780762E+01  0.18115004211E+02  0.51100000000E-03 0.  1.
        -12    1    3    3    0    0  0.21477126809E+01  0.70129485065E+01  0.22580182642E+01  0.76741620387E+01  0.00000000000E+00 0.  1.
</event>
<event>
 7    1  0.2751796E-010  0.4778727E+02  0.7816164E-02  0.1312668E+00
        -11   -1    0    0    0    0  0.00000000000E+00  0.00000000000E+00  0.45593999997E+02  0.45594000000E+02  0.51100000000E-03 0.  1.
         11   -1    0    0    0    0 -0.00000000000E+00 -0.00000000000E+00 -0.45593999997E+02  0.45594000000E+02  0.51100000000E-03 0. -1.
    9900012    2    1    2    0    0 -0.23934443803E+02  0.33391894245E+02  0.13990962424E+02  0.47787271539E+02  0.20000002253E+02 0.  0.
         12    1    1    2    0    0  0.23934443803E+02 -0.33391894245E+02 -0.13990962424E+02  0.43400728461E+02  0.00000000000E+00 0. -1.
         11    1    3    3    0    0 -0.19889449894E+02  0.28855494295E+02  0.92639533609E+01  0.36249835865E+02  0.51100000000E-03 0. -1.
        -11    1    3    3    0    0 -0.39256034838E+00  0.61331464209E+01  0.13024313348E+01  0.62821904054E+01  0.51100000000E-03 0.  1.
         12    1    3    3    0    0 -0.36524335614E+01 -0.15967464711E+01  0.34245777284E+01  0.52552452684E+01  0.00000000000E+00 0. -1.
</event>
<event>
 7    1  0.2751796E-010  0.4778727E+02  0.7816164E-02  0.1312668E+00
        -11   -1    0    0    0    0  0.00000000000E+00  0.00000000000E+00  0.45593999997E+02  0.45594000000E+02  0.51100000000E-03 0.  1.
         11   -1    0    0    0    0 -0.00000000000E+00 -0.00000000000E+00 -0.45593999997E+02  0.45594000000E+02  0.51100000000E-03 0. -1.
    9900012    2    1    2    0    0 -0.23614783388E+02 -0.33149157408E+02 -0.15069797227E+02  0.47787269364E+02  0.19999992336E+02 0.  0.
         12    1    1    2    0    0  0.23614783388E+02  0.33149157408E+02  0.15069797227E+02  0.43400730636E+02  0.00000000000E+00 0. -1.
         11    1    3    3    0    0 -0.10560110980E+02 -0.68213155336E+01 -0.11596932479E+02  0.17103658459E+02  0.51100000000E-03 0. -1.
        -11    1    3    3    0    0 -0.93842155891E+01 -0.13046460711E+02  0.12450809162E+01  0.16119052889E+02  0.51100000000E-03 0.  1.
        -12    1    3    3    0    0 -0.36704568191E+01 -0.13281381164E+02 -0.47179456637E+01  0.14564558015E+02  0.00000000000E+00 0.  1.
</event>
<event>
 7    1  0.2751796E-010  0.4778727E+02  0.7816164E-02  0.1312668E+00
        -11   -1    0    0    0    0  0.00000000000E+00  0.00000000000E+00  0.45593999997E+02  0.45594000000E+02  0.51100000000E-03 0. -1.
         11   -1    0    0    0    0 -0.00000000000E+00 -0.00000000000E+00 -0.45593999997E+02  0.45594000000E+02  0.51100000000E-03 0.  1.
    9900012    2    1    2    0    0 -0.13727766253E+01 -0.43220036230E+02 -0.37104704867E+01  0.47787266842E+02  0.19999980841E+02 0.  0.
         12    1    1    2    0    0  0.13727766253E+01  0.43220036230E+02  0.37104704867E+01  0.43400733158E+02  0.00000000000E+00 0. -1.
         11    1    3    3    0    0 -0.34320337260E+01 -0.13436522055E+01  0.12810162930E+01  0.39019558877E+01  0.51100000000E-03 0. -1.
        -11    1    3    3    0    0 -0.14971572423E+01 -0.38515064769E+02 -0.56195489003E+01  0.38951649824E+02  0.51100000000E-03 0.  1.
        -12    1    3    3    0    0  0.35564143430E+01 -0.33613192559E+01  0.62806212053E+00  0.49336611301E+01  0.00000000000E+00 0.  1.
</event>
<event>
 7    1  0.2751796E-010  0.4778727E+02  0.7816164E-02  0.1312668E+00
        -11   -1    0    0    0    0  0.00000000000E+00  0.00000000000E+00  0.45593999997E+02  0.45594000000E+02  0.51100000000E-03 0.  1.
         11   -1    0    0    0    0 -0.00000000000E+00 -0.00000000000E+00 -0.45593999997E+02  0.45594000000E+02  0.51100000000E-03 0. -1.
    9900012    2    1    2    0    0  0.70721484867E+01  0.11929864336E+02  0.41125249337E+02  0.47787273274E+02  0.20000010166E+02 0.  0.
         12    1    1    2    0    0 -0.70721484867E+01 -0.11929864336E+02 -0.41125249337E+02  0.43400726726E+02  0.00000000000E+00 0. -1.
         11    1    3    3    0    0 -0.53841685931E+00 -0.15117607867E+01  0.46110405660E+00  0.16697097361E+01  0.51100000000E-03 0. -1.
        -11    1    3    3    0    0  0.80700949331E+00  0.12129999786E+02  0.13877084519E+02  0.18448892491E+02  0.51100000000E-03 0.  1.
        -12    1    3    3    0    0  0.68035558527E+01  0.13116253369E+01  0.26787060761E+02  0.27668671047E+02  0.00000000000E+00 0.  1.
</event>
<event>
 7    1  0.2751796E-010  0.4778727E+02  0.7816164E-02  0.1312668E+00
        -11   -1    0    0    0    0  0.00000000000E+00  0.00000000000E+00  0.45593999997E+02  0.45594000000E+02  0.51100000000E-03 0. -1.
         11   -1    0    0    0    0 -0.00000000000E+00 -0.00000000000E+00 -0.45593999997E+02  0.45594000000E+02  0.51100000000E-03 0.  1.
    9900012    2    1    2    0    0  0.42247551112E+02  0.82011236110E+01  0.56133158816E+01  0.47787270528E+02  0.19999997647E+02 0.  0.
         12    1    1    2    0    0 -0.42247551112E+02 -0.82011236110E+01 -0.56133158816E+01  0.43400729472E+02  0.00000000000E+00 0. -1.
         11    1    3    3    0    0  0.25773924284E+01  0.66874828012E+01  0.31593611844E+01  0.78324288252E+01  0.51100000000E-03 0. -1.
        -11    1    3    3    0    0  0.17186488220E+01  0.81888804071E+00 -0.13669619473E+00  0.19086690409E+01  0.51100000000E-03 0.  1.
         12    1    3    3    0    0  0.37951509862E+02  0.69475276911E+00  0.25906508919E+01  0.38046172662E+02  0.00000000000E+00 0. -1.
</event>
<event>
 7    1  0.2751796E-010  0.4778727E+02  0.7816164E-02  0.1312668E+00
        -11   -1    0    0    0    0  0.00000000000E+00  0.00000000000E+00  0.45593999997E+02  0.45594000000E+02  0.51100000000E-03 0. -1.
         11   -1    0    0    0    0 -0.00000000000E+00 -0.00000000000E+00 -0.45593999997E+02  0.45594000000E+02  0.51100000000E-03 0.  1.
    9900012    2    1    2    0    0 -0.30782650857E+02 -0.25444268961E+02  0.16989440722E+02  0.47787268292E+02  0.19999987451E+02 0.  0.
         12    1    1    2    0    0  0.30782650857E+02  0.25444268961E+02 -0.16989440722E+02  0.43400731708E+02  0.00000000000E+00 0. -1.
         11    1    3    3    0    0 -0.84428215465E+01 -0.15347306320E+02  0.89020964283E+01  0.19648622548E+02  0.51100000000E-03 0. -1.
        -11    1    3    3    0    0 -0.53568758761E+01  0.16905830859E+01 -0.72883102481E+00  0.56643962826E+01  0.51100000000E-03 0.  1.
         12    1    3    3    0    0 -0.16982953434E+02 -0.11787545727E+02  0.88161753188E+01  0.22474249461E+02  0.00000000000E+00 0. -1.
</event>
<event>
 7    1  0.2751796E-010  0.4778730E+02  0.7816164E-02  0.1312668E+00
        -11   -1    0    0    0    0  0.00000000000E+00  0.00000000000E+00  0.45593999997E+02  0.45594000000E+02  0.51100000000E-03 0.  1.
         11   -1    0    0    0    0 -0.00000000000E+00 -0.00000000000E+00 -0.45593999997E+02  0.45594000000E+02  0.51100000000E-03 0. -1.
    9900012    2    1    2    0    0  0.29505397359E+02 -0.35915177801E+00  0.31826461368E+02  0.47787296014E+02  0.20000113845E+02 0.  0.
         12    1    1    2    0    0 -0.29505397359E+02  0.35915177801E+00 -0.31826461368E+02  0.43400703986E+02  0.00000000000E+00 0. -1.
         11    1    3    3    0    0  0.41120417993E+01 -0.43171557553E+01  0.37683570945E+01  0.70531721251E+01  0.51100000000E-03 0. -1.
        -11    1    3    3    0    0  0.35260073012E-01  0.28953202075E+01  0.76071545936E+01  0.81395898944E+01  0.51100000000E-03 0.  1.
        -12    1    3    3    0    0  0.25358095487E+02  0.10626837698E+01  0.20450949679E+02  0.32594533994E+02  0.00000000000E+00 0.  1.
</event>
<event>
 7    1  0.2751796E-010  0.4778727E+02  0.7816164E-02  0.1312668E+00
        -11   -1    0    0    0    0  0.00000000000E+00  0.00000000000E+00  0.45593999997E+02  0.45594000000E+02  0.51100000000E-03 0. -1.
         11   -1    0    0    0    0 -0.00000000000E+00 -0.00000000000E+00 -0.45593999997E+02  0.45594000000E+02  0.51100000000E-03 0.  1.
    9900012    2    1    2    0    0 -0.37962951798E+02  0.10542744887E+02 -0.18201319703E+02  0.47787271690E+02  0.20000002942E+02 0.  0.
         12    1    1    2    0    0  0.37962951798E+02 -0.10542744887E+02  0.18201319703E+02  0.43400728310E+02  0.00000000000E+00 0. -1.
         11    1    3    3    0    0 -0.10378334030E+02  0.31644271935E+01 -0.19588852350E+01  0.11025454563E+02  0.51100000000E-03 0. -1.
        -11    1    3    3    0    0 -0.81464774185E+01 -0.53436872584E+01 -0.45062198219E+01  0.10734342327E+02  0.51100000000E-03 0.  1.
        -12    1    3    3    0    0 -0.19438140349E+02  0.12722004951E+02 -0.11736214646E+02  0.26027474800E+02  0.00000000000E+00 0.  1.
</event>
<event>
 7    1  0.2751796E-010  0.4778727E+02  0.7816164E-02  0.1312668E+00
        -11   -1    0    0    0    0  0.00000000000E+00  0.00000000000E+00  0.45593999997E+02  0.45594000000E+02  0.51100000000E-03 0. -1.
         11   -1    0    0    0    0 -0.00000000000E+00 -0.00000000000E+00 -0.45593999997E+02  0.45594000000E+02  0.51100000000E-03 0.  1.
    9900012    2    1    2    0    0  0.11441679384E+02 -0.32954067986E+02 -0.25821321315E+02  0.47787271222E+02  0.20000000812E+02 0.  0.
         12    1    1    2    0    0 -0.11441679384E+02  0.32954067986E+02  0.25821321315E+02  0.43400728778E+02  0.00000000000E+00 0. -1.
         11    1    3    3    0    0 -0.86518280122E+00 -0.23162571076E+01 -0.26941006756E+01  0.36567426734E+01  0.51100000000E-03 0. -1.
        -11    1    3    3    0    0  0.94714877486E+00 -0.43318536665E+00 -0.87342447745E+01  0.87961225779E+01  0.51100000000E-03 0.  1.
        -12    1    3    3    0    0  0.11359713411E+02 -0.30204625512E+02 -0.14392975865E+02  0.35334405971E+02  0.00000000000E+00 0.  1.
</event>
<event>
 7    1  0.2751796E-010  0.4778726E+02  0.7816164E-02  0.1312668E+00
        -11   -1    0    0    0    0  0.00000000000E+00  0.00000000000E+00  0.45593999997E+02  0.45594000000E+02  0.51100000000E-03 0. -1.
         11   -1    0    0    0    0 -0.00000000000E+00 -0.00000000000E+00 -0.45593999997E+02  0.45594000000E+02  0.51100000000E-03 0.  1.
    9900012    2    1    2    0    0  0.19812901264E+02 -0.14781089972E+02 -0.35673410453E+02  0.47787263940E+02  0.19999967607E+02 0.  0.
         12    1    1    2    0    0 -0.19812901264E+02  0.14781089972E+02  0.35673410453E+02  0.43400736060E+02  0.00000000000E+00 0. -1.
         11    1    3    3    0    0  0.16034335721E+02 -0.68634672872E+01 -0.31234439382E+02  0.35774254834E+02  0.51100000000E-03 0. -1.
        -11    1    3    3    0    0  0.30480377455E+01 -0.34505528698E+01 -0.56876461965E+01  0.73175247675E+01  0.51100000000E-03 0.  1.
         12    1    3    3    0    0  0.73052779711E+00 -0.44670698154E+01  0.12486751255E+01  0.46954843378E+01  0.00000000000E+00 0. -1.
</event>
<event>
 7    1  0.2751796E-010  0.4778726E+02  0.7816164E-02  0.1312668E+00
        -11   -1    0    0    0    0  0.00000000000E+00  0.00000000000E+00  0.45593999997E+02  0.45594000000E+02  0.51100000000E-03 0.  1.
         11   -1    0    0    0    0 -0.00000000000E+00 -0.00000000000E+00 -0.45593999997E+02  0.45594000000E+02  0.51100000000E-03 0. -1.
    9900012    2    1    2    0    0 -0.13469764308E+02 -0.16045073206E+02  0.38009800901E+02  0.47787263955E+02  0.19999967678E+02 0.  0.
         12    1    1    2    0    0  0.13469764308E+02  0.16045073206E+02 -0.38009800901E+02  0.43400736045E+02  0.00000000000E+00 0. -1.
         11    1    3    3    0    0 -0.16496283354E+02 -0.96474833749E+01  0.28236539579E+02  0.34095505094E+02  0.51100000000E-03 0. -1.
        -11    1    3    3    0    0  0.24424667747E+01  0.52494302621E-01  0.52545279146E+01  0.57946926980E+01  0.51100000000E-03 0.  1.
         12    1    3    3    0    0  0.58405227083E+00 -0.64500841335E+01  0.45187334068E+01  0.78970661632E+01  0.00000000000E+00 0. -1.
</event>
<event>
 7    1  0.2751796E-010  0.4778726E+02  0.7816164E-02  0.1312668E+00
        -11   -1    0    0    0    0  0.00000000000E+00  0.00000000000E+00  0.45593999997E+02  0.45594000000E+02  0.51100000000E-03 0. -1.
         11   -1    0    0    0    0 -0.00000000000E+00 -0.00000000000E+00 -0.45593999997E+02  0.45594000000E+02  0.51100000000E-03 0.  1.
    9900012    2    1    2    0    0  0.93500791651E+01 -0.41973477200E+02 -0.58675013817E+01  0.47787258749E+02  0.19999943940E+02 0.  0.
         12    1    1    2    0    0 -0.93500791651E+01  0.41973477200E+02  0.58675013817E+01  0.43400741251E+02  0.00000000000E+00 0. -1.
         11    1    3    3    0    0  0.50369538606E+01 -0.24757955798E+02 -0.46269763059E+00  0.25269376108E+02  0.51100000000E-03 0. -1.
        -11    1    3    3    0    0  0.76293526101E+01 -0.52787384107E+01 -0.37997236178E+01  0.10025467585E+02  0.51100000000E-03 0.  1.
        -12    1    3    3    0    0 -0.33162273056E+01 -0.11936782991E+02 -0.16050801333E+01  0.12492415057E+02  0.00000000000E+00 0.  1.
</event>
<event>
 7    1  0.2751796E-010  0.4778727E+02  0.7816164E-02  0.1312668E+00
        -11   -1    0    0    0    0  0.00000000000E+00  0.00000000000E+00  0.45593999997E+02  0.45594000000E+02  0.51100000000E-03 0. -1.
         11   -1    0    0    0    0 -0.00000000000E+00 -0.00000000000E+00 -0.45593999997E+02  0.45594000000E+02  0.51100000000E-03 0.  1.
    9900012    2    1    2    0    0  0.43476328483E+01 -0.30880115922E+02 -0.30185093171E+02  0.47787270507E+02  0.19999997549E+02 0.  0.
         12    1    1    2    0    0 -0.43476328483E+01  0.30880115922E+02  0.30185093171E+02  0.43400729493E+02  0.00000000000E+00 0. -1.
         11    1    3    3    0    0  0.93649973684E+00  0.84984988167E+00  0.10438137558E+01  0.16397633965E+01  0.51100000000E-03 0. -1.
        -11    1    3    3    0    0  0.38255593630E+01 -0.24986064599E+02 -0.30085652461E+02  0.39294844609E+02  0.51100000000E-03 0.  1.
        -12    1    3    3    0    0 -0.41442625153E+00 -0.67439012048E+01 -0.11432544661E+01  0.68526625010E+01  0.00000000000E+00 0.  1.
</event>
<event>
 7    1  0.2751796E-010  0.4778726E+02  0.7816164E-02  0.1312668E+00
        -11   -1    0    0    0    0  0.00000000000E+00  0.00000000000E+00  0.45593999997E+02  0.45594000000E+02  0.51100000000E-03 0.  1.
         11   -1    0    0    0    0 -0.00000000000E+00 -0.00000000000E+00 -0.45593999997E+02  0.45594000000E+02  0.51100000000E-03 0. -1.
    9900012    2    1    2    0    0  0.42847150149E+01 -0.55178789228E+01  0.42834776342E+02  0.47787264582E+02  0.19999970534E+02 0.  0.
         12    1    1    2    0    0 -0.42847150149E+01  0.55178789228E+01 -0.42834776342E+02  0.43400735418E+02  0.00000000000E+00 0. -1.
         11    1    3    3    0    0  0.60580732949E+00  0.33007569628E+01  0.31792548878E+02  0.31969175208E+02  0.51100000000E-03 0. -1.
        -11    1    3    3    0    0  0.29917206611E+01 -0.67600822137E+01  0.11431201821E+02  0.13613283197E+02  0.51100000000E-03 0.  1.
         12    1    3    3    0    0  0.68718702433E+00 -0.20585536719E+01 -0.38897435764E+00  0.22048061768E+01  0.00000000000E+00 0. -1.
</event>
<event>
 7    1  0.2751796E-010  0.4778729E+02  0.7816164E-02  0.1312668E+00
        -11   -1    0    0    0    0  0.00000000000E+00  0.00000000000E+00  0.45593999997E+02  0.45594000000E+02  0.51100000000E-03 0.  1.
         11   -1    0    0    0    0 -0.00000000000E+00 -0.00000000000E+00 -0.45593999997E+02  0.45594000000E+02  0.51100000000E-03 0. -1.
    9900012    2    1    2    0    0 -0.32859064156E+02  0.34931200948E+01  0.28137188471E+02  0.47787293090E+02  0.20000100516E+02 0.  0.
         12    1    1    2    0    0  0.32859064156E+02 -0.34931200948E+01 -0.28137188471E+02  0.43400706910E+02  0.00000000000E+00 0. -1.
         11    1    3    3    0    0 -0.85963718082E+01  0.74971882000E+01  0.68244467524E+01  0.13292046980E+02  0.51100000000E-03 0. -1.
        -11    1    3    3    0    0 -0.11936707968E+02 -0.47618869837E+01  0.17216926926E+02  0.21484485979E+02  0.51100000000E-03 0.  1.
        -12    1    3    3    0    0 -0.12325984380E+02  0.75781887849E+00  0.40958147920E+01  0.13010760131E+02  0.00000000000E+00 0.  1.
</event>
<event>
 7    1  0.2751796E-010  0.4778727E+02  0.7816164E-02  0.1312668E+00
        -11   -1    0    0    0    0  0.00000000000E+00  0.00000000000E+00  0.45593999997E+02  0.45594000000E+02  0.51100000000E-03 0.  1.
         11   -1    0    0    0    0 -0.00000000000E+00 -0.00000000000E+00 -0.45593999997E+02  0.45594000000E+02  0.51100000000E-03 0. -1.
    9900012    2    1    2    0    0 -0.18616705971E+02  0.21279746810E+02  0.32927410013E+02  0.47787266185E+02  0.19999977845E+02 0.  0.
         12    1    1    2    0    0  0.18616705971E+02 -0.21279746810E+02 -0.32927410013E+02  0.43400733815E+02  0.00000000000E+00 0. -1.
         11    1    3    3    0    0  0.40359259598E+00  0.34307635144E+01  0.10932203507E+02  0.11464994508E+02  0.51100000000E-03 0. -1.
        -11    1    3    3    0    0 -0.82044652578E+01  0.18561058286E+01  0.22521010381E+01  0.87080616879E+01  0.51100000000E-03 0.  1.
        -12    1    3    3    0    0 -0.10815833309E+02  0.15992877467E+02  0.19743105468E+02  0.27614209990E+02  0.00000000000E+00 0.  1.
</event>
<event>
 7    1  0.2751796E-010  0.4778727E+02  0.7816164E-02  0.1312668E+00
        -11   -1    0    0    0    0  0.00000000000E+00  0.00000000000E+00  0.45593999997E+02  0.45594000000E+02  0.51100000000E-03 0.  1.
         11   -1    0    0    0    0 -0.00000000000E+00 -0.00000000000E+00 -0.45593999997E+02  0.45594000000E+02  0.51100000000E-03 0. -1.
    9900012    2    1    2    0    0 -0.27012051249E+02 -0.22513588997E+02  0.25438379152E+02  0.47787265720E+02  0.19999975723E+02 0.  0.
         12    1    1    2    0    0  0.27012051249E+02  0.22513588997E+02 -0.25438379152E+02  0.43400734280E+02  0.00000000000E+00 0. -1.
         11    1    3    3    0    0 -0.10556534101E+02  0.37699040864E+00  0.35724966245E+01  0.11151020867E+02  0.51100000000E-03 0. -1.
        -11    1    3    3    0    0 -0.71443642111E+01 -0.16534205751E+02  0.11889068463E+02  0.21581748052E+02  0.51100000000E-03 0.  1.
         12    1    3    3    0    0 -0.93111529373E+01 -0.63563736540E+01  0.99768140641E+01  0.15054496801E+02  0.00000000000E+00 0. -1.
</event>
<event>
 7    1  0.2751796E-010  0.4778727E+02  0.7816164E-02  0.1312668E+00
        -11   -1    0    0    0    0  0.00000000000E+00  0.00000000000E+00  0.45593999997E+02  0.45594000000E+02  0.51100000000E-03 0. -1.
         11   -1    0    0    0    0 -0.00000000000E+00 -0.00000000000E+00 -0.45593999997E+02  0.45594000000E+02  0.51100000000E-03 0.  1.
    9900012    2    1    2    0    0  0.14310786969E+02 -0.33031395242E+02  0.24243584136E+02  0.47787273427E+02  0.20000010863E+02 0.  0.
         12    1    1    2    0    0 -0.14310786969E+02  0.33031395242E+02 -0.24243584136E+02  0.43400726573E+02  0.00000000000E+00 0. -1.
         11    1    3    3    0    0  0.49038158210E+01 -0.10736531323E+02  0.17344753924E+02  0.20980014380E+02  0.51100000000E-03 0. -1.
        -11    1    3    3    0    0  0.10320605811E+02 -0.17360827587E+02  0.29274114499E+01  0.20407914564E+02  0.51100000000E-03 0.  1.
        -12    1    3    3    0    0 -0.91363466232E+00 -0.49340363322E+01  0.39714187619E+01  0.63993444826E+01  0.00000000000E+00 0.  1.
</event>
<event>
 7    1  0.2751796E-010  0.4778728E+02  0.7816164E-02  0.1312668E+00
        -11   -1    0    0    0    0  0.00000000000E+00  0.00000000000E+00  0.45593999997E+02  0.45594000000E+02  0.51100000000E-03 0.  1.
         11   -1    0    0    0    0 -0.00000000000E+00 -0.00000000000E+00 -0.45593999997E+02  0.45594000000E+02  0.51100000000E-03 0. -1.
    9900012    2    1    2    0    0 -0.22635253061E+01 -0.18066414407E+02  0.39396751387E+02  0.47787275395E+02  0.20000019838E+02 0.  0.
         12    1    1    2    0    0  0.22635253061E+01  0.18066414407E+02 -0.39396751387E+02  0.43400724605E+02  0.00000000000E+00 0. -1.
         11    1    3    3    0    0 -0.41231991871E+01 -0.27643767365E+01  0.17129848811E+01  0.52513681781E+01  0.51100000000E-03 0. -1.
        -11    1    3    3    0    0 -0.33170235281E+01 -0.21817297160E-01  0.40667100651E+01  0.52479759999E+01  0.51100000000E-03 0.  1.
         12    1    3    3    0    0  0.51766974091E+01 -0.15280220373E+02  0.33617056441E+02  0.37287931217E+02  0.00000000000E+00 0. -1.
</event>
<event>
 7    1  0.2751796E-010  0.4778727E+02  0.7816164E-02  0.1312668E+00
        -11   -1    0    0    0    0  0.00000000000E+00  0.00000000000E+00  0.45593999997E+02  0.45594000000E+02  0.51100000000E-03 0.  1.
         11   -1    0    0    0    0 -0.00000000000E+00 -0.00000000000E+00 -0.45593999997E+02  0.45594000000E+02  0.51100000000E-03 0. -1.
    9900012    2    1    2    0    0 -0.15430890467E+02  0.40171251861E+02  0.56375062387E+01  0.47787270360E+02  0.19999996880E+02 0.  0.
         12    1    1    2    0    0  0.15430890467E+02 -0.40171251861E+02 -0.56375062387E+01  0.43400729640E+02  0.00000000000E+00 0. -1.
         11    1    3    3    0    0  0.10856864718E+01  0.26150857968E+01  0.13754913811E+00  0.28348384198E+01  0.51100000000E-03 0. -1.
        -11    1    3    3    0    0 -0.33262791965E+01  0.19811796326E+02 -0.46560020901E+01  0.20621584873E+02  0.51100000000E-03 0.  1.
        -12    1    3    3    0    0 -0.13190297742E+02  0.17744369738E+02  0.10155959191E+02  0.24330847067E+02  0.00000000000E+00 0.  1.
</event>
<event>
 7    1  0.2751796E-010  0.4778727E+02  0.7816164E-02  0.1312668E+00
        -11   -1    0    0    0    0  0.00000000000E+00  0.00000000000E+00  0.45593999997E+02  0.45594000000E+02  0.51100000000E-03 0.  1.
         11   -1    0    0    0    0 -0.00000000000E+00 -0.00000000000E+00 -0.45593999997E+02  0.45594000000E+02  0.51100000000E-03 0. -1.
    9900012    2    1    2    0    0 -0.13175312499E+02 -0.40056861239E+02  0.10270466829E+02  0.47787268662E+02  0.19999989139E+02 0.  0.
         12    1    1    2    0    0  0.13175312499E+02  0.40056861239E+02 -0.10270466829E+02  0.43400731338E+02  0.00000000000E+00 0. -1.
         11    1    3    3    0    0  0.81823636545E+00 -0.21807766366E+01  0.57471510619E+01  0.62012130328E+01  0.51100000000E-03 0. -1.
        -11    1    3    3    0    0 -0.35424155680E+01 -0.33849066981E+01  0.24720402853E+01  0.54879217236E+01  0.51100000000E-03 0.  1.
         12    1    3    3    0    0 -0.10451133297E+02 -0.34491177904E+02  0.20512754817E+01  0.36098133906E+02  0.00000000000E+00 0. -1.
</event>
<event>
 7    1  0.2751796E-010  0.4778727E+02  0.7816164E-02  0.1312668E+00
        -11   -1    0    0    0    0  0.00000000000E+00  0.00000000000E+00  0.45593999997E+02  0.45594000000E+02  0.51100000000E-03 0.  1.
         11   -1    0    0    0    0 -0.00000000000E+00 -0.00000000000E+00 -0.45593999997E+02  0.45594000000E+02  0.51100000000E-03 0. -1.
    9900012    2    1    2    0    0 -0.28152443312E+02 -0.33028902270E+02  0.39405152713E+00  0.47787265833E+02  0.19999976240E+02 0.  0.
         12    1    1    2    0    0  0.28152443312E+02  0.33028902270E+02 -0.39405152713E+00  0.43400734167E+02  0.00000000000E+00 0. -1.
         11    1    3    3    0    0 -0.40282370993E+00  0.21791232624E+00  0.85589476209E+00  0.97072592842E+00  0.51100000000E-03 0. -1.
        -11    1    3    3    0    0 -0.34171085254E+01 -0.74101212538E+00  0.47297129101E+01  0.58818291472E+01  0.51100000000E-03 0.  1.
        -12    1    3    3    0    0 -0.24332511077E+02 -0.32505802471E+02 -0.51915561451E+01  0.40934710757E+02  0.00000000000E+00 0.  1.
</event>
<event>
 7    1  0.2751796E-010  0.4778727E+02  0.7816164E-02  0.1312668E+00
        -11   -1    0    0    0    0  0.00000000000E+00  0.00000000000E+00  0.45593999997E+02  0.45594000000E+02  0.51100000000E-03 0. -1.
         11   -1    0    0    0    0 -0.00000000000E+00 -0.00000000000E+00 -0.45593999997E+02  0.45594000000E+02  0.51100000000E-03 0.  1.
    9900012    2    1    2    0    0  0.34351536405E+02  0.17798612714E+02 -0.19667350220E+02  0.47787270368E+02  0.19999996917E+02 0.  0.
         12    1    1    2    0    0 -0.34351536405E+02 -0.17798612714E+02  0.19667350220E+02  0.43400729632E+02  0.00000000000E+00 0. -1.
         11    1    3    3    0    0  0.16476291954E+02  0.85899356999E+01 -0.18286901562E+02  0.26070403926E+02  0.51100000000E-03 0. -1.
        -11    1    3    3    0    0  0.10990640633E+02  0.96407347122E+01  0.27695213211E+00  0.14622402335E+02  0.51100000000E-03 0.  1.
        -12    1    3    3    0    0  0.68846038176E+01 -0.43205769860E+00 -0.16574007900E+01  0.70944641066E+01  0.00000000000E+00 0.  1.
</event>
<event>
 7    1  0.2751796E-010  0.4778727E+02  0.7816164E-02  0.1312668E+00
        -11   -1    0    0    0    0  0.00000000000E+00  0.00000000000E+00  0.45593999997E+02  0.45594000000E+02  0.51100000000E-03 0.  1.
         11   -1    0    0    0    0 -0.00000000000E+00 -0.00000000000E+00 -0.45593999997E+02  0.45594000000E+02  0.51100000000E-03 0. -1.
    9900012    2    1    2    0    0  0.19653962063E+02  0.16178591970E+02  0.35151083640E+02  0.47787265629E+02  0.19999975307E+02 0.  0.
         12    1    1    2    0    0 -0.19653962063E+02 -0.16178591970E+02 -0.35151083640E+02  0.43400734371E+02  0.00000000000E+00 0. -1.
         11    1    3    3    0    0  0.56039890452E+00 -0.19095245796E+00 -0.55985698015E+00  0.81483119278E+00  0.51100000000E-03 0. -1.
        -11    1    3    3    0    0  0.21054282990E+02  0.11489142837E+02  0.23062491796E+02  0.33274040384E+02  0.51100000000E-03 0.  1.
        -12    1    3    3    0    0 -0.19607198316E+01  0.48804015908E+01  0.12648448824E+02  0.13698394052E+02  0.00000000000E+00 0.  1.
</event>
<event>
 7    1  0.2751796E-010  0.4778727E+02  0.7816164E-02  0.1312668E+00
        -11   -1    0    0    0    0  0.00000000000E+00  0.00000000000E+00  0.45593999997E+02  0.45594000000E+02  0.51100000000E-03 0. -1.
         11   -1    0    0    0    0 -0.00000000000E+00 -0.00000000000E+00 -0.45593999997E+02  0.45594000000E+02  0.51100000000E-03 0.  1.
    9900012    2    1    2    0    0 -0.30140598009E+02  0.29405094721E+02  0.10512282350E+02  0.47787270466E+02  0.19999997363E+02 0.  0.
         12    1    1    2    0    0  0.30140598009E+02 -0.29405094721E+02 -0.10512282350E+02  0.43400729534E+02  0.00000000000E+00 0. -1.
         11    1    3    3    0    0 -0.19118526104E+02  0.21073939834E+02  0.12321518132E+02  0.31007237701E+02  0.51100000000E-03 0. -1.
        -11    1    3    3    0    0 -0.87210291758E+01  0.28329241033E+01 -0.45306382087E+01  0.10227829276E+02  0.51100000000E-03 0.  1.
        -12    1    3    3    0    0 -0.23010427292E+01  0.54982307838E+01  0.27214024266E+01  0.65522034890E+01  0.00000000000E+00 0.  1.
</event>
<event>
 7    1  0.2751796E-010  0.4778725E+02  0.7816164E-02  0.1312668E+00
        -11   -1    0    0    0    0  0.00000000000E+00  0.00000000000E+00  0.45593999997E+02  0.45594000000E+02  0.51100000000E-03 0.  1.
         11   -1    0    0    0    0 -0.00000000000E+00 -0.00000000000E+00 -0.45593999997E+02  0.45594000000E+02  0.51100000000E-03 0. -1.
    9900012    2    1    2    0    0 -0.24043319874E+02 -0.36094102026E+02 -0.16611360620E+01  0.47787253409E+02  0.19999919592E+02 0.  0.
         12    1    1    2    0    0  0.24043319874E+02  0.36094102026E+02  0.16611360620E+01  0.43400746591E+02  0.00000000000E+00 0. -1.
         11    1    3    3    0    0 -0.11113256370E+02 -0.12518290720E+02  0.52674532160E+01  0.17548735947E+02  0.51100000000E-03 0.  1.
        -11    1    3    3    0    0 -0.13838303425E+02 -0.14643752089E+02 -0.67835622366E+01  0.21259229379E+02  0.51100000000E-03 0. -1.
         12    1    3    3    0    0  0.90823992105E+00 -0.89320592177E+01 -0.14502704132E+00  0.89792880823E+01  0.00000000000E+00 0. -1.
</event>
<event>
 7    1  0.2751796E-010  0.4778727E+02  0.7816164E-02  0.1312668E+00
        -11   -1    0    0    0    0  0.00000000000E+00  0.00000000000E+00  0.45593999997E+02  0.45594000000E+02  0.51100000000E-03 0. -1.
         11   -1    0    0    0    0 -0.00000000000E+00 -0.00000000000E+00 -0.45593999997E+02  0.45594000000E+02  0.51100000000E-03 0.  1.
    9900012    2    1    2    0    0 -0.25451666872E+02 -0.27492020435E+02 -0.21909464390E+02  0.47787272310E+02  0.20000005771E+02 0.  0.
         12    1    1    2    0    0  0.25451666872E+02  0.27492020435E+02  0.21909464390E+02  0.43400727690E+02  0.00000000000E+00 0. -1.
         11    1    3    3    0    0 -0.16087460546E+02 -0.82176442698E+01 -0.98817256608E+01  0.20590885519E+02  0.51100000000E-03 0. -1.
        -11    1    3    3    0    0  0.20779850156E+01 -0.70147220191E+01 -0.56930306409E+01  0.92701102944E+01  0.51100000000E-03 0.  1.
        -12    1    3    3    0    0 -0.11442191341E+02 -0.12259654146E+02 -0.63347080880E+01  0.17926276496E+02  0.00000000000E+00 0.  1.
</event>
<event>
 7    1  0.2751796E-010  0.4778727E+02  0.7816164E-02  0.1312668E+00
        -11   -1    0    0    0    0  0.00000000000E+00  0.00000000000E+00  0.45593999997E+02  0.45594000000E+02  0.51100000000E-03 0. -1.
         11   -1    0    0    0    0 -0.00000000000E+00 -0.00000000000E+00 -0.45593999997E+02  0.45594000000E+02  0.51100000000E-03 0.  1.
    9900012    2    1    2    0    0 -0.40662808537E+02  0.58546912905E+01 -0.13995772543E+02  0.47787273539E+02  0.20000011375E+02 0.  0.
         12    1    1    2    0    0  0.40662808537E+02 -0.58546912905E+01  0.13995772543E+02  0.43400726461E+02  0.00000000000E+00 0. -1.
         11    1    3    3    0    0 -0.40709505875E+01  0.93101659812E+00  0.32177500459E+01  0.52719395112E+01  0.51100000000E-03 0. -1.
        -11    1    3    3    0    0 -0.19646061751E+02  0.27758038540E+01 -0.15822093346E+02  0.25377381021E+02  0.51100000000E-03 0.  1.
        -12    1    3    3    0    0 -0.16945796198E+02  0.21478708383E+01 -0.13914292429E+01  0.17137953007E+02  0.00000000000E+00 0.  1.
</event>
<event>
 7    1  0.2751796E-010  0.4778727E+02  0.7816164E-02  0.1312668E+00
        -11   -1    0    0    0    0  0.00000000000E+00  0.00000000000E+00  0.45593999997E+02  0.45594000000E+02  0.51100000000E-03 0.  1.
         11   -1    0    0    0    0 -0.00000000000E+00 -0.00000000000E+00 -0.45593999997E+02  0.45594000000E+02  0.51100000000E-03 0. -1.
    9900012    2    1    2    0    0  0.12070033140E+02 -0.34126110259E+02  0.23944646982E+02  0.47787271659E+02  0.20000002804E+02 0.  0.
         12    1    1    2    0    0 -0.12070033140E+02  0.34126110259E+02 -0.23944646982E+02  0.43400728341E+02  0.00000000000E+00 0. -1.
         11    1    3    3    0    0 -0.22171638578E+01 -0.13075240902E+02  0.93144587725E+01  0.16206075487E+02  0.51100000000E-03 0. -1.
        -11    1    3    3    0    0  0.12245858381E+02 -0.20083221672E+02  0.16430525638E+02  0.28692490537E+02  0.51100000000E-03 0.  1.
         12    1    3    3    0    0  0.20413386173E+01 -0.96764768461E+00 -0.18003374281E+01  0.28887056352E+01  0.00000000000E+00 0. -1.
</event>
<event>
 7    1  0.2751796E-010  0.4778727E+02  0.7816164E-02  0.1312668E+00
        -11   -1    0    0    0    0  0.00000000000E+00  0.00000000000E+00  0.45593999997E+02  0.45594000000E+02  0.51100000000E-03 0.  1.
         11   -1    0    0    0    0 -0.00000000000E+00 -0.00000000000E+00 -0.45593999997E+02  0.45594000000E+02  0.51100000000E-03 0. -1.
    9900012    2    1    2    0    0  0.38691367952E+02  0.99516906879E+01 -0.16957742539E+02  0.47787272661E+02  0.20000007369E+02 0.  0.
         12    1    1    2    0    0 -0.38691367952E+02 -0.99516906879E+01  0.16957742539E+02  0.43400727339E+02  0.00000000000E+00 0. -1.
         11    1    3    3    0    0  0.13275644095E+02  0.11889794722E+02 -0.51616173522E+01  0.18554035642E+02  0.51100000000E-03 0. -1.
        -11    1    3    3    0    0  0.11427763767E+02  0.31160144038E+01 -0.45482195759E+01  0.12688168980E+02  0.51100000000E-03 0.  1.
         12    1    3    3    0    0  0.13987960090E+02 -0.50541184376E+01 -0.72479056106E+01  0.16545068039E+02  0.00000000000E+00 0. -1.
</event>
<event>
 7    1  0.2751796E-010  0.4778727E+02  0.7816164E-02  0.1312668E+00
        -11   -1    0    0    0    0  0.00000000000E+00  0.00000000000E+00  0.45593999997E+02  0.45594000000E+02  0.51100000000E-03 0.  1.
         11   -1    0    0    0    0 -0.00000000000E+00 -0.00000000000E+00 -0.45593999997E+02  0.45594000000E+02  0.51100000000E-03 0. -1.
    9900012    2    1    2    0    0  0.25220838450E+01  0.35896135678E+02  0.24263753715E+02  0.47787271804E+02  0.20000003464E+02 0.  0.
         12    1    1    2    0    0 -0.25220838450E+01 -0.35896135678E+02 -0.24263753715E+02  0.43400728196E+02  0.00000000000E+00 0. -1.
         11    1    3    3    0    0  0.36534913940E+01  0.16693771245E+02  0.23818410352E+01  0.17254076757E+02  0.51100000000E-03 0. -1.
        -11    1    3    3    0    0 -0.41508892557E+01  0.47632318576E+01  0.46213317182E+01  0.78278328069E+01  0.51100000000E-03 0.  1.
         12    1    3    3    0    0  0.30194817067E+01  0.14439132575E+02  0.17260580962E+02  0.22705362240E+02  0.00000000000E+00 0. -1.
</event>
<event>
 7    1  0.2751796E-010  0.4778727E+02  0.7816164E-02  0.1312668E+00
        -11   -1    0    0    0    0  0.00000000000E+00  0.00000000000E+00  0.45593999997E+02  0.45594000000E+02  0.51100000000E-03 0.  1.
         11   -1    0    0    0    0 -0.00000000000E+00 -0.00000000000E+00 -0.45593999997E+02  0.45594000000E+02  0.51100000000E-03 0. -1.
    9900012    2    1    2    0    0 -0.34102149658E+01 -0.31265728297E+02  0.29907323902E+02  0.47787270109E+02  0.19999995737E+02 0.  0.
         12    1    1    2    0    0  0.34102149658E+01  0.31265728297E+02 -0.29907323902E+02  0.43400729891E+02  0.00000000000E+00 0. -1.
         11    1    3    3    0    0  0.49368551934E+01 -0.38687420245E+01  0.27149204232E+00  0.62780102137E+01  0.51100000000E-03 0. -1.
        -11    1    3    3    0    0 -0.75802264585E+01 -0.21764927264E+02  0.21055875117E+02  0.31217331231E+02  0.51100000000E-03 0.  1.
         12    1    3    3    0    0 -0.76684370064E+00 -0.56320590088E+01  0.85799567429E+01  0.10291928665E+02  0.00000000000E+00 0. -1.
</event>
<event>
 7    1  0.2751796E-010  0.4778727E+02  0.7816164E-02  0.1312668E+00
        -11   -1    0    0    0    0  0.00000000000E+00  0.00000000000E+00  0.45593999997E+02  0.45594000000E+02  0.51100000000E-03 0.  1.
         11   -1    0    0    0    0 -0.00000000000E+00 -0.00000000000E+00 -0.45593999997E+02  0.45594000000E+02  0.51100000000E-03 0. -1.
    9900012    2    1    2    0    0  0.11565837006E+02  0.32762700856E+02  0.26008847821E+02  0.47787270536E+02  0.19999997681E+02 0.  0.
         12    1    1    2    0    0 -0.11565837006E+02 -0.32762700856E+02 -0.26008847821E+02  0.43400729464E+02  0.00000000000E+00 0. -1.
         11    1    3    3    0    0  0.74887453920E+01  0.68720559024E+01  0.26420422345E+01  0.10501754487E+02  0.51100000000E-03 0.  1.
        -11    1    3    3    0    0  0.35403832140E+01  0.20689203477E+02  0.24151391617E+02  0.31997924481E+02  0.51100000000E-03 0. -1.
         12    1    3    3    0    0  0.53670839962E+00  0.52014414773E+01 -0.78458603037E+00  0.52875915677E+01  0.00000000000E+00 0. -1.
</event>
<event>
 7    1  0.2751796E-010  0.4778727E+02  0.7816164E-02  0.1312668E+00
        -11   -1    0    0    0    0  0.00000000000E+00  0.00000000000E+00  0.45593999997E+02  0.45594000000E+02  0.51100000000E-03 0.  1.
         11   -1    0    0    0    0 -0.00000000000E+00 -0.00000000000E+00 -0.45593999997E+02  0.45594000000E+02  0.51100000000E-03 0. -1.
    9900012    2    1    2    0    0 -0.21842334876E+02  0.35477519218E+02  0.12160662124E+02  0.47787266527E+02  0.19999979403E+02 0.  0.
         12    1    1    2    0    0  0.21842334876E+02 -0.35477519218E+02 -0.12160662124E+02  0.43400733473E+02  0.00000000000E+00 0. -1.
         11    1    3    3    0    0 -0.83859018242E+00  0.16694307757E+02  0.45109771439E+01  0.17313349186E+02  0.51100000000E-03 0. -1.
        -11    1    3    3    0    0 -0.10032695648E+02  0.42922752492E+01  0.53506693533E+01  0.12153529182E+02  0.51100000000E-03 0.  1.
         12    1    3    3    0    0 -0.10971049045E+02  0.14490936213E+02  0.22990156266E+01  0.18320388160E+02  0.00000000000E+00 0. -1.
</event>
<event>
 7    1  0.2751796E-010  0.4778727E+02  0.7816164E-02  0.1312668E+00
        -11   -1    0    0    0    0  0.00000000000E+00  0.00000000000E+00  0.45593999997E+02  0.45594000000E+02  0.51100000000E-03 0. -1.
         11   -1    0    0    0    0 -0.00000000000E+00 -0.00000000000E+00 -0.45593999997E+02  0.45594000000E+02  0.51100000000E-03 0.  1.
    9900012    2    1    2    0    0  0.36952276211E+02  0.21937146073E+02  0.60757223614E+01  0.47787268471E+02  0.19999988268E+02 0.  0.
         12    1    1    2    0    0 -0.36952276211E+02 -0.21937146073E+02 -0.60757223614E+01  0.43400731529E+02  0.00000000000E+00 0. -1.
         11    1    3    3    0    0 -0.12330358828E+01  0.32469708456E+00  0.22733105908E+01  0.26064817261E+01  0.51100000000E-03 0. -1.
        -11    1    3    3    0    0  0.22821444419E+02  0.84345703186E+01 -0.10975327467E+01  0.24354976498E+02  0.51100000000E-03 0.  1.
         12    1    3    3    0    0  0.15363867675E+02  0.13177878670E+02  0.48999445173E+01  0.20825810247E+02  0.00000000000E+00 0. -1.
</event>
<event>
 7    1  0.2751796E-010  0.4778727E+02  0.7816164E-02  0.1312668E+00
        -11   -1    0    0    0    0  0.00000000000E+00  0.00000000000E+00  0.45593999997E+02  0.45594000000E+02  0.51100000000E-03 0.  1.
         11   -1    0    0    0    0 -0.00000000000E+00 -0.00000000000E+00 -0.45593999997E+02  0.45594000000E+02  0.51100000000E-03 0. -1.
    9900012    2    1    2    0    0 -0.19433282726E+02 -0.26947259928E+02  0.27925183413E+02  0.47787272313E+02  0.20000005784E+02 0.  0.
         12    1    1    2    0    0  0.19433282726E+02  0.26947259928E+02 -0.27925183413E+02  0.43400727687E+02  0.00000000000E+00 0. -1.
         11    1    3    3    0    0 -0.67646107196E+01 -0.92535558373E+01  0.44833380930E+01  0.12308069489E+02  0.51100000000E-03 0. -1.
        -11    1    3    3    0    0 -0.94473669549E+00 -0.91132658282E+01  0.17557671997E+02  0.19804443635E+02  0.51100000000E-03 0.  1.
        -12    1    3    3    0    0 -0.11723935310E+02 -0.85804382624E+01  0.58841733225E+01  0.15674759189E+02  0.00000000000E+00 0.  1.
</event>
<event>
 7    1  0.2751796E-010  0.4778727E+02  0.7816164E-02  0.1312668E+00
        -11   -1    0    0    0    0  0.00000000000E+00  0.00000000000E+00  0.45593999997E+02  0.45594000000E+02  0.51100000000E-03 0.  1.
         11   -1    0    0    0    0 -0.00000000000E+00 -0.00000000000E+00 -0.45593999997E+02  0.45594000000E+02  0.51100000000E-03 0. -1.
    9900012    2    1    2    0    0  0.19664365435E+02 -0.20940072624E+02  0.32533822109E+02  0.47787268549E+02  0.19999988624E+02 0.  0.
         12    1    1    2    0    0 -0.19664365435E+02  0.20940072624E+02 -0.32533822109E+02  0.43400731451E+02  0.00000000000E+00 0. -1.
         11    1    3    3    0    0  0.14607598563E+02 -0.18296648000E+02  0.14683504043E+02  0.27636109622E+02  0.51100000000E-03 0. -1.
        -11    1    3    3    0    0  0.61824080873E+01 -0.12971471306E+01  0.17123843493E+02  0.18251870498E+02  0.51100000000E-03 0.  1.
         12    1    3    3    0    0 -0.11256412150E+01 -0.13462774926E+01  0.72647457273E+00  0.18992884291E+01  0.00000000000E+00 0. -1.
</event>
<event>
 7    1  0.2751796E-010  0.4778727E+02  0.7816164E-02  0.1312668E+00
        -11   -1    0    0    0    0  0.00000000000E+00  0.00000000000E+00  0.45593999997E+02  0.45594000000E+02  0.51100000000E-03 0.  1.
         11   -1    0    0    0    0 -0.00000000000E+00 -0.00000000000E+00 -0.45593999997E+02  0.45594000000E+02  0.51100000000E-03 0. -1.
    9900012    2    1    2    0    0 -0.37465886424E+02  0.56115709504E+01  0.21176427646E+02  0.47787268878E+02  0.19999990122E+02 0.  0.
         12    1    1    2    0    0  0.37465886424E+02 -0.56115709504E+01 -0.21176427646E+02  0.43400731122E+02  0.00000000000E+00 0. -1.
         11    1    3    3    0    0 -0.58287666721E+00  0.72615418257E+00  0.64646455369E+01  0.65313618247E+01  0.51100000000E-03 0. -1.
        -11    1    3    3    0    0 -0.30477923435E+02  0.45235772363E+01  0.77145333804E+01  0.31762880749E+02  0.51100000000E-03 0.  1.
        -12    1    3    3    0    0 -0.64050863218E+01  0.36183953153E+00  0.69972487291E+01  0.94930263043E+01  0.00000000000E+00 0.  1.
</event>
<event>
 7    1  0.2751796E-010  0.4778727E+02  0.7816164E-02  0.1312668E+00
        -11   -1    0    0    0    0  0.00000000000E+00  0.00000000000E+00  0.45593999997E+02  0.45594000000E+02  0.51100000000E-03 0.  1.
         11   -1    0    0    0    0 -0.00000000000E+00 -0.00000000000E+00 -0.45593999997E+02  0.45594000000E+02  0.51100000000E-03 0. -1.
    9900012    2    1    2    0    0 -0.42325889089E+02 -0.60179107238E+01  0.74784480377E+01  0.47787270493E+02  0.19999997485E+02 0.  0.
         12    1    1    2    0    0  0.42325889089E+02  0.60179107238E+01 -0.74784480377E+01  0.43400729507E+02  0.00000000000E+00 0. -1.
         11    1    3    3    0    0 -0.92575236380E+01 -0.19881381893E+01 -0.32586764895E+01  0.10013661173E+02  0.51100000000E-03 0. -1.
        -11    1    3    3    0    0 -0.23355965705E+02 -0.23272649001E+01  0.14069252939E+02  0.27365327961E+02  0.51100000000E-03 0.  1.
        -12    1    3    3    0    0 -0.97123997468E+01 -0.17025076344E+01 -0.33321284113E+01  0.10408281358E+02  0.00000000000E+00 0.  1.
</event>
<event>
 7    1  0.2751796E-010  0.4778725E+02  0.7816164E-02  0.1312668E+00
        -11   -1    0    0    0    0  0.00000000000E+00  0.00000000000E+00  0.45593999997E+02  0.45594000000E+02  0.51100000000E-03 0. -1.
         11   -1    0    0    0    0 -0.00000000000E+00 -0.00000000000E+00 -0.45593999997E+02  0.45594000000E+02  0.51100000000E-03 0.  1.
    9900012    2    1    2    0    0 -0.22007720141E+02 -0.36184196922E+02 -0.94862713570E+01  0.47787248889E+02  0.19999898985E+02 0.  0.
         12    1    1    2    0    0  0.22007720141E+02  0.36184196922E+02  0.94862713570E+01  0.43400751111E+02  0.00000000000E+00 0. -1.
         11    1    3    3    0    0 -0.54358295543E+01 -0.13317254495E+02 -0.64731756482E+01  0.15773379900E+02  0.51100000000E-03 0.  1.
        -11    1    3    3    0    0  0.17333048898E+01 -0.71455653055E+01 -0.28438511718E+01  0.78835866916E+01  0.51100000000E-03 0. -1.
        -12    1    3    3    0    0 -0.18305195477E+02 -0.15721377122E+02 -0.16924453707E+00  0.24130282298E+02  0.00000000000E+00 0.  1.
</event>
<event>
 7    1  0.2751796E-010  0.4778730E+02  0.7816164E-02  0.1312668E+00
        -11   -1    0    0    0    0  0.00000000000E+00  0.00000000000E+00  0.45593999997E+02  0.45594000000E+02  0.51100000000E-03 0. -1.
         11   -1    0    0    0    0 -0.00000000000E+00 -0.00000000000E+00 -0.45593999997E+02  0.45594000000E+02  0.51100000000E-03 0.  1.
    9900012    2    1    2    0    0 -0.25923692139E+02 -0.34805266436E+02  0.41949478801E+00  0.47787304595E+02  0.20000152969E+02 0.  0.
         12    1    1    2    0    0  0.25923692139E+02  0.34805266436E+02 -0.41949478801E+00  0.43400695405E+02  0.00000000000E+00 0. -1.
         11    1    3    3    0    0 -0.21670524846E+01 -0.36432158624E+01  0.23838381324E+01  0.48633139724E+01  0.51100000000E-03 0. -1.
        -11    1    3    3    0    0 -0.16355336538E+02 -0.15096066120E+02  0.66769695863E+01  0.23237258201E+02  0.51100000000E-03 0.  1.
        -12    1    3    3    0    0 -0.74013031161E+01 -0.16065984453E+02 -0.86413129307E+01  0.19686732421E+02  0.00000000000E+00 0.  1.
</event>
<event>
 7    1  0.2751796E-010  0.4778727E+02  0.7816164E-02  0.1312668E+00
        -11   -1    0    0    0    0  0.00000000000E+00  0.00000000000E+00  0.45593999997E+02  0.45594000000E+02  0.51100000000E-03 0.  1.
         11   -1    0    0    0    0 -0.00000000000E+00 -0.00000000000E+00 -0.45593999997E+02  0.45594000000E+02  0.51100000000E-03 0. -1.
    9900012    2    1    2    0    0  0.18327116832E+02  0.80252468157E+01  0.38514092545E+02  0.47787272789E+02  0.20000007956E+02 0.  0.
         12    1    1    2    0    0 -0.18327116832E+02 -0.80252468157E+01 -0.38514092545E+02  0.43400727211E+02  0.00000000000E+00 0. -1.
         11    1    3    3    0    0  0.21681487290E+01 -0.57590092432E+01  0.11671455804E+02  0.13194314579E+02  0.51100000000E-03 0. -1.
        -11    1    3    3    0    0  0.10731474390E+02  0.11625776251E+02  0.21364411470E+02  0.26584982485E+02  0.51100000000E-03 0.  1.
         12    1    3    3    0    0  0.54274937135E+01  0.21584798078E+01  0.54782252718E+01  0.80079757254E+01  0.00000000000E+00 0. -1.
</event>
<event>
 7    1  0.2751796E-010  0.4778727E+02  0.7816164E-02  0.1312668E+00
        -11   -1    0    0    0    0  0.00000000000E+00  0.00000000000E+00  0.45593999997E+02  0.45594000000E+02  0.51100000000E-03 0.  1.
         11   -1    0    0    0    0 -0.00000000000E+00 -0.00000000000E+00 -0.45593999997E+02  0.45594000000E+02  0.51100000000E-03 0. -1.
    9900012    2    1    2    0    0 -0.17072533184E+02 -0.11932175215E+02  0.38075908351E+02  0.47787274298E+02  0.20000014833E+02 0.  0.
         12    1    1    2    0    0  0.17072533184E+02  0.11932175215E+02 -0.38075908351E+02  0.43400725702E+02  0.00000000000E+00 0. -1.
         11    1    3    3    0    0 -0.13265203287E+02  0.26147494290E+01  0.20907199335E+02  0.24898062518E+02  0.51100000000E-03 0. -1.
        -11    1    3    3    0    0 -0.15928230009E+01 -0.53904832837E+01  0.76918835755E+01  0.95267763879E+01  0.51100000000E-03 0.  1.
         12    1    3    3    0    0 -0.22145068964E+01 -0.91564413607E+01  0.94768254406E+01  0.13362435392E+02  0.00000000000E+00 0. -1.
</event>
<event>
 7    1  0.2751796E-010  0.4778727E+02  0.7816164E-02  0.1312668E+00
        -11   -1    0    0    0    0  0.00000000000E+00  0.00000000000E+00  0.45593999997E+02  0.45594000000E+02  0.51100000000E-03 0.  1.
         11   -1    0    0    0    0 -0.00000000000E+00 -0.00000000000E+00 -0.45593999997E+02  0.45594000000E+02  0.51100000000E-03 0. -1.
    9900012    2    1    2    0    0  0.71204668822E+01  0.65536804279E+01  0.42308055032E+02  0.47787270785E+02  0.19999998817E+02 0.  0.
         12    1    1    2    0    0 -0.71204668822E+01 -0.65536804279E+01 -0.42308055032E+02  0.43400729215E+02  0.00000000000E+00 0. -1.
         11    1    3    3    0    0 -0.70116365568E+00  0.28503652306E+01 -0.57848371955E+00  0.29917981374E+01  0.51100000000E-03 0. -1.
        -11    1    3    3    0    0  0.57733255107E+01  0.22394454451E+01  0.41423105884E+02  0.41883410853E+02  0.51100000000E-03 0.  1.
        -12    1    3    3    0    0  0.20483050272E+01  0.14638697522E+01  0.14634328676E+01  0.29120617943E+01  0.00000000000E+00 0.  1.
</event>
<event>
 7    1  0.2751796E-010  0.4778727E+02  0.7816164E-02  0.1312668E+00
        -11   -1    0    0    0    0  0.00000000000E+00  0.00000000000E+00  0.45593999997E+02  0.45594000000E+02  0.51100000000E-03 0.  1.
         11   -1    0    0    0    0 -0.00000000000E+00 -0.00000000000E+00 -0.45593999997E+02  0.45594000000E+02  0.51100000000E-03 0. -1.
    9900012    2    1    2    0    0  0.81162843194E+00  0.41026646025E+02  0.14134312079E+02  0.47787271864E+02  0.20000003737E+02 0.  0.
         12    1    1    2    0    0 -0.81162843194E+00 -0.41026646025E+02 -0.14134312079E+02  0.43400728136E+02  0.00000000000E+00 0. -1.
         11    1    3    3    0    0 -0.34615690613E+01  0.14217590833E+02  0.31733167956E+01  0.14973052100E+02  0.51100000000E-03 0. -1.
        -11    1    3    3    0    0 -0.46180930405E+01  0.81430801290E+01  0.71754906106E+01  0.11795092330E+02  0.51100000000E-03 0.  1.
        -12    1    3    3    0    0  0.88912905338E+01  0.18665975063E+02  0.37855046726E+01  0.21019127433E+02  0.00000000000E+00 0.  1.
</event>
<event>
 7    1  0.2751796E-010  0.4778726E+02  0.7816164E-02  0.1312668E+00
        -11   -1    0    0    0    0  0.00000000000E+00  0.00000000000E+00  0.45593999997E+02  0.45594000000E+02  0.51100000000E-03 0.  1.
         11   -1    0    0    0    0 -0.00000000000E+00 -0.00000000000E+00 -0.45593999997E+02  0.45594000000E+02  0.51100000000E-03 0. -1.
    9900012    2    1    2    0    0  0.24911661369E+02  0.13434044904E+02  0.32902281053E+02  0.47787256537E+02  0.19999933854E+02 0.  0.
         12    1    1    2    0    0 -0.24911661369E+02 -0.13434044904E+02 -0.32902281053E+02  0.43400743463E+02  0.00000000000E+00 0. -1.
         11    1    3    3    0    0  0.11196647857E+02  0.12407469848E+02  0.21472368963E+02  0.27209793464E+02  0.51100000000E-03 0. -1.
        -11    1    3    3    0    0  0.65261537123E+01 -0.31966432791E+01  0.11758291369E+01  0.73615069755E+01  0.51100000000E-03 0.  1.
         12    1    3    3    0    0  0.71888598003E+01  0.42232183356E+01  0.10254082953E+02  0.13215956097E+02  0.00000000000E+00 0. -1.
</event>
<event>
 7    1  0.2751796E-010  0.4778727E+02  0.7816164E-02  0.1312668E+00
        -11   -1    0    0    0    0  0.00000000000E+00  0.00000000000E+00  0.45593999997E+02  0.45594000000E+02  0.51100000000E-03 0. -1.
         11   -1    0    0    0    0 -0.00000000000E+00 -0.00000000000E+00 -0.45593999997E+02  0.45594000000E+02  0.51100000000E-03 0.  1.
    9900012    2    1    2    0    0 -0.12472550653E+02 -0.41423226960E+02 -0.34892727508E+01  0.47787271021E+02  0.19999999892E+02 0.  0.
         12    1    1    2    0    0  0.12472550653E+02  0.41423226960E+02  0.34892727508E+01  0.43400728979E+02  0.00000000000E+00 0. -1.
         11    1    3    3    0    0  0.31429224192E+01 -0.13450125906E+01 -0.10657013993E+01  0.35808853564E+01  0.51100000000E-03 0. -1.
        -11    1    3    3    0    0 -0.13639906268E+02 -0.28697419537E+02  0.20010144876E+01  0.31836975207E+02  0.51100000000E-03 0.  1.
         12    1    3    3    0    0 -0.19755668046E+01 -0.11380794832E+02 -0.44245858390E+01  0.12369410457E+02  0.00000000000E+00 0. -1.
</event>
<event>
 7    1  0.2751796E-010  0.4778726E+02  0.7816164E-02  0.1312668E+00
        -11   -1    0    0    0    0  0.00000000000E+00  0.00000000000E+00  0.45593999997E+02  0.45594000000E+02  0.51100000000E-03 0.  1.
         11   -1    0    0    0    0 -0.00000000000E+00 -0.00000000000E+00 -0.45593999997E+02  0.45594000000E+02  0.51100000000E-03 0. -1.
    9900012    2    1    2    0    0 -0.25397939300E+02  0.30954246037E+02  0.16745244792E+02  0.47787263928E+02  0.19999967553E+02 0.  0.
         12    1    1    2    0    0  0.25397939300E+02 -0.30954246037E+02 -0.16745244792E+02  0.43400736072E+02  0.00000000000E+00 0. -1.
         11    1    3    3    0    0 -0.92684133775E+00  0.13507827912E+02  0.28600031009E+01  0.13838354951E+02  0.51100000000E-03 0. -1.
        -11    1    3    3    0    0 -0.23377957154E+02  0.13868963985E+02  0.12856044996E+02  0.30069169192E+02  0.51100000000E-03 0.  1.
        -12    1    3    3    0    0 -0.10931408086E+01  0.35774541406E+01  0.10291966955E+01  0.38797397842E+01  0.00000000000E+00 0.  1.
</event>
<event>
 7    1  0.2751796E-010  0.4778728E+02  0.7816164E-02  0.1312668E+00
        -11   -1    0    0    0    0  0.00000000000E+00  0.00000000000E+00  0.45593999997E+02  0.45594000000E+02  0.51100000000E-03 0. -1.
         11   -1    0    0    0    0 -0.00000000000E+00 -0.00000000000E+00 -0.45593999997E+02  0.45594000000E+02  0.51100000000E-03 0.  1.
    9900012    2    1    2    0    0  0.25854300280E+02  0.30003936810E+02 -0.17746592549E+02  0.47787278645E+02  0.20000034652E+02 0.  0.
         12    1    1    2    0    0 -0.25854300280E+02 -0.30003936810E+02  0.17746592549E+02  0.43400721355E+02  0.00000000000E+00 0. -1.
         11    1    3    3    0    0  0.17359190445E+02  0.22732719541E+02 -0.77362675266E+01  0.29630522542E+02  0.51100000000E-03 0. -1.
        -11    1    3    3    0    0  0.79484472437E+01  0.71091756492E+00 -0.79363979423E+01  0.11254760323E+02  0.51100000000E-03 0.  1.
        -12    1    3    3    0    0  0.54666259132E+00  0.65602997045E+01 -0.20739270797E+01  0.69019957790E+01  0.00000000000E+00 0.  1.
</event>
<event>
 7    1  0.2751796E-010  0.4778727E+02  0.7816164E-02  0.1312668E+00
        -11   -1    0    0    0    0  0.00000000000E+00  0.00000000000E+00  0.45593999997E+02  0.45594000000E+02  0.51100000000E-03 0.  1.
         11   -1    0    0    0    0 -0.00000000000E+00 -0.00000000000E+00 -0.45593999997E+02  0.45594000000E+02  0.51100000000E-03 0. -1.
    9900012    2    1    2    0    0 -0.25978784935E+02  0.14175695108E+02  0.31745482298E+02  0.47787271379E+02  0.20000001527E+02 0.  0.
         12    1    1    2    0    0  0.25978784935E+02 -0.14175695108E+02 -0.31745482298E+02  0.43400728621E+02  0.00000000000E+00 0. -1.
         11    1    3    3    0    0 -0.88851419147E+01 -0.33499823263E+01  0.10764317089E+02  0.14354046506E+02  0.51100000000E-03 0. -1.
        -11    1    3    3    0    0 -0.15222279162E+02  0.98797068997E+01  0.15080510075E+02  0.23595511770E+02  0.51100000000E-03 0.  1.
         12    1    3    3    0    0 -0.18713638587E+01  0.76459705346E+01  0.59006551334E+01  0.98377131037E+01  0.00000000000E+00 0. -1.
</event>
<event>
 7    1  0.2751796E-010  0.4778723E+02  0.7816164E-02  0.1312668E+00
        -11   -1    0    0    0    0  0.00000000000E+00  0.00000000000E+00  0.45593999997E+02  0.45594000000E+02  0.51100000000E-03 0. -1.
         11   -1    0    0    0    0 -0.00000000000E+00 -0.00000000000E+00 -0.45593999997E+02  0.45594000000E+02  0.51100000000E-03 0.  1.
    9900012    2    1    2    0    0  0.37859754072E+02  0.12613639358E+01 -0.21181949684E+02  0.47787228004E+02  0.19999803762E+02 0.  0.
         12    1    1    2    0    0 -0.37859754072E+02 -0.12613639358E+01  0.21181949684E+02  0.43400771996E+02  0.00000000000E+00 0. -1.
         11    1    3    3    0    0  0.10470223579E+02 -0.53731262763E+01 -0.14428544699E+02  0.18619317124E+02  0.51100000000E-03 0. -1.
        -11    1    3    3    0    0  0.21375858663E+02  0.56917794370E+01 -0.65790818759E+01  0.23078301612E+02  0.51100000000E-03 0.  1.
         12    1    3    3    0    0  0.60136718309E+01  0.94271077513E+00 -0.17432310967E+00  0.60896092684E+01  0.00000000000E+00 0. -1.
</event>
<event>
 7    1  0.2751796E-010  0.4778727E+02  0.7816164E-02  0.1312668E+00
        -11   -1    0    0    0    0  0.00000000000E+00  0.00000000000E+00  0.45593999997E+02  0.45594000000E+02  0.51100000000E-03 0.  1.
         11   -1    0    0    0    0 -0.00000000000E+00 -0.00000000000E+00 -0.45593999997E+02  0.45594000000E+02  0.51100000000E-03 0. -1.
    9900012    2    1    2    0    0 -0.74482092844E+01 -0.76285588733E+01  0.42070804077E+02  0.47787270885E+02  0.19999999274E+02 0.  0.
         12    1    1    2    0    0  0.74482092844E+01  0.76285588733E+01 -0.42070804077E+02  0.43400729115E+02  0.00000000000E+00 0. -1.
         11    1    3    3    0    0  0.21993999100E+00 -0.85064407811E+00 -0.16097586998E+00  0.89324265410E+00  0.51100000000E-03 0. -1.
        -11    1    3    3    0    0  0.32216421365E+01  0.24481212091E+01  0.20492776326E+02  0.20888421609E+02  0.51100000000E-03 0.  1.
        -12    1    3    3    0    0 -0.10889791412E+02 -0.92260360042E+01  0.21739003621E+02  0.26005606622E+02  0.00000000000E+00 0.  1.
</event>
<event>
 7    1  0.2751796E-010  0.4778727E+02  0.7816164E-02  0.1312668E+00
        -11   -1    0    0    0    0  0.00000000000E+00  0.00000000000E+00  0.45593999997E+02  0.45594000000E+02  0.51100000000E-03 0.  1.
         11   -1    0    0    0    0 -0.00000000000E+00 -0.00000000000E+00 -0.45593999997E+02  0.45594000000E+02  0.51100000000E-03 0. -1.
    9900012    2    1    2    0    0  0.66253206977E+01  0.14254983004E+02  0.40453968874E+02  0.47787274056E+02  0.20000013731E+02 0.  0.
         12    1    1    2    0    0 -0.66253206977E+01 -0.14254983004E+02 -0.40453968874E+02  0.43400725944E+02  0.00000000000E+00 0. -1.
         11    1    3    3    0    0 -0.38239547659E+00  0.55387854538E+01  0.42678048793E+01  0.70027515559E+01  0.51100000000E-03 0. -1.
        -11    1    3    3    0    0 -0.23488023533E+01  0.90831992441E+01  0.19837438931E+02  0.21944141920E+02  0.51100000000E-03 0.  1.
        -12    1    3    3    0    0  0.93565185276E+01 -0.36700169368E+00  0.16348725063E+02  0.18840380580E+02  0.00000000000E+00 0.  1.
</event>
<event>
 7    1  0.2751796E-010  0.4778727E+02  0.7816164E-02  0.1312668E+00
        -11   -1    0    0    0    0  0.00000000000E+00  0.00000000000E+00  0.45593999997E+02  0.45594000000E+02  0.51100000000E-03 0. -1.
         11   -1    0    0    0    0 -0.00000000000E+00 -0.00000000000E+00 -0.45593999997E+02  0.45594000000E+02  0.51100000000E-03 0.  1.
    9900012    2    1    2    0    0 -0.77165203163E+01  0.42652214528E+02 -0.22061964769E+01  0.47787269674E+02  0.19999993752E+02 0.  0.
         12    1    1    2    0    0  0.77165203163E+01 -0.42652214528E+02  0.22061964769E+01  0.43400730326E+02  0.00000000000E+00 0. -1.
         11    1    3    3    0    0 -0.22709172930E+01  0.11511739424E+02  0.69268570586E+01  0.13625658108E+02  0.51100000000E-03 0. -1.
        -11    1    3    3    0    0 -0.44152834503E+01  0.57750174205E+01 -0.27670986287E+00  0.72747592924E+01  0.51100000000E-03 0.  1.
         12    1    3    3    0    0 -0.10303195730E+01  0.25365457684E+02 -0.88563436726E+01  0.26886852273E+02  0.00000000000E+00 0. -1.
</event>
<event>
 7    1  0.2751796E-010  0.4778727E+02  0.7816164E-02  0.1312668E+00
        -11   -1    0    0    0    0  0.00000000000E+00  0.00000000000E+00  0.45593999997E+02  0.45594000000E+02  0.51100000000E-03 0.  1.
         11   -1    0    0    0    0 -0.00000000000E+00 -0.00000000000E+00 -0.45593999997E+02  0.45594000000E+02  0.51100000000E-03 0. -1.
    9900012    2    1    2    0    0  0.31031627712E+01 -0.42395610276E+02  0.87524943550E+01  0.47787267895E+02  0.19999985639E+02 0.  0.
         12    1    1    2    0    0 -0.31031627712E+01  0.42395610276E+02 -0.87524943550E+01  0.43400732105E+02  0.00000000000E+00 0. -1.
         11    1    3    3    0    0  0.74872839396E+01 -0.80566045951E+01 -0.69449130766E+00  0.11020463549E+02  0.51100000000E-03 0. -1.
        -11    1    3    3    0    0 -0.35865350672E+00 -0.24488461468E+02  0.40107716275E+01  0.24817325938E+02  0.51100000000E-03 0.  1.
        -12    1    3    3    0    0 -0.40254676617E+01 -0.98505442125E+01  0.54362140352E+01  0.11949478408E+02  0.00000000000E+00 0.  1.
</event>
<event>
 7    1  0.2751796E-010  0.4778727E+02  0.7816164E-02  0.1312668E+00
        -11   -1    0    0    0    0  0.00000000000E+00  0.00000000000E+00  0.45593999997E+02  0.45594000000E+02  0.51100000000E-03 0. -1.
         11   -1    0    0    0    0 -0.00000000000E+00 -0.00000000000E+00 -0.45593999997E+02  0.45594000000E+02  0.51100000000E-03 0.  1.
    9900012    2    1    2    0    0  0.58693006862E+01 -0.42508027206E+02 -0.64994228393E+01  0.47787267693E+02  0.19999984722E+02 0.  0.
         12    1    1    2    0    0 -0.58693006862E+01  0.42508027206E+02  0.64994228393E+01  0.43400732307E+02  0.00000000000E+00 0. -1.
         11    1    3    3    0    0  0.27943696992E+01 -0.62802357052E+01 -0.39533880885E+01  0.79296368245E+01  0.51100000000E-03 0. -1.
        -11    1    3    3    0    0  0.64221653841E+01 -0.19111335596E+02 -0.78384232693E+01  0.21631648945E+02  0.51100000000E-03 0.  1.
        -12    1    3    3    0    0 -0.33472343971E+01 -0.17116455905E+02  0.52923885185E+01  0.18225981924E+02  0.00000000000E+00 0.  1.
</event>
<event>
 7    1  0.2751796E-010  0.4778727E+02  0.7816164E-02  0.1312668E+00
        -11   -1    0    0    0    0  0.00000000000E+00  0.00000000000E+00  0.45593999997E+02  0.45594000000E+02  0.51100000000E-03 0.  1.
         11   -1    0    0    0    0 -0.00000000000E+00 -0.00000000000E+00 -0.45593999997E+02  0.45594000000E+02  0.51100000000E-03 0. -1.
    9900012    2    1    2    0    0  0.28768716053E+02  0.20734091923E+02  0.25021632395E+02  0.47787266378E+02  0.19999978726E+02 0.  0.
         12    1    1    2    0    0 -0.28768716053E+02 -0.20734091923E+02 -0.25021632395E+02  0.43400733622E+02  0.00000000000E+00 0. -1.
         11    1    3    3    0    0  0.10503325540E+02  0.19008049724E+02  0.10729497033E+02  0.24222879857E+02  0.51100000000E-03 0. -1.
        -11    1    3    3    0    0  0.12094114988E+02  0.14996546732E+01  0.71768915901E+01  0.14142996664E+02  0.51100000000E-03 0.  1.
         12    1    3    3    0    0  0.61712755252E+01  0.22638752545E+00  0.71152437717E+01  0.94213898577E+01  0.00000000000E+00 0. -1.
</event>
<event>
 7    1  0.2751796E-010  0.4778727E+02  0.7816164E-02  0.1312668E+00
        -11   -1    0    0    0    0  0.00000000000E+00  0.00000000000E+00  0.45593999997E+02  0.45594000000E+02  0.51100000000E-03 0. -1.
         11   -1    0    0    0    0 -0.00000000000E+00 -0.00000000000E+00 -0.45593999997E+02  0.45594000000E+02  0.51100000000E-03 0.  1.
    9900012    2    1    2    0    0  0.28648860381E+02 -0.32468597082E+02  0.29422270723E+01  0.47787266161E+02  0.19999977735E+02 0.  0.
         12    1    1    2    0    0 -0.28648860381E+02  0.32468597082E+02 -0.29422270723E+01  0.43400733839E+02  0.00000000000E+00 0. -1.
         11    1    3    3    0    0  0.97441735790E+00  0.19956574083E+01  0.18606714803E+01  0.28972808454E+01  0.51100000000E-03 0. -1.
        -11    1    3    3    0    0  0.20234353320E+02 -0.25769140675E+02  0.41919402020E+01  0.33031046431E+02  0.51100000000E-03 0.  1.
        -12    1    3    3    0    0  0.74400897036E+01 -0.86951138151E+01 -0.31103846100E+01  0.11858938885E+02  0.00000000000E+00 0.  1.
</event>
<event>
 7    1  0.2751796E-010  0.4778725E+02  0.7816164E-02  0.1312668E+00
        -11   -1    0    0    0    0  0.00000000000E+00  0.00000000000E+00  0.45593999997E+02  0.45594000000E+02  0.51100000000E-03 0.  1.
         11   -1    0    0    0    0 -0.00000000000E+00 -0.00000000000E+00 -0.45593999997E+02  0.45594000000E+02  0.51100000000E-03 0. -1.
    9900012    2    1    2    0    0 -0.27406118722E+02  0.67236161662E+01  0.32974581262E+02  0.47787246928E+02  0.19999890044E+02 0.  0.
         12    1    1    2    0    0  0.27406118722E+02 -0.67236161662E+01 -0.32974581262E+02  0.43400753072E+02  0.00000000000E+00 0. -1.
         11    1    3    3    0    0 -0.46917050290E+01 -0.61684737714E+00  0.19691280344E+02  0.20251891729E+02  0.51100000000E-03 0. -1.
        -11    1    3    3    0    0 -0.19063519327E+02  0.48806936598E+01  0.11446130175E+02  0.22765167163E+02  0.51100000000E-03 0.  1.
         12    1    3    3    0    0 -0.36508943661E+01  0.24597698835E+01  0.18371707436E+01  0.47701880354E+01  0.00000000000E+00 0. -1.
</event>
<event>
 7    1  0.2751796E-010  0.4778729E+02  0.7816164E-02  0.1312668E+00
        -11   -1    0    0    0    0  0.00000000000E+00  0.00000000000E+00  0.45593999997E+02  0.45594000000E+02  0.51100000000E-03 0. -1.
         11   -1    0    0    0    0 -0.00000000000E+00 -0.00000000000E+00 -0.45593999997E+02  0.45594000000E+02  0.51100000000E-03 0.  1.
    9900012    2    1    2    0    0 -0.15806433989E+01  0.64443857886E+01 -0.42890477895E+02  0.47787289916E+02  0.20000086044E+02 0.  0.
         12    1    1    2    0    0  0.15806433989E+01 -0.64443857886E+01  0.42890477895E+02  0.43400710084E+02  0.00000000000E+00 0. -1.
         11    1    3    3    0    0  0.79040697416E+00 -0.24438560133E+01 -0.42839937825E+00  0.26039780504E+01  0.51100000000E-03 0. -1.
        -11    1    3    3    0    0 -0.32971328425E+01  0.11636585335E+02 -0.37847594184E+02  0.39733129615E+02  0.51100000000E-03 0.  1.
         12    1    3    3    0    0  0.92608246939E+00 -0.27483435329E+01 -0.46144843323E+01  0.54501822509E+01  0.00000000000E+00 0. -1.
</event>
<event>
 7    1  0.2751796E-010  0.4778727E+02  0.7816164E-02  0.1312668E+00
        -11   -1    0    0    0    0  0.00000000000E+00  0.00000000000E+00  0.45593999997E+02  0.45594000000E+02  0.51100000000E-03 0. -1.
         11   -1    0    0    0    0 -0.00000000000E+00 -0.00000000000E+00 -0.45593999997E+02  0.45594000000E+02  0.51100000000E-03 0.  1.
    9900012    2    1    2    0    0 -0.10235731576E+02  0.26486243483E+02 -0.32822738172E+02  0.47787269178E+02  0.19999991491E+02 0.  0.
         12    1    1    2    0    0  0.10235731576E+02 -0.26486243483E+02  0.32822738172E+02  0.43400730822E+02  0.00000000000E+00 0. -1.
         11    1    3    3    0    0 -0.48383965557E+01  0.68693155510E+00 -0.25469496714E+01  0.55107993142E+01  0.51100000000E-03 0. -1.
        -11    1    3    3    0    0  0.21445311685E+01  0.19561225438E+02 -0.21259513335E+02  0.28969077688E+02  0.51100000000E-03 0.  1.
        -12    1    3    3    0    0 -0.75418661887E+01  0.62380864902E+01 -0.90162751660E+01  0.13307392176E+02  0.00000000000E+00 0.  1.
</event>
<event>
 7    1  0.2751796E-010  0.4778728E+02  0.7816164E-02  0.1312668E+00
        -11   -1    0    0    0    0  0.00000000000E+00  0.00000000000E+00  0.45593999997E+02  0.45594000000E+02  0.51100000000E-03 0. -1.
         11   -1    0    0    0    0 -0.00000000000E+00 -0.00000000000E+00 -0.45593999997E+02  0.45594000000E+02  0.51100000000E-03 0.  1.
    9900012    2    1    2    0    0 -0.12495294700E+02 -0.38104851398E+02  0.16598496280E+02  0.47787283780E+02  0.20000058066E+02 0.  0.
         12    1    1    2    0    0  0.12495294700E+02  0.38104851398E+02 -0.16598496280E+02  0.43400716220E+02  0.00000000000E+00 0. -1.
         11    1    3    3    0    0 -0.61412283314E+01 -0.17515288931E+01  0.10069458671E+01  0.64650196536E+01  0.51100000000E-03 0. -1.
        -11    1    3    3    0    0 -0.65097909154E+01 -0.32415422941E+02  0.10115308852E+02  0.34575374121E+02  0.51100000000E-03 0.  1.
        -12    1    3    3    0    0  0.15572454653E+00 -0.39378995635E+01  0.54762415606E+01  0.67468900047E+01  0.00000000000E+00 0.  1.
</event>
<event>
 7    1  0.2751796E-010  0.4778726E+02  0.7816164E-02  0.1312668E+00
        -11   -1    0    0    0    0  0.00000000000E+00  0.00000000000E+00  0.45593999997E+02  0.45594000000E+02  0.51100000000E-03 0.  1.
         11   -1    0    0    0    0 -0.00000000000E+00 -0.00000000000E+00 -0.45593999997E+02  0.45594000000E+02  0.51100000000E-03 0. -1.
    9900012    2    1    2    0    0 -0.81690350470E+01 -0.28717692818E+02  0.31498967832E+02  0.47787262807E+02  0.19999962442E+02 0.  0.
         12    1    1    2    0    0  0.81690350470E+01  0.28717692818E+02 -0.31498967832E+02  0.43400737193E+02  0.00000000000E+00 0. -1.
         11    1    3    3    0    0 -0.56140901829E+00 -0.34544503049E+00  0.93920064583E+01  0.94151100859E+01  0.51100000000E-03 0. -1.
        -11    1    3    3    0    0  0.63714517090E-01 -0.19869813447E+02  0.14977763548E+02  0.24882663586E+02  0.51100000000E-03 0.  1.
        -12    1    3    3    0    0 -0.76713405458E+01 -0.85024343404E+01  0.71291978265E+01  0.13489489135E+02  0.00000000000E+00 0.  1.
</event>
<event>
 7    1  0.2751796E-010  0.4778727E+02  0.7816164E-02  0.1312668E+00
        -11   -1    0    0    0    0  0.00000000000E+00  0.00000000000E+00  0.45593999997E+02  0.45594000000E+02  0.51100000000E-03 0.  1.
         11   -1    0    0    0    0 -0.00000000000E+00 -0.00000000000E+00 -0.45593999997E+02  0.45594000000E+02  0.51100000000E-03 0. -1.
    9900012    2    1    2    0    0  0.32059131921E+02  0.43798378494E+01  0.28924941755E+02  0.47787272187E+02  0.20000005211E+02 0.  0.
         12    1    1    2    0    0 -0.32059131921E+02 -0.43798378494E+01 -0.28924941755E+02  0.43400727813E+02  0.00000000000E+00 0. -1.
         11    1    3    3    0    0  0.42026109493E+01  0.18839990223E+01  0.81800871521E+01  0.93875032455E+01  0.51100000000E-03 0. -1.
        -11    1    3    3    0    0  0.68869751750E+01 -0.63026521162E+01  0.82165159831E+01  0.12436437831E+02  0.51100000000E-03 0.  1.
        -12    1    3    3    0    0  0.20969545797E+02  0.87984909433E+01  0.12528338620E+02  0.25963331111E+02  0.00000000000E+00 0.  1.
</event>
<event>
 7    1  0.2751796E-010  0.4778727E+02  0.7816164E-02  0.1312668E+00
        -11   -1    0    0    0    0  0.00000000000E+00  0.00000000000E+00  0.45593999997E+02  0.45594000000E+02  0.51100000000E-03 0.  1.
         11   -1    0    0    0    0 -0.00000000000E+00 -0.00000000000E+00 -0.45593999997E+02  0.45594000000E+02  0.51100000000E-03 0. -1.
    9900012    2    1    2    0    0  0.56448646290E+01  0.38738298632E+02  0.18737740555E+02  0.47787271910E+02  0.20000003948E+02 0.  0.
         12    1    1    2    0    0 -0.56448646290E+01 -0.38738298632E+02 -0.18737740555E+02  0.43400728090E+02  0.00000000000E+00 0. -1.
         11    1    3    3    0    0 -0.12543011692E+01  0.58264343045E+01  0.99791758773E+01  0.11623448696E+02  0.51100000000E-03 0.  1.
        -11    1    3    3    0    0  0.93018223739E+01  0.21826440287E+02  0.64730428004E+01  0.24593041260E+02  0.51100000000E-03 0. -1.
         12    1    3    3    0    0 -0.24026565756E+01  0.11085424041E+02  0.22855218775E+01  0.11570781955E+02  0.00000000000E+00 0. -1.
</event>
<event>
 7    1  0.2751796E-010  0.4778727E+02  0.7816164E-02  0.1312668E+00
        -11   -1    0    0    0    0  0.00000000000E+00  0.00000000000E+00  0.45593999997E+02  0.45594000000E+02  0.51100000000E-03 0.  1.
         11   -1    0    0    0    0 -0.00000000000E+00 -0.00000000000E+00 -0.45593999997E+02  0.45594000000E+02  0.51100000000E-03 0. -1.
    9900012    2    1    2    0    0  0.36849390138E+02 -0.48009132832E+01  0.22420910858E+02  0.47787267683E+02  0.19999984676E+02 0.  0.
         12    1    1    2    0    0 -0.36849390138E+02  0.48009132832E+01 -0.22420910858E+02  0.43400732317E+02  0.00000000000E+00 0. -1.
         11    1    3    3    0    0  0.18707606075E+02  0.75593112595E+01  0.11833283659E+02  0.23391116138E+02  0.51100000000E-03 0.  1.
        -11    1    3    3    0    0  0.90649128734E+01 -0.65641380335E+01  0.58802403214E+01  0.12642696707E+02  0.51100000000E-03 0. -1.
        -12    1    3    3    0    0  0.90768711900E+01 -0.57960865091E+01  0.47073868778E+01  0.11753454838E+02  0.00000000000E+00 0.  1.
</event>
<event>
 7    1  0.2751796E-010  0.4778726E+02  0.7816164E-02  0.1312668E+00
        -11   -1    0    0    0    0  0.00000000000E+00  0.00000000000E+00  0.45593999997E+02  0.45594000000E+02  0.51100000000E-03 0.  1.
         11   -1    0    0    0    0 -0.00000000000E+00 -0.00000000000E+00 -0.45593999997E+02  0.45594000000E+02  0.51100000000E-03 0. -1.
    9900012    2    1    2    0    0 -0.13460964664E+02 -0.22292307397E+02  0.34720014392E+02  0.47787263391E+02  0.19999965107E+02 0.  0.
         12    1    1    2    0    0  0.13460964664E+02  0.22292307397E+02 -0.34720014392E+02  0.43400736609E+02  0.00000000000E+00 0. -1.
         11    1    3    3    0    0 -0.20609568444E+01 -0.32315972797E+01  0.11254265890E+01  0.39946651125E+01  0.51100000000E-03 0. -1.
        -11    1    3    3    0    0 -0.66228594323E+01 -0.11483219882E+02  0.32075789698E+02  0.34707101448E+02  0.51100000000E-03 0.  1.
        -12    1    3    3    0    0 -0.47771483870E+01 -0.75774902355E+01  0.15187981055E+01  0.90854968309E+01  0.00000000000E+00 0.  1.
</event>
<event>
 7    1  0.2751796E-010  0.4778727E+02  0.7816164E-02  0.1312668E+00
        -11   -1    0    0    0    0  0.00000000000E+00  0.00000000000E+00  0.45593999997E+02  0.45594000000E+02  0.51100000000E-03 0. -1.
         11   -1    0    0    0    0 -0.00000000000E+00 -0.00000000000E+00 -0.45593999997E+02  0.45594000000E+02  0.51100000000E-03 0.  1.
    9900012    2    1    2    0    0 -0.39065125327E+02 -0.18908635890E+02  0.50696807046E-01  0.47787273068E+02  0.20000009226E+02 0.  0.
         12    1    1    2    0    0  0.39065125327E+02  0.18908635890E+02 -0.50696807046E-01  0.43400726932E+02  0.00000000000E+00 0. -1.
         11    1    3    3    0    0 -0.41227743208E+01 -0.32595757809E+01  0.60712462017E+01  0.80300767788E+01  0.51100000000E-03 0. -1.
        -11    1    3    3    0    0 -0.28836815759E+02 -0.16338139085E+02 -0.47388730099E+01  0.33480645895E+02  0.51100000000E-03 0.  1.
        -12    1    3    3    0    0 -0.61055352473E+01  0.68907897596E+00 -0.12816763847E+01  0.62765503938E+01  0.00000000000E+00 0.  1.
</event>
<event>
 7    1  0.2751796E-010  0.4778727E+02  0.7816164E-02  0.1312668E+00
        -11   -1    0    0    0    0  0.00000000000E+00  0.00000000000E+00  0.45593999997E+02  0.45594000000E+02  0.51100000000E-03 0.  1.
         11   -1    0    0    0    0 -0.00000000000E+00 -0.00000000000E+00 -0.45593999997E+02  0.45594000000E+02  0.51100000000E-03 0. -1.
    9900012    2    1    2    0    0  0.15334290249E+02  0.37105373606E+01  0.40431607651E+02  0.47787269106E+02  0.19999991160E+02 0.  0.
         12    1    1    2    0    0 -0.15334290249E+02 -0.37105373606E+01 -0.40431607651E+02  0.43400730894E+02  0.00000000000E+00 0. -1.
         11    1    3    3    0    0  0.46881417339E+00 -0.31516042842E+01  0.61568730594E+00  0.32452222441E+01  0.51100000000E-03 0. -1.
        -11    1    3    3    0    0  0.14732112623E+02  0.46023857453E+01  0.23796926867E+02  0.28363900040E+02  0.51100000000E-03 0.  1.
        -12    1    3    3    0    0  0.13336345218E+00  0.22597558995E+01  0.16018993478E+02  0.16178146822E+02  0.00000000000E+00 0.  1.
</event>
<event>
 7    1  0.2751796E-010  0.4778727E+02  0.7816164E-02  0.1312668E+00
        -11   -1    0    0    0    0  0.00000000000E+00  0.00000000000E+00  0.45593999997E+02  0.45594000000E+02  0.51100000000E-03 0.  1.
         11   -1    0    0    0    0 -0.00000000000E+00 -0.00000000000E+00 -0.45593999997E+02  0.45594000000E+02  0.51100000000E-03 0. -1.
    9900012    2    1    2    0    0 -0.71643649986E+01 -0.17727456226E+02  0.38961932064E+02  0.47787274427E+02  0.20000015424E+02 0.  0.
         12    1    1    2    0    0  0.71643649986E+01  0.17727456226E+02 -0.38961932064E+02  0.43400725573E+02  0.00000000000E+00 0. -1.
         11    1    3    3    0    0 -0.44839928762E+01  0.31700897725E+01  0.10813633040E+02  0.12128079859E+02  0.51100000000E-03 0. -1.
        -11    1    3    3    0    0 -0.23027400617E+01 -0.88732406123E+01  0.78751104329E+01  0.12085295832E+02  0.51100000000E-03 0.  1.
         12    1    3    3    0    0 -0.37763206070E+00 -0.12024305386E+02  0.20273188591E+02  0.23573898736E+02  0.00000000000E+00 0. -1.
</event>
<event>
 7    1  0.2751796E-010  0.4778727E+02  0.7816164E-02  0.1312668E+00
        -11   -1    0    0    0    0  0.00000000000E+00  0.00000000000E+00  0.45593999997E+02  0.45594000000E+02  0.51100000000E-03 0. -1.
         11   -1    0    0    0    0 -0.00000000000E+00 -0.00000000000E+00 -0.45593999997E+02  0.45594000000E+02  0.51100000000E-03 0.  1.
    9900012    2    1    2    0    0  0.40602513548E+02 -0.62183785110E+01  0.14013949252E+02  0.47787272916E+02  0.20000008535E+02 0.  0.
         12    1    1    2    0    0 -0.40602513548E+02  0.62183785110E+01 -0.14013949252E+02  0.43400727084E+02  0.00000000000E+00 0. -1.
         11    1    3    3    0    0  0.12487401309E+02 -0.82643398096E+01 -0.21296027760E+00  0.14975975971E+02  0.51100000000E-03 0. -1.
        -11    1    3    3    0    0  0.11360993863E+02  0.36385504669E+00  0.10219292061E+01  0.11412664528E+02  0.51100000000E-03 0.  1.
         12    1    3    3    0    0  0.16754118376E+02  0.16821062520E+01  0.13204980324E+02  0.21398632418E+02  0.00000000000E+00 0. -1.
</event>
<event>
 7    1  0.2751796E-010  0.4778727E+02  0.7816164E-02  0.1312668E+00
        -11   -1    0    0    0    0  0.00000000000E+00  0.00000000000E+00  0.45593999997E+02  0.45594000000E+02  0.51100000000E-03 0.  1.
         11   -1    0    0    0    0 -0.00000000000E+00 -0.00000000000E+00 -0.45593999997E+02  0.45594000000E+02  0.51100000000E-03 0. -1.
    9900012    2    1    2    0    0  0.33298747795E+02 -0.13185430858E+02  0.24514512754E+02  0.47787268126E+02  0.19999986692E+02 0.  0.
         12    1    1    2    0    0 -0.33298747795E+02  0.13185430858E+02 -0.24514512754E+02  0.43400731874E+02  0.00000000000E+00 0. -1.
         11    1    3    3    0    0  0.81978782858E+00 -0.20303347134E+01 -0.34904531563E+00  0.22172379272E+01  0.51100000000E-03 0. -1.
        -11    1    3    3    0    0  0.18560097221E+02 -0.14751901474E+02  0.17096901604E+02  0.29230118896E+02  0.51100000000E-03 0.  1.
        -12    1    3    3    0    0  0.13918862746E+02  0.35968053298E+01  0.77666564661E+01  0.16339911303E+02  0.00000000000E+00 0.  1.
</event>
<event>
 7    1  0.2751796E-010  0.4778727E+02  0.7816164E-02  0.1312668E+00
        -11   -1    0    0    0    0  0.00000000000E+00  0.00000000000E+00  0.45593999997E+02  0.45594000000E+02  0.51100000000E-03 0. -1.
         11   -1    0    0    0    0 -0.00000000000E+00 -0.00000000000E+00 -0.45593999997E+02  0.45594000000E+02  0.51100000000E-03 0.  1.
    9900012    2    1    2    0    0  0.40268262666E+02 -0.10557933239E+02 -0.12272760091E+02  0.47787267602E+02  0.19999984304E+02 0.  0.
         12    1    1    2    0    0 -0.40268262666E+02  0.10557933239E+02  0.12272760091E+02  0.43400732398E+02  0.00000000000E+00 0. -1.
         11    1    3    3    0    0  0.45034652429E+01  0.10089943835E+01  0.34863265714E+01  0.57839209956E+01  0.51100000000E-03 0. -1.
        -11    1    3    3    0    0  0.17942442451E+02 -0.82997321472E+01 -0.33722045705E+01  0.20054639332E+02  0.51100000000E-03 0.  1.
         12    1    3    3    0    0  0.17822354973E+02 -0.32671954750E+01 -0.12386882092E+02  0.21948707274E+02  0.00000000000E+00 0. -1.
</event>
<event>
 7    1  0.2751796E-010  0.4778727E+02  0.7816164E-02  0.1312668E+00
        -11   -1    0    0    0    0  0.00000000000E+00  0.00000000000E+00  0.45593999997E+02  0.45594000000E+02  0.51100000000E-03 0.  1.
         11   -1    0    0    0    0 -0.00000000000E+00 -0.00000000000E+00 -0.45593999997E+02  0.45594000000E+02  0.51100000000E-03 0. -1.
    9900012    2    1    2    0    0  0.99007847468E+01  0.35909095203E+02  0.22274077600E+02  0.47787272013E+02  0.20000004416E+02 0.  0.
         12    1    1    2    0    0 -0.99007847468E+01 -0.35909095203E+02 -0.22274077600E+02  0.43400727987E+02  0.00000000000E+00 0. -1.
         11    1    3    3    0    0  0.68877717328E+01  0.52495563538E+01 -0.10840457005E+01  0.87277944922E+01  0.51100000000E-03 0. -1.
        -11    1    3    3    0    0  0.10041009929E+00  0.19762352080E+02  0.17250101736E+02  0.26232168269E+02  0.51100000000E-03 0.  1.
         12    1    3    3    0    0  0.29126029147E+01  0.10897186769E+02  0.61080215650E+01  0.12827309252E+02  0.00000000000E+00 0. -1.
</event>
<event>
 7    1  0.2751796E-010  0.4778727E+02  0.7816164E-02  0.1312668E+00
        -11   -1    0    0    0    0  0.00000000000E+00  0.00000000000E+00  0.45593999997E+02  0.45594000000E+02  0.51100000000E-03 0.  1.
         11   -1    0    0    0    0 -0.00000000000E+00 -0.00000000000E+00 -0.45593999997E+02  0.45594000000E+02  0.51100000000E-03 0. -1.
    9900012    2    1    2    0    0 -0.15761029502E+02  0.27184286152E+02  0.29937061265E+02  0.47787273027E+02  0.20000009040E+02 0.  0.
         12    1    1    2    0    0  0.15761029502E+02 -0.27184286152E+02 -0.29937061265E+02  0.43400726973E+02  0.00000000000E+00 0. -1.
         11    1    3    3    0    0 -0.46139612022E+01 -0.73779164171E+00  0.87106612983E+01  0.98847658039E+01  0.51100000000E-03 0. -1.
        -11    1    3    3    0    0 -0.11739748458E+02  0.23039411407E+02  0.20352780250E+02  0.32907018035E+02  0.51100000000E-03 0.  1.
        -12    1    3    3    0    0  0.59268015800E+00  0.48826663870E+01  0.87361971731E+00  0.49954891880E+01  0.00000000000E+00 0.  1.
</event>
<event>
 7    1  0.2751796E-010  0.4778728E+02  0.7816164E-02  0.1312668E+00
        -11   -1    0    0    0    0  0.00000000000E+00  0.00000000000E+00  0.45593999997E+02  0.45594000000E+02  0.51100000000E-03 0. -1.
         11   -1    0    0    0    0 -0.00000000000E+00 -0.00000000000E+00 -0.45593999997E+02  0.45594000000E+02  0.51100000000E-03 0.  1.
    9900012    2    1    2    0    0  0.41217735974E+02 -0.13481588978E+02 -0.17226547265E+01  0.47787279505E+02  0.20000038573E+02 0.  0.
         12    1    1    2    0    0 -0.41217735974E+02  0.13481588978E+02  0.17226547265E+01  0.43400720495E+02  0.00000000000E+00 0. -1.
         11    1    3    3    0    0  0.29026563858E+02 -0.49914638548E+00 -0.56953218248E+00  0.29036441306E+02  0.51100000000E-03 0. -1.
        -11    1    3    3    0    0  0.94701273104E+01 -0.87742010010E+01 -0.32589289988E+01  0.13315049116E+02  0.51100000000E-03 0.  1.
         12    1    3    3    0    0  0.27210448057E+01 -0.42082415918E+01  0.21058064547E+01  0.54357890830E+01  0.00000000000E+00 0. -1.
</event>
<event>
 7    1  0.2751796E-010  0.4778727E+02  0.7816164E-02  0.1312668E+00
        -11   -1    0    0    0    0  0.00000000000E+00  0.00000000000E+00  0.45593999997E+02  0.45594000000E+02  0.51100000000E-03 0. -1.
         11   -1    0    0    0    0 -0.00000000000E+00 -0.00000000000E+00 -0.45593999997E+02  0.45594000000E+02  0.51100000000E-03 0.  1.
    9900012    2    1    2    0    0 -0.16596435209E+02  0.35652814328E+02  0.18359149436E+02  0.47787271905E+02  0.20000003926E+02 0.  0.
         12    1    1    2    0    0  0.16596435209E+02 -0.35652814328E+02 -0.18359149436E+02  0.43400728095E+02  0.00000000000E+00 0. -1.
         11    1    3    3    0    0 -0.89118807405E+01  0.44096626988E+01  0.66202322393E+01  0.11945468539E+02  0.51100000000E-03 0. -1.
        -11    1    3    3    0    0  0.68361969330E+00  0.18579168596E+02  0.51307003414E+01  0.19286703395E+02  0.51100000000E-03 0.  1.
         12    1    3    3    0    0 -0.83681741613E+01  0.12663983033E+02  0.66082168555E+01  0.16555099971E+02  0.00000000000E+00 0. -1.
</event>
<event>
 7    1  0.2751796E-010  0.4778727E+02  0.7816164E-02  0.1312668E+00
        -11   -1    0    0    0    0  0.00000000000E+00  0.00000000000E+00  0.45593999997E+02  0.45594000000E+02  0.51100000000E-03 0. -1.
         11   -1    0    0    0    0 -0.00000000000E+00 -0.00000000000E+00 -0.45593999997E+02  0.45594000000E+02  0.51100000000E-03 0.  1.
    9900012    2    1    2    0    0  0.10656562833E+02 -0.21677273480E+02 -0.36057687552E+02  0.47787270184E+02  0.19999996079E+02 0.  0.
         12    1    1    2    0    0 -0.10656562833E+02  0.21677273480E+02  0.36057687552E+02  0.43400729816E+02  0.00000000000E+00 0. -1.
         11    1    3    3    0    0  0.10940058588E+02 -0.16616012315E+02 -0.35274664121E+02  0.40497884837E+02  0.51100000000E-03 0. -1.
        -11    1    3    3    0    0  0.12977525648E+01  0.35808424993E+00 -0.93989377274E+00  0.16418850796E+01  0.51100000000E-03 0.  1.
         12    1    3    3    0    0 -0.15812483194E+01 -0.54193454147E+01  0.15687034185E+00  0.56475002679E+01  0.00000000000E+00 0. -1.
</event>
<event>
 7    1  0.2751796E-010  0.4778725E+02  0.7816164E-02  0.1312668E+00
        -11   -1    0    0    0    0  0.00000000000E+00  0.00000000000E+00  0.45593999997E+02  0.45594000000E+02  0.51100000000E-03 0.  1.
         11   -1    0    0    0    0 -0.00000000000E+00 -0.00000000000E+00 -0.45593999997E+02  0.45594000000E+02  0.51100000000E-03 0. -1.
    9900012    2    1    2    0    0  0.32228225450E+02 -0.24466940603E+02  0.15695064884E+02  0.47787253925E+02  0.19999921947E+02 0.  0.
         12    1    1    2    0    0 -0.32228225450E+02  0.24466940603E+02 -0.15695064884E+02  0.43400746075E+02  0.00000000000E+00 0. -1.
         11    1    3    3    0    0  0.19594658854E+02 -0.18696926705E+02  0.39664986531E+00  0.27086584414E+02  0.51100000000E-03 0. -1.
        -11    1    3    3    0    0  0.89797575094E+01 -0.47077684283E+01  0.11253508857E+02  0.15147296470E+02  0.51100000000E-03 0.  1.
         12    1    3    3    0    0  0.36538090871E+01 -0.10622454693E+01  0.40449061620E+01  0.55533730417E+01  0.00000000000E+00 0. -1.
</event>
<event>
 7    1  0.2751796E-010  0.4778727E+02  0.7816164E-02  0.1312668E+00
        -11   -1    0    0    0    0  0.00000000000E+00  0.00000000000E+00  0.45593999997E+02  0.45594000000E+02  0.51100000000E-03 0.  1.
         11   -1    0    0    0    0 -0.00000000000E+00 -0.00000000000E+00 -0.45593999997E+02  0.45594000000E+02  0.51100000000E-03 0. -1.
    9900012    2    1    2    0    0 -0.24656961322E+02  0.28649555709E+02  0.21327454675E+02  0.47787272968E+02  0.20000008771E+02 0.  0.
         12    1    1    2    0    0  0.24656961322E+02 -0.28649555709E+02 -0.21327454675E+02  0.43400727032E+02  0.00000000000E+00 0. -1.
         11    1    3    3    0    0 -0.18748332471E+01  0.21039171687E+01  0.94724494067E+01  0.98827508913E+01  0.51100000000E-03 0. -1.
        -11    1    3    3    0    0 -0.22865402317E+02  0.23074891872E+02  0.10130023011E+02  0.34027850718E+02  0.51100000000E-03 0.  1.
        -12    1    3    3    0    0  0.83274241892E-01  0.34707466688E+01  0.17249822568E+01  0.38766713589E+01  0.00000000000E+00 0.  1.
</event>
<event>
 7    1  0.2751796E-010  0.4778728E+02  0.7816164E-02  0.1312668E+00
        -11   -1    0    0    0    0  0.00000000000E+00  0.00000000000E+00  0.45593999997E+02  0.45594000000E+02  0.51100000000E-03 0.  1.
         11   -1    0    0    0    0 -0.00000000000E+00 -0.00000000000E+00 -0.45593999997E+02  0.45594000000E+02  0.51100000000E-03 0. -1.
    9900012    2    1    2    0    0  0.35920439917E+02  0.12571065634E+02  0.20864157109E+02  0.47787277116E+02  0.20000027685E+02 0.  0.
         12    1    1    2    0    0 -0.35920439917E+02 -0.12571065634E+02 -0.20864157109E+02  0.43400722884E+02  0.00000000000E+00 0. -1.
         11    1    3    3    0    0  0.11723693748E+02  0.24616359414E+00  0.14459898644E+02  0.18617042210E+02  0.51100000000E-03 0. -1.
        -11    1    3    3    0    0  0.34937761518E+01  0.16811919815E+01  0.43101787038E+01  0.57974579772E+01  0.51100000000E-03 0.  1.
         12    1    3    3    0    0  0.20702970017E+02  0.10643710058E+02  0.20940797609E+01  0.23372776929E+02  0.00000000000E+00 0. -1.
</event>
<event>
 7    1  0.2751796E-010  0.4778727E+02  0.7816164E-02  0.1312668E+00
        -11   -1    0    0    0    0  0.00000000000E+00  0.00000000000E+00  0.45593999997E+02  0.45594000000E+02  0.51100000000E-03 0. -1.
         11   -1    0    0    0    0 -0.00000000000E+00 -0.00000000000E+00 -0.45593999997E+02  0.45594000000E+02  0.51100000000E-03 0.  1.
    9900012    2    1    2    0    0  0.77082538142E+01  0.32053274688E+02 -0.28227540828E+02  0.47787266639E+02  0.19999979915E+02 0.  0.
         12    1    1    2    0    0 -0.77082538142E+01 -0.32053274688E+02  0.28227540828E+02  0.43400733361E+02  0.00000000000E+00 0. -1.
         11    1    3    3    0    0  0.11007102966E+02  0.10421923811E+02 -0.15249653212E+02  0.21501737952E+02  0.51100000000E-03 0. -1.
        -11    1    3    3    0    0  0.19421245449E+01  0.53700402163E+01 -0.24239435686E+01  0.62036023694E+01  0.51100000000E-03 0.  1.
         12    1    3    3    0    0 -0.52409736965E+01  0.16261310660E+02 -0.10553944047E+02  0.20081926317E+02  0.00000000000E+00 0. -1.
</event>
<event>
 7    1  0.2751796E-010  0.4778727E+02  0.7816164E-02  0.1312668E+00
        -11   -1    0    0    0    0  0.00000000000E+00  0.00000000000E+00  0.45593999997E+02  0.45594000000E+02  0.51100000000E-03 0.  1.
         11   -1    0    0    0    0 -0.00000000000E+00 -0.00000000000E+00 -0.45593999997E+02  0.45594000000E+02  0.51100000000E-03 0. -1.
    9900012    2    1    2    0    0  0.40745112568E+02  0.13767129475E+02 -0.58245562741E+01  0.47787268347E+02  0.19999987703E+02 0.  0.
         12    1    1    2    0    0 -0.40745112568E+02 -0.13767129475E+02  0.58245562741E+01  0.43400731653E+02  0.00000000000E+00 0. -1.
         11    1    3    3    0    0  0.21083154749E+02  0.16921594341E+02 -0.26001645639E+01  0.27158803825E+02  0.51100000000E-03 0. -1.
        -11    1    3    3    0    0  0.11806136622E+02 -0.49239866676E+00 -0.35170201613E+01  0.12328696179E+02  0.51100000000E-03 0.  1.
         12    1    3    3    0    0  0.78558211974E+01 -0.26620661996E+01  0.29262845103E+00  0.82997683430E+01  0.00000000000E+00 0. -1.
</event>
<event>
 7    1  0.2751796E-010  0.4778727E+02  0.7816164E-02  0.1312668E+00
        -11   -1    0    0    0    0  0.00000000000E+00  0.00000000000E+00  0.45593999997E+02  0.45594000000E+02  0.51100000000E-03 0.  1.
         11   -1    0    0    0    0 -0.00000000000E+00 -0.00000000000E+00 -0.45593999997E+02  0.45594000000E+02  0.51100000000E-03 0. -1.
    9900012    2    1    2    0    0  0.33745959216E+02 -0.86497927672E+01  0.25884635210E+02  0.47787273989E+02  0.20000013424E+02 0.  0.
         12    1    1    2    0    0 -0.33745959216E+02  0.86497927672E+01 -0.25884635210E+02  0.43400726011E+02  0.00000000000E+00 0. -1.
         11    1    3    3    0    0  0.96021091796E+00 -0.28468272102E+01  0.84064658287E+01  0.89272111077E+01  0.51100000000E-03 0. -1.
        -11    1    3    3    0    0  0.25713254500E+02 -0.83920834692E+01  0.15013780343E+02  0.30935612527E+02  0.51100000000E-03 0.  1.
         12    1    3    3    0    0  0.70724937976E+01  0.25891179122E+01  0.24643890385E+01  0.79244503541E+01  0.00000000000E+00 0. -1.
</event>
<event>
 7    1  0.2751796E-010  0.4778727E+02  0.7816164E-02  0.1312668E+00
        -11   -1    0    0    0    0  0.00000000000E+00  0.00000000000E+00  0.45593999997E+02  0.45594000000E+02  0.51100000000E-03 0.  1.
         11   -1    0    0    0    0 -0.00000000000E+00 -0.00000000000E+00 -0.45593999997E+02  0.45594000000E+02  0.51100000000E-03 0. -1.
    9900012    2    1    2    0    0 -0.28753981681E+02 -0.11133297106E+02  0.30543104771E+02  0.47787274015E+02  0.20000013543E+02 0.  0.
         12    1    1    2    0    0  0.28753981681E+02  0.11133297106E+02 -0.30543104771E+02  0.43400725985E+02  0.00000000000E+00 0. -1.
         11    1    3    3    0    0 -0.18557557928E+02  0.14295862519E+01  0.21287824770E+02  0.28277166703E+02  0.51100000000E-03 0. -1.
        -11    1    3    3    0    0 -0.24332341938E+01 -0.56522181011E-01  0.98214276021E+00  0.26245815022E+01  0.51100000000E-03 0.  1.
         12    1    3    3    0    0 -0.77631895600E+01 -0.12506361177E+02  0.82731372412E+01  0.16885525809E+02  0.00000000000E+00 0. -1.
</event>
<event>
 7    1  0.2751796E-010  0.4778727E+02  0.7816164E-02  0.1312668E+00
        -11   -1    0    0    0    0  0.00000000000E+00  0.00000000000E+00  0.45593999997E+02  0.45594000000E+02  0.51100000000E-03 0. -1.
         11   -1    0    0    0    0 -0.00000000000E+00 -0.00000000000E+00 -0.45593999997E+02  0.45594000000E+02  0.51100000000E-03 0.  1.
    9900012    2    1    2    0    0 -0.42072370726E+02  0.45800679117E+01  0.96209069847E+01  0.47787271298E+02  0.20000001158E+02 0.  0.
         12    1    1    2    0    0  0.42072370726E+02 -0.45800679117E+01 -0.96209069847E+01  0.43400728702E+02  0.00000000000E+00 0. -1.
         11    1    3    3    0    0 -0.16860496280E+02  0.99788314711E+01  0.76503670314E+01  0.21032867810E+02  0.51100000000E-03 0.  1.
        -11    1    3    3    0    0 -0.12075302855E+02 -0.30158933777E+01 -0.24610036056E+01  0.12687201855E+02  0.51100000000E-03 0. -1.
         12    1    3    3    0    0 -0.13136571591E+02 -0.23828701818E+01  0.44315435590E+01  0.14067201633E+02  0.00000000000E+00 0. -1.
</event>
<event>
 7    1  0.2751796E-010  0.4778727E+02  0.7816164E-02  0.1312668E+00
        -11   -1    0    0    0    0  0.00000000000E+00  0.00000000000E+00  0.45593999997E+02  0.45594000000E+02  0.51100000000E-03 0. -1.
         11   -1    0    0    0    0 -0.00000000000E+00 -0.00000000000E+00 -0.45593999997E+02  0.45594000000E+02  0.51100000000E-03 0.  1.
    9900012    2    1    2    0    0 -0.43186790405E+02  0.14480286452E+01  0.40531017206E+01  0.47787270905E+02  0.19999999365E+02 0.  0.
         12    1    1    2    0    0  0.43186790405E+02 -0.14480286452E+01 -0.40531017206E+01  0.43400729095E+02  0.00000000000E+00 0. -1.
         11    1    3    3    0    0 -0.23122247449E+02 -0.48305288338E+01  0.60564714805E+01  0.24385511743E+02  0.51100000000E-03 0. -1.
        -11    1    3    3    0    0 -0.16997008034E+02  0.26603442780E+01  0.18325998484E+01  0.17301275567E+02  0.51100000000E-03 0.  1.
         12    1    3    3    0    0 -0.30675349222E+01  0.36182132009E+01 -0.38359696083E+01  0.61004835958E+01  0.00000000000E+00 0. -1.
</event>
<event>
 7    1  0.2751796E-010  0.4778724E+02  0.7816164E-02  0.1312668E+00
        -11   -1    0    0    0    0  0.00000000000E+00  0.00000000000E+00  0.45593999997E+02  0.45594000000E+02  0.51100000000E-03 0.  1.
         11   -1    0    0    0    0 -0.00000000000E+00 -0.00000000000E+00 -0.45593999997E+02  0.45594000000E+02  0.51100000000E-03 0. -1.
    9900012    2    1    2    0    0 -0.18652872775E+02 -0.22497029564E+02  0.32087070252E+02  0.47787238725E+02  0.19999852641E+02 0.  0.
         12    1    1    2    0    0  0.18652872775E+02  0.22497029564E+02 -0.32087070252E+02  0.43400761275E+02  0.00000000000E+00 0. -1.
         11    1    3    3    0    0 -0.27080704598E+01  0.41967457471E-01 -0.11738750867E+01  0.29518451624E+01  0.51100000000E-03 0. -1.
        -11    1    3    3    0    0 -0.16362235273E+02 -0.14466303108E+02  0.26136216521E+02  0.34060218482E+02  0.51100000000E-03 0.  1.
        -12    1    3    3    0    0  0.41743295793E+00 -0.80726939131E+01  0.71247288168E+01  0.10775175080E+02  0.00000000000E+00 0.  1.
</event>
<event>
 7    1  0.2751796E-010  0.4778727E+02  0.7816164E-02  0.1312668E+00
        -11   -1    0    0    0    0  0.00000000000E+00  0.00000000000E+00  0.45593999997E+02  0.45594000000E+02  0.51100000000E-03 0. -1.
         11   -1    0    0    0    0 -0.00000000000E+00 -0.00000000000E+00 -0.45593999997E+02  0.45594000000E+02  0.51100000000E-03 0.  1.
    9900012    2    1    2    0    0  0.24732286099E+02 -0.12381867477E+02 -0.33445874282E+02  0.47787272766E+02  0.20000007851E+02 0.  0.
         12    1    1    2    0    0 -0.24732286099E+02  0.12381867477E+02  0.33445874282E+02  0.43400727234E+02  0.00000000000E+00 0. -1.
         11    1    3    3    0    0  0.77986088613E+01 -0.35250462060E+01 -0.12335989590E+01  0.86467345038E+01  0.51100000000E-03 0. -1.
        -11    1    3    3    0    0  0.11879046138E+02 -0.11332272488E+02 -0.21633082095E+02  0.27157363239E+02  0.51100000000E-03 0.  1.
        -12    1    3    3    0    0  0.50546310991E+01  0.24754512175E+01 -0.10579193229E+02  0.11983175024E+02  0.00000000000E+00 0.  1.
</event>
<event>
 7    1  0.2751796E-010  0.4778727E+02  0.7816164E-02  0.1312668E+00
        -11   -1    0    0    0    0  0.00000000000E+00  0.00000000000E+00  0.45593999997E+02  0.45594000000E+02  0.51100000000E-03 0.  1.
         11   -1    0    0    0    0 -0.00000000000E+00 -0.00000000000E+00 -0.45593999997E+02  0.45594000000E+02  0.51100000000E-03 0. -1.
    9900012    2    1    2    0    0  0.16241253790E+02 -0.63638096441E+01  0.39741003639E+02  0.47787265351E+02  0.19999974039E+02 0.  0.
         12    1    1    2    0    0 -0.16241253790E+02  0.63638096441E+01 -0.39741003639E+02  0.43400734649E+02  0.00000000000E+00 0. -1.
         11    1    3    3    0    0  0.27540360575E+01 -0.15505135625E+01 -0.14209198546E+01  0.34652302100E+01  0.51100000000E-03 0. -1.
        -11    1    3    3    0    0  0.13709699474E+02 -0.55188968441E+01  0.33383697144E+02  0.36508701939E+02  0.51100000000E-03 0.  1.
         12    1    3    3    0    0 -0.22248174158E+00  0.70560076252E+00  0.77782263499E+01  0.78133332011E+01  0.00000000000E+00 0. -1.
</event>
<event>
 7    1  0.2751796E-010  0.4778727E+02  0.7816164E-02  0.1312668E+00
        -11   -1    0    0    0    0  0.00000000000E+00  0.00000000000E+00  0.45593999997E+02  0.45594000000E+02  0.51100000000E-03 0. -1.
         11   -1    0    0    0    0 -0.00000000000E+00 -0.00000000000E+00 -0.45593999997E+02  0.45594000000E+02  0.51100000000E-03 0.  1.
    9900012    2    1    2    0    0  0.15716731198E+02  0.38334047023E+02 -0.12927044862E+02  0.47787270863E+02  0.19999999175E+02 0.  0.
         12    1    1    2    0    0 -0.15716731198E+02 -0.38334047023E+02  0.12927044862E+02  0.43400729137E+02  0.00000000000E+00 0. -1.
         11    1    3    3    0    0  0.13345528460E+02  0.12783496970E+02 -0.10535169387E+02  0.21272299333E+02  0.51100000000E-03 0. -1.
        -11    1    3    3    0    0  0.43969029603E+01  0.18505690802E+02 -0.24958821759E+01  0.19183919719E+02  0.51100000000E-03 0.  1.
         12    1    3    3    0    0 -0.20257002222E+01  0.70448592513E+01  0.10400670030E+00  0.73310518110E+01  0.00000000000E+00 0. -1.
</event>
<event>
 7    1  0.2751796E-010  0.4778728E+02  0.7816164E-02  0.1312668E+00
        -11   -1    0    0    0    0  0.00000000000E+00  0.00000000000E+00  0.45593999997E+02  0.45594000000E+02  0.51100000000E-03 0.  1.
         11   -1    0    0    0    0 -0.00000000000E+00 -0.00000000000E+00 -0.45593999997E+02  0.45594000000E+02  0.51100000000E-03 0. -1.
    9900012    2    1    2    0    0 -0.15332992050E+02  0.32007753009E+02  0.24980512350E+02  0.47787275408E+02  0.20000019894E+02 0.  0.
         12    1    1    2    0    0  0.15332992050E+02 -0.32007753009E+02 -0.24980512350E+02  0.43400724592E+02  0.00000000000E+00 0. -1.
         11    1    3    3    0    0 -0.84706925907E+01  0.56952541784E+01  0.20495826200E+01  0.10411020233E+02  0.51100000000E-03 0. -1.
        -11    1    3    3    0    0 -0.31585448719E+01  0.25166981555E+02  0.17992947116E+02  0.31098223622E+02  0.51100000000E-03 0.  1.
        -12    1    3    3    0    0 -0.37037545871E+01  0.11455172755E+01  0.49379826143E+01  0.62780315521E+01  0.00000000000E+00 0.  1.
</event>
<event>
 7    1  0.2751796E-010  0.4778727E+02  0.7816164E-02  0.1312668E+00
        -11   -1    0    0    0    0  0.00000000000E+00  0.00000000000E+00  0.45593999997E+02  0.45594000000E+02  0.51100000000E-03 0. -1.
         11   -1    0    0    0    0 -0.00000000000E+00 -0.00000000000E+00 -0.45593999997E+02  0.45594000000E+02  0.51100000000E-03 0.  1.
    9900012    2    1    2    0    0  0.16287208988E+01  0.78213585228E+00 -0.43363102523E+02  0.47787272717E+02  0.20000007627E+02 0.  0.
         12    1    1    2    0    0 -0.16287208988E+01 -0.78213585228E+00  0.43363102523E+02  0.43400727283E+02  0.00000000000E+00 0. -1.
         11    1    3    3    0    0  0.15753281951E+01 -0.12940394955E+01 -0.49966954061E+00  0.20990157334E+01  0.51100000000E-03 0. -1.
        -11    1    3    3    0    0  0.35420473967E+01 -0.53486512197E+01 -0.27854312462E+02  0.28583507354E+02  0.51100000000E-03 0.  1.
        -12    1    3    3    0    0 -0.34886546930E+01  0.74248265675E+01 -0.15009120520E+02  0.17104749630E+02  0.00000000000E+00 0.  1.
</event>
<event>
 7    1  0.2751796E-010  0.4778727E+02  0.7816164E-02  0.1312668E+00
        -11   -1    0    0    0    0  0.00000000000E+00  0.00000000000E+00  0.45593999997E+02  0.45594000000E+02  0.51100000000E-03 0.  1.
         11   -1    0    0    0    0 -0.00000000000E+00 -0.00000000000E+00 -0.45593999997E+02  0.45594000000E+02  0.51100000000E-03 0. -1.
    9900012    2    1    2    0    0  0.14686064088E+02  0.13537176785E+02  0.38531645187E+02  0.47787270576E+02  0.19999997865E+02 0.  0.
         12    1    1    2    0    0 -0.14686064088E+02 -0.13537176785E+02 -0.38531645187E+02  0.43400729424E+02  0.00000000000E+00 0. -1.
         11    1    3    3    0    0  0.92225783351E+00 -0.19485754767E+01  0.15387936228E+01  0.26486585235E+01  0.51100000000E-03 0. -1.
        -11    1    3    3    0    0  0.12763174098E+02  0.29600352716E+01  0.16090810680E+02  0.20750291816E+02  0.51100000000E-03 0.  1.
        -12    1    3    3    0    0  0.10006321566E+01  0.12525716990E+02  0.20902040884E+02  0.24388320237E+02  0.00000000000E+00 0.  1.
</event>
<event>
 7    1  0.2751796E-010  0.4778727E+02  0.7816164E-02  0.1312668E+00
        -11   -1    0    0    0    0  0.00000000000E+00  0.00000000000E+00  0.45593999997E+02  0.45594000000E+02  0.51100000000E-03 0.  1.
         11   -1    0    0    0    0 -0.00000000000E+00 -0.00000000000E+00 -0.45593999997E+02  0.45594000000E+02  0.51100000000E-03 0. -1.
    9900012    2    1    2    0    0  0.11163782623E+02 -0.85872432355E+01  0.41051826055E+02  0.47787271765E+02  0.20000003286E+02 0.  0.
         12    1    1    2    0    0 -0.11163782623E+02  0.85872432355E+01 -0.41051826055E+02  0.43400728235E+02  0.00000000000E+00 0. -1.
         11    1    3    3    0    0 -0.29400590271E+01  0.34889511988E+01  0.37172573520E+01  0.58851278688E+01  0.51100000000E-03 0. -1.
        -11    1    3    3    0    0  0.13166206271E+02 -0.93731386206E+01  0.31542815063E+02  0.35442261462E+02  0.51100000000E-03 0.  1.
        -12    1    3    3    0    0  0.93763537925E+00 -0.27030558136E+01  0.57917536404E+01  0.64598824345E+01  0.00000000000E+00 0.  1.
</event>
<event>
 7    1  0.2751796E-010  0.4778728E+02  0.7816164E-02  0.1312668E+00
        -11   -1    0    0    0    0  0.00000000000E+00  0.00000000000E+00  0.45593999997E+02  0.45594000000E+02  0.51100000000E-03 0. -1.
         11   -1    0    0    0    0 -0.00000000000E+00 -0.00000000000E+00 -0.45593999997E+02  0.45594000000E+02  0.51100000000E-03 0.  1.
    9900012    2    1    2    0    0 -0.19759177365E+02  0.34433574819E+02 -0.17536438785E+02  0.47787275925E+02  0.20000022253E+02 0.  0.
         12    1    1    2    0    0  0.19759177365E+02 -0.34433574819E+02  0.17536438785E+02  0.43400724075E+02  0.00000000000E+00 0. -1.
         11    1    3    3    0    0 -0.68459862264E+00  0.16829224939E+02 -0.47428852341E+01  0.17498184132E+02  0.51100000000E-03 0. -1.
        -11    1    3    3    0    0 -0.47689277869E+01  0.83348926080E+01 -0.12080518207E+01  0.96784552738E+01  0.51100000000E-03 0.  1.
         12    1    3    3    0    0 -0.14305650956E+02  0.92694572719E+01 -0.11585501730E+02  0.20610636519E+02  0.00000000000E+00 0. -1.
</event>
<event>
 7    1  0.2751796E-010  0.4778727E+02  0.7816164E-02  0.1312668E+00
        -11   -1    0    0    0    0  0.00000000000E+00  0.00000000000E+00  0.45593999997E+02  0.45594000000E+02  0.51100000000E-03 0.  1.
         11   -1    0    0    0    0 -0.00000000000E+00 -0.00000000000E+00 -0.45593999997E+02  0.45594000000E+02  0.51100000000E-03 0. -1.
    9900012    2    1    2    0    0  0.37471723997E+02  0.95453305508E+01 -0.19707358711E+02  0.47787269338E+02  0.19999992219E+02 0.  0.
         12    1    1    2    0    0 -0.37471723997E+02 -0.95453305508E+01  0.19707358711E+02  0.43400730662E+02  0.00000000000E+00 0. -1.
         11    1    3    3    0    0  0.21321985065E+02  0.13962495971E+02 -0.10449540063E+02  0.27545802378E+02  0.51100000000E-03 0. -1.
        -11    1    3    3    0    0  0.63601646177E+01 -0.84879929286E+00 -0.17524816725E+00  0.64189458936E+01  0.51100000000E-03 0.  1.
         12    1    3    3    0    0  0.97895743141E+01 -0.35683661277E+01 -0.90825704811E+01  0.13822521066E+02  0.00000000000E+00 0. -1.
</event>
<event>
 7    1  0.2751796E-010  0.4778727E+02  0.7816164E-02  0.1312668E+00
        -11   -1    0    0    0    0  0.00000000000E+00  0.00000000000E+00  0.45593999997E+02  0.45594000000E+02  0.51100000000E-03 0.  1.
         11   -1    0    0    0    0 -0.00000000000E+00 -0.00000000000E+00 -0.45593999997E+02  0.45594000000E+02  0.51100000000E-03 0. -1.
    9900012    2    1    2    0    0  0.73174693247E+01  0.13469550572E+01  0.42758203300E+02  0.47787267348E+02  0.19999983147E+02 0.  0.
         12    1    1    2    0    0 -0.73174693247E+01 -0.13469550572E+01 -0.42758203300E+02  0.43400732652E+02  0.00000000000E+00 0. -1.
         11    1    3    3    0    0  0.63043156658E+01 -0.42720092069E+00  0.14213806531E+02  0.15555037545E+02  0.51100000000E-03 0.  1.
        -11    1    3    3    0    0  0.28076428254E+01 -0.23039657274E+01  0.30636058080E+00  0.36448557413E+01  0.51100000000E-03 0. -1.
        -12    1    3    3    0    0 -0.17944891665E+01  0.40781217054E+01  0.28238036188E+02  0.28587374062E+02  0.00000000000E+00 0.  1.
</event>
<event>
 7    1  0.2751796E-010  0.4778727E+02  0.7816164E-02  0.1312668E+00
        -11   -1    0    0    0    0  0.00000000000E+00  0.00000000000E+00  0.45593999997E+02  0.45594000000E+02  0.51100000000E-03 0. -1.
         11   -1    0    0    0    0 -0.00000000000E+00 -0.00000000000E+00 -0.45593999997E+02  0.45594000000E+02  0.51100000000E-03 0.  1.
    9900012    2    1    2    0    0 -0.21243609949E+02  0.32862003910E+02 -0.18772878485E+02  0.47787271536E+02  0.20000002239E+02 0.  0.
         12    1    1    2    0    0  0.21243609949E+02 -0.32862003910E+02  0.18772878485E+02  0.43400728464E+02  0.00000000000E+00 0. -1.
         11    1    3    3    0    0 -0.24164239265E+02  0.24985598689E+02 -0.12180919815E+02  0.36831581678E+02  0.51100000000E-03 0. -1.
        -11    1    3    3    0    0  0.16384458333E+01  0.18077889558E+01 -0.11208125624E+01  0.26849258311E+01  0.51100000000E-03 0.  1.
         12    1    3    3    0    0  0.12821834823E+01  0.60686162648E+01 -0.54711461071E+01  0.82707640262E+01  0.00000000000E+00 0. -1.
</event>
<event>
 7    1  0.2751796E-010  0.4778728E+02  0.7816164E-02  0.1312668E+00
        -11   -1    0    0    0    0  0.00000000000E+00  0.00000000000E+00  0.45593999997E+02  0.45594000000E+02  0.51100000000E-03 0.  1.
         11   -1    0    0    0    0 -0.00000000000E+00 -0.00000000000E+00 -0.45593999997E+02  0.45594000000E+02  0.51100000000E-03 0. -1.
    9900012    2    1    2    0    0  0.11918788890E+02  0.15973053822E+02  0.38554201059E+02  0.47787281155E+02  0.20000046096E+02 0.  0.
         12    1    1    2    0    0 -0.11918788890E+02 -0.15973053822E+02 -0.38554201059E+02  0.43400718845E+02  0.00000000000E+00 0. -1.
         11    1    3    3    0    0  0.24964314054E+01 -0.18598553854E+01 -0.17108113959E+00  0.31177717739E+01  0.51100000000E-03 0. -1.
        -11    1    3    3    0    0  0.70108478357E+01  0.71057060082E+01  0.26010480950E+02  0.27860153710E+02  0.51100000000E-03 0.  1.
         12    1    3    3    0    0  0.24115096491E+01  0.10727203199E+02  0.12714801249E+02  0.16809355670E+02  0.00000000000E+00 0. -1.
</event>
<event>
 7    1  0.2751796E-010  0.4778724E+02  0.7816164E-02  0.1312668E+00
        -11   -1    0    0    0    0  0.00000000000E+00  0.00000000000E+00  0.45593999997E+02  0.45594000000E+02  0.51100000000E-03 0.  1.
         11   -1    0    0    0    0 -0.00000000000E+00 -0.00000000000E+00 -0.45593999997E+02  0.45594000000E+02  0.51100000000E-03 0. -1.
    9900012    2    1    2    0    0 -0.50378990037E+01 -0.46115114682E+01  0.42859997332E+02  0.47787241531E+02  0.19999865435E+02 0.  0.
         12    1    1    2    0    0  0.50378990037E+01  0.46115114682E+01 -0.42859997332E+02  0.43400758469E+02  0.00000000000E+00 0. -1.
         11    1    3    3    0    0 -0.35350813463E+01  0.40745351781E+01  0.29958870048E+01  0.61704113517E+01  0.51100000000E-03 0. -1.
        -11    1    3    3    0    0 -0.39015687273E+01 -0.42855758599E+01  0.29976104523E+02  0.30531217494E+02  0.51100000000E-03 0.  1.
         12    1    3    3    0    0  0.23987510700E+01 -0.44004707864E+01  0.98880058038E+01  0.11085612686E+02  0.00000000000E+00 0. -1.
</event>
<event>
 7    1  0.2751796E-010  0.4778728E+02  0.7816164E-02  0.1312668E+00
        -11   -1    0    0    0    0  0.00000000000E+00  0.00000000000E+00  0.45593999997E+02  0.45594000000E+02  0.51100000000E-03 0. -1.
         11   -1    0    0    0    0 -0.00000000000E+00 -0.00000000000E+00 -0.45593999997E+02  0.45594000000E+02  0.51100000000E-03 0.  1.
    9900012    2    1    2    0    0 -0.21162974172E+01  0.43301138686E+02 -0.20384587950E+01  0.47787278341E+02  0.20000033269E+02 0.  0.
         12    1    1    2    0    0  0.21162974172E+01 -0.43301138686E+02  0.20384587950E+01  0.43400721659E+02  0.00000000000E+00 0. -1.
         11    1    3    3    0    0  0.16299343636E+01  0.89858802833E+01 -0.73360440959E+01  0.11714105759E+02  0.51100000000E-03 0. -1.
        -11    1    3    3    0    0 -0.56407576402E+01  0.32137594054E+02  0.38840984563E+01  0.32859234919E+02  0.51100000000E-03 0.  1.
         12    1    3    3    0    0  0.18945258595E+01  0.21776643482E+01  0.14134868446E+01  0.32139376636E+01  0.00000000000E+00 0. -1.
</event>
<event>
 7    1  0.2751796E-010  0.4778727E+02  0.7816164E-02  0.1312668E+00
        -11   -1    0    0    0    0  0.00000000000E+00  0.00000000000E+00  0.45593999997E+02  0.45594000000E+02  0.51100000000E-03 0. -1.
         11   -1    0    0    0    0 -0.00000000000E+00 -0.00000000000E+00 -0.45593999997E+02  0.45594000000E+02  0.51100000000E-03 0.  1.
    9900012    2    1    2    0    0  0.23309096757E+02 -0.23712592189E+02 -0.27893048565E+02  0.47787272147E+02  0.20000005026E+02 0.  0.
         12    1    1    2    0    0 -0.23309096757E+02  0.23712592189E+02  0.27893048565E+02  0.43400727853E+02  0.00000000000E+00 0. -1.
         11    1    3    3    0    0  0.32581313080E+01 -0.22922201423E+01  0.26997046945E-01  0.39837698104E+01  0.51100000000E-03 0. -1.
        -11    1    3    3    0    0  0.20558354901E+02 -0.18703985151E+02 -0.17092295726E+02  0.32628692745E+02  0.51100000000E-03 0.  1.
        -12    1    3    3    0    0 -0.50738945275E+00 -0.27163868960E+01 -0.10827749886E+02  0.11174809592E+02  0.00000000000E+00 0.  1.
</event>
<event>
 7    1  0.2751796E-010  0.4778727E+02  0.7816164E-02  0.1312668E+00
        -11   -1    0    0    0    0  0.00000000000E+00  0.00000000000E+00  0.45593999997E+02  0.45594000000E+02  0.51100000000E-03 0. -1.
         11   -1    0    0    0    0 -0.00000000000E+00 -0.00000000000E+00 -0.45593999997E+02  0.45594000000E+02  0.51100000000E-03 0.  1.
    9900012    2    1    2    0    0 -0.41989145996E+02  0.10855270667E+02  0.16424566979E+01  0.47787274813E+02  0.20000017183E+02 0.  0.
         12    1    1    2    0    0  0.41989145996E+02 -0.10855270667E+02 -0.16424566979E+01  0.43400725187E+02  0.00000000000E+00 0. -1.
         11    1    3    3    0    0 -0.83753700741E+01  0.22452555566E+01 -0.48006412695E+01  0.99113144058E+01  0.51100000000E-03 0. -1.
        -11    1    3    3    0    0 -0.33689864988E+02  0.61636132360E+01  0.41104084124E+01  0.34494819736E+02  0.51100000000E-03 0.  1.
        -12    1    3    3    0    0  0.76089066271E-01  0.24464018747E+01  0.23326895550E+01  0.33811406712E+01  0.00000000000E+00 0.  1.
</event>
<event>
 7    1  0.2751796E-010  0.4778727E+02  0.7816164E-02  0.1312668E+00
        -11   -1    0    0    0    0  0.00000000000E+00  0.00000000000E+00  0.45593999997E+02  0.45594000000E+02  0.51100000000E-03 0. -1.
         11   -1    0    0    0    0 -0.00000000000E+00 -0.00000000000E+00 -0.45593999997E+02  0.45594000000E+02  0.51100000000E-03 0.  1.
    9900012    2    1    2    0    0  0.55255328124E+01 -0.38662848128E+02 -0.18928179126E+02  0.47787270706E+02  0.19999998458E+02 0.  0.
         12    1    1    2    0    0 -0.55255328124E+01  0.38662848128E+02  0.18928179126E+02  0.43400729294E+02  0.00000000000E+00 0. -1.
         11    1    3    3    0    0  0.73667998439E+01 -0.15537315238E+02 -0.15336269266E+01  0.17263542990E+02  0.51100000000E-03 0. -1.
        -11    1    3    3    0    0 -0.10634080967E+01 -0.33455534322E+01 -0.77414590156E+01  0.85002207324E+01  0.51100000000E-03 0.  1.
        -12    1    3    3    0    0 -0.77785893481E+00 -0.19779979457E+02 -0.96530931838E+01  0.22023506984E+02  0.00000000000E+00 0.  1.
</event>
<event>
 7    1  0.2751796E-010  0.4778727E+02  0.7816164E-02  0.1312668E+00
        -11   -1    0    0    0    0  0.00000000000E+00  0.00000000000E+00  0.45593999997E+02  0.45594000000E+02  0.51100000000E-03 0.  1.
         11   -1    0    0    0    0 -0.00000000000E+00 -0.00000000000E+00 -0.45593999997E+02  0.45594000000E+02  0.51100000000E-03 0. -1.
    9900012    2    1    2    0    0 -0.15863326583E+02 -0.13998526546E+02  0.37894848277E+02  0.47787269572E+02  0.19999993287E+02 0.  0.
         12    1    1    2    0    0  0.15863326583E+02  0.13998526546E+02 -0.37894848277E+02  0.43400730428E+02  0.00000000000E+00 0. -1.
         11    1    3    3    0    0 -0.78040899025E+01 -0.49552387619E+01  0.39039498155E+01  0.10034890872E+02  0.51100000000E-03 0. -1.
        -11    1    3    3    0    0 -0.70627136409E+01 -0.17644378616E+01  0.25526786509E+02  0.26544528527E+02  0.51100000000E-03 0.  1.
        -12    1    3    3    0    0 -0.99652303927E+00 -0.72788499228E+01  0.84641119520E+01  0.11207850173E+02  0.00000000000E+00 0.  1.
</event>
<event>
 7    1  0.3102177E-010  0.4778727E+02  0.7816164E-02  0.1312668E+00
        -11   -1    0    0    0    0  0.00000000000E+00  0.00000000000E+00  0.45593999997E+02  0.45594000000E+02  0.51100000000E-03 0.  1.
         11   -1    0    0    0    0 -0.00000000000E+00 -0.00000000000E+00 -0.45593999997E+02  0.45594000000E+02  0.51100000000E-03 0. -1.
    9900012    2    1    2    0    0  0.28794785628E+02  0.14492518492E+02  0.29059433399E+02  0.47787269118E+02  0.19999991215E+02 0.  0.
         12    1    1    2    0    0 -0.28794785628E+02 -0.14492518492E+02 -0.29059433399E+02  0.43400730882E+02  0.00000000000E+00 0. -1.
         11    1    3    3    0    0  0.46797701394E+01  0.23302442197E+01 -0.13467133519E+01  0.53985112572E+01  0.51100000000E-03 0. -1.
        -11    1    3    3    0    0  0.16531777656E+02  0.13869947171E+02  0.24341015253E+02  0.32529373354E+02  0.51100000000E-03 0.  1.
         12    1    3    3    0    0  0.75832378327E+01 -0.17076728980E+01  0.60651314984E+01  0.98593845065E+01  0.00000000000E+00 0. -1.
</event>
<event>
 7    1  0.2751796E-010  0.4778728E+02  0.7816164E-02  0.1312668E+00
        -11   -1    0    0    0    0  0.00000000000E+00  0.00000000000E+00  0.45593999997E+02  0.45594000000E+02  0.51100000000E-03 0. -1.
         11   -1    0    0    0    0 -0.00000000000E+00 -0.00000000000E+00 -0.45593999997E+02  0.45594000000E+02  0.51100000000E-03 0.  1.
    9900012    2    1    2    0    0  0.25931830574E+02 -0.30418449479E+02 -0.16908015623E+02  0.47787275376E+02  0.20000019748E+02 0.  0.
         12    1    1    2    0    0 -0.25931830574E+02  0.30418449479E+02  0.16908015623E+02  0.43400724624E+02  0.00000000000E+00 0. -1.
         11    1    3    3    0    0 -0.13276110404E+01  0.72847849456E+00 -0.24430450653E+00  0.15339220791E+01  0.51100000000E-03 0. -1.
        -11    1    3    3    0    0  0.20104245191E+02 -0.21109711335E+02 -0.17321677953E+02  0.33909307199E+02  0.51100000000E-03 0.  1.
        -12    1    3    3    0    0  0.71551964230E+01 -0.10037216639E+02  0.65796683616E+00  0.12344046098E+02  0.00000000000E+00 0.  1.
</event>
<event>
 7    1  0.2751796E-010  0.4778726E+02  0.7816164E-02  0.1312668E+00
        -11   -1    0    0    0    0  0.00000000000E+00  0.00000000000E+00  0.45593999997E+02  0.45594000000E+02  0.51100000000E-03 0.  1.
         11   -1    0    0    0    0 -0.00000000000E+00 -0.00000000000E+00 -0.45593999997E+02  0.45594000000E+02  0.51100000000E-03 0. -1.
    9900012    2    1    2    0    0  0.13804803572E+02  0.32436520484E+02  0.25316475782E+02  0.47787257970E+02  0.19999940388E+02 0.  0.
         12    1    1    2    0    0 -0.13804803572E+02 -0.32436520484E+02 -0.25316475782E+02  0.43400742030E+02  0.00000000000E+00 0. -1.
         11    1    3    3    0    0 -0.44322159150E+01  0.11407141001E+02  0.52243871908E+01  0.13306450523E+02  0.51100000000E-03 0. -1.
        -11    1    3    3    0    0  0.88149693846E+01  0.12506956020E+02  0.11560101167E+02  0.19177162809E+02  0.51100000000E-03 0.  1.
         12    1    3    3    0    0  0.94220501025E+01  0.85224234629E+01  0.85319874237E+01  0.15303644638E+02  0.00000000000E+00 0. -1.
</event>
<event>
 7    1  0.2751796E-010  0.4778727E+02  0.7816164E-02  0.1312668E+00
        -11   -1    0    0    0    0  0.00000000000E+00  0.00000000000E+00  0.45593999997E+02  0.45594000000E+02  0.51100000000E-03 0. -1.
         11   -1    0    0    0    0 -0.00000000000E+00 -0.00000000000E+00 -0.45593999997E+02  0.45594000000E+02  0.51100000000E-03 0.  1.
    9900012    2    1    2    0    0 -0.34069230288E+02  0.11086093205E+02 -0.24495082973E+02  0.47787274144E+02  0.20000014132E+02 0.  0.
         12    1    1    2    0    0  0.34069230288E+02 -0.11086093205E+02  0.24495082973E+02  0.43400725856E+02  0.00000000000E+00 0. -1.
         11    1    3    3    0    0 -0.19724690403E+01 -0.29818723632E+01 -0.24938836801E+01  0.43590885489E+01  0.51100000000E-03 0. -1.
        -11    1    3    3    0    0 -0.12957561059E+02  0.12400089408E+02 -0.79048433657E+01  0.19599672314E+02  0.51100000000E-03 0.  1.
        -12    1    3    3    0    0 -0.19139200189E+02  0.16678761597E+01 -0.14096355927E+02  0.23828513281E+02  0.00000000000E+00 0.  1.
</event>
<event>
 7    1  0.2751796E-010  0.4778727E+02  0.7816164E-02  0.1312668E+00
        -11   -1    0    0    0    0  0.00000000000E+00  0.00000000000E+00  0.45593999997E+02  0.45594000000E+02  0.51100000000E-03 0.  1.
         11   -1    0    0    0    0 -0.00000000000E+00 -0.00000000000E+00 -0.45593999997E+02  0.45594000000E+02  0.51100000000E-03 0. -1.
    9900012    2    1    2    0    0 -0.43002854125E+02  0.56631813045E+01  0.15185312954E+01  0.47787273938E+02  0.20000013192E+02 0.  0.
         12    1    1    2    0    0  0.43002854125E+02 -0.56631813045E+01 -0.15185312954E+01  0.43400726062E+02  0.00000000000E+00 0. -1.
         11    1    3    3    0    0 -0.20076172207E+01 -0.19287138351E+01 -0.46075370953E+01  0.53832947447E+01  0.51100000000E-03 0. -1.
        -11    1    3    3    0    0 -0.10706014010E+02  0.20074991826E+01 -0.48238369343E+00  0.10903278555E+02  0.51100000000E-03 0.  1.
         12    1    3    3    0    0 -0.30289222895E+02  0.55843959570E+01  0.66084520842E+01  0.31500700639E+02  0.00000000000E+00 0. -1.
</event>
<event>
 7    1  0.2751796E-010  0.4778727E+02  0.7816164E-02  0.1312668E+00
        -11   -1    0    0    0    0  0.00000000000E+00  0.00000000000E+00  0.45593999997E+02  0.45594000000E+02  0.51100000000E-03 0. -1.
         11   -1    0    0    0    0 -0.00000000000E+00 -0.00000000000E+00 -0.45593999997E+02  0.45594000000E+02  0.51100000000E-03 0.  1.
    9900012    2    1    2    0    0 -0.38179317572E+02 -0.35818528139E+01 -0.20325685167E+02  0.47787269162E+02  0.19999991416E+02 0.  0.
         12    1    1    2    0    0  0.38179317572E+02  0.35818528139E+01  0.20325685167E+02  0.43400730838E+02  0.00000000000E+00 0. -1.
         11    1    3    3    0    0 -0.17031288908E+02 -0.10905942410E+02 -0.56461769473E+01  0.20997230677E+02  0.51100000000E-03 0. -1.
        -11    1    3    3    0    0 -0.12369274010E+02  0.41316204557E+01 -0.78904406392E+01  0.15242318749E+02  0.51100000000E-03 0.  1.
         12    1    3    3    0    0 -0.87787546539E+01  0.31924691400E+01 -0.67890675802E+01  0.11547719736E+02  0.00000000000E+00 0. -1.
</event>
<event>
 7    1  0.2751796E-010  0.4778728E+02  0.7816164E-02  0.1312668E+00
        -11   -1    0    0    0    0  0.00000000000E+00  0.00000000000E+00  0.45593999997E+02  0.45594000000E+02  0.51100000000E-03 0.  1.
         11   -1    0    0    0    0 -0.00000000000E+00 -0.00000000000E+00 -0.45593999997E+02  0.45594000000E+02  0.51100000000E-03 0. -1.
    9900012    2    1    2    0    0 -0.15248447164E+02  0.12672747822E+02  0.38607109391E+02  0.47787279110E+02  0.20000036773E+02 0.  0.
         12    1    1    2    0    0  0.15248447164E+02 -0.12672747822E+02 -0.38607109391E+02  0.43400720890E+02  0.00000000000E+00 0. -1.
         11    1    3    3    0    0 -0.66848953261E+01  0.37848019300E+01  0.17616286363E+01  0.78813632630E+01  0.51100000000E-03 0. -1.
        -11    1    3    3    0    0 -0.64505581682E+01  0.40421156525E+01  0.31426929770E+02  0.32335743607E+02  0.51100000000E-03 0.  1.
        -12    1    3    3    0    0 -0.21129936696E+01  0.48458302397E+01  0.54185509850E+01  0.75701722396E+01  0.00000000000E+00 0.  1.
</event>
<event>
 7    1  0.2751796E-010  0.4778727E+02  0.7816164E-02  0.1312668E+00
        -11   -1    0    0    0    0  0.00000000000E+00  0.00000000000E+00  0.45593999997E+02  0.45594000000E+02  0.51100000000E-03 0.  1.
         11   -1    0    0    0    0 -0.00000000000E+00 -0.00000000000E+00 -0.45593999997E+02  0.45594000000E+02  0.51100000000E-03 0. -1.
    9900012    2    1    2    0    0 -0.37040820676E+02 -0.11730265303E+02  0.19339128455E+02  0.47787269479E+02  0.19999992861E+02 0.  0.
         12    1    1    2    0    0  0.37040820676E+02  0.11730265303E+02 -0.19339128455E+02  0.43400730521E+02  0.00000000000E+00 0. -1.
         11    1    3    3    0    0 -0.10351588395E+02 -0.95055965390E+01  0.56207610524E+00  0.14065122739E+02  0.51100000000E-03 0. -1.
        -11    1    3    3    0    0 -0.23791267955E+02 -0.14366645679E+01  0.12850479073E+02  0.27078095366E+02  0.51100000000E-03 0.  1.
         12    1    3    3    0    0 -0.28979643252E+01 -0.78800419625E+00  0.59265732769E+01  0.66440513732E+01  0.00000000000E+00 0. -1.
</event>
<event>
 7    1  0.2751796E-010  0.4778727E+02  0.7816164E-02  0.1312668E+00
        -11   -1    0    0    0    0  0.00000000000E+00  0.00000000000E+00  0.45593999997E+02  0.45594000000E+02  0.51100000000E-03 0.  1.
         11   -1    0    0    0    0 -0.00000000000E+00 -0.00000000000E+00 -0.45593999997E+02  0.45594000000E+02  0.51100000000E-03 0. -1.
    9900012    2    1    2    0    0  0.35495945021E+02  0.83307375969E+01  0.23542729950E+02  0.47787269184E+02  0.19999991519E+02 0.  0.
         12    1    1    2    0    0 -0.35495945021E+02 -0.83307375969E+01 -0.23542729950E+02  0.43400730816E+02  0.00000000000E+00 0. -1.
         11    1    3    3    0    0  0.41869353135E+01 -0.42736030483E+01  0.20232269576E+01  0.63156597373E+01  0.51100000000E-03 0. -1.
        -11    1    3    3    0    0  0.28445812889E+02  0.95341870069E+01  0.22060497163E+02  0.37238830918E+02  0.51100000000E-03 0.  1.
        -12    1    3    3    0    0  0.28631968183E+01  0.30701536384E+01 -0.54099417070E+00  0.42327785291E+01  0.00000000000E+00 0.  1.
</event>
<event>
 7    1  0.2751796E-010  0.4778727E+02  0.7816164E-02  0.1312668E+00
        -11   -1    0    0    0    0  0.00000000000E+00  0.00000000000E+00  0.45593999997E+02  0.45594000000E+02  0.51100000000E-03 0.  1.
         11   -1    0    0    0    0 -0.00000000000E+00 -0.00000000000E+00 -0.45593999997E+02  0.45594000000E+02  0.51100000000E-03 0. -1.
    9900012    2    1    2    0    0 -0.11451523763E+02 -0.95161419706E+01  0.40766763928E+02  0.47787269642E+02  0.19999993605E+02 0.  0.
         12    1    1    2    0    0  0.11451523763E+02  0.95161419706E+01 -0.40766763928E+02  0.43400730358E+02  0.00000000000E+00 0. -1.
         11    1    3    3    0    0  0.41352636389E+01 -0.12147181335E+01  0.10874905906E+02  0.11697842717E+02  0.51100000000E-03 0. -1.
        -11    1    3    3    0    0 -0.12234617850E+02 -0.88994121947E+01  0.28768134852E+02  0.32503707396E+02  0.51100000000E-03 0.  1.
        -12    1    3    3    0    0 -0.33521695518E+01  0.59798835762E+00  0.11237231695E+01  0.35857195291E+01  0.00000000000E+00 0.  1.
</event>
<event>
 7    1  0.2751796E-010  0.4778727E+02  0.7816164E-02  0.1312668E+00
        -11   -1    0    0    0    0  0.00000000000E+00  0.00000000000E+00  0.45593999997E+02  0.45594000000E+02  0.51100000000E-03 0.  1.
         11   -1    0    0    0    0 -0.00000000000E+00 -0.00000000000E+00 -0.45593999997E+02  0.45594000000E+02  0.51100000000E-03 0. -1.
    9900012    2    1    2    0    0 -0.11277899379E+02  0.10870842034E+02  0.40475390343E+02  0.47787269081E+02  0.19999991046E+02 0.  0.
         12    1    1    2    0    0  0.11277899379E+02 -0.10870842034E+02 -0.40475390343E+02  0.43400730919E+02  0.00000000000E+00 0. -1.
         11    1    3    3    0    0 -0.58296116032E+01  0.29872375309E+01  0.21521833253E+01  0.68949149985E+01  0.51100000000E-03 0. -1.
        -11    1    3    3    0    0 -0.15944065041E+01  0.17799309525E+01  0.29014521374E+02  0.29112759009E+02  0.51100000000E-03 0.  1.
        -12    1    3    3    0    0 -0.38538812716E+01  0.61036735512E+01  0.93086856439E+01  0.11779595073E+02  0.00000000000E+00 0.  1.
</event>
<event>
 7    1  0.2751796E-010  0.4778727E+02  0.7816164E-02  0.1312668E+00
        -11   -1    0    0    0    0  0.00000000000E+00  0.00000000000E+00  0.45593999997E+02  0.45594000000E+02  0.51100000000E-03 0.  1.
         11   -1    0    0    0    0 -0.00000000000E+00 -0.00000000000E+00 -0.45593999997E+02  0.45594000000E+02  0.51100000000E-03 0. -1.
    9900012    2    1    2    0    0  0.91485172797E+01 -0.38342019081E+02  0.18160880811E+02  0.47787269736E+02  0.19999994034E+02 0.  0.
         12    1    1    2    0    0 -0.91485172797E+01  0.38342019081E+02 -0.18160880811E+02  0.43400730264E+02  0.00000000000E+00 0. -1.
         11    1    3    3    0    0 -0.32826193834E+01 -0.90198529320E+01  0.66311292515E+01  0.11666413860E+02  0.51100000000E-03 0. -1.
        -11    1    3    3    0    0  0.14520763990E+02 -0.27058473166E+02  0.86494499595E+01  0.31903393891E+02  0.51100000000E-03 0.  1.
        -12    1    3    3    0    0 -0.20896273268E+01 -0.22636929833E+01  0.28803016003E+01  0.42174619851E+01  0.00000000000E+00 0.  1.
</event>
<event>
 7    1  0.2751796E-010  0.4778727E+02  0.7816164E-02  0.1312668E+00
        -11   -1    0    0    0    0  0.00000000000E+00  0.00000000000E+00  0.45593999997E+02  0.45594000000E+02  0.51100000000E-03 0.  1.
         11   -1    0    0    0    0 -0.00000000000E+00 -0.00000000000E+00 -0.45593999997E+02  0.45594000000E+02  0.51100000000E-03 0. -1.
    9900012    2    1    2    0    0 -0.34662763528E+02 -0.67928121230E+01  0.25218526564E+02  0.47787267817E+02  0.19999985286E+02 0.  0.
         12    1    1    2    0    0  0.34662763528E+02  0.67928121230E+01 -0.25218526564E+02  0.43400732183E+02  0.00000000000E+00 0. -1.
         11    1    3    3    0    0 -0.39934928435E+01  0.30214010806E+01  0.92834066661E+01  0.10547913972E+02  0.51100000000E-03 0. -1.
        -11    1    3    3    0    0 -0.23659876555E+02 -0.32554297777E+01  0.96117319780E+01  0.25744377513E+02  0.51100000000E-03 0.  1.
         12    1    3    3    0    0 -0.70093941298E+01 -0.65587834259E+01  0.63233879198E+01  0.11494976332E+02  0.00000000000E+00 0. -1.
</event>
<event>
 7    1  0.2751796E-010  0.4778727E+02  0.7816164E-02  0.1312668E+00
        -11   -1    0    0    0    0  0.00000000000E+00  0.00000000000E+00  0.45593999997E+02  0.45594000000E+02  0.51100000000E-03 0. -1.
         11   -1    0    0    0    0 -0.00000000000E+00 -0.00000000000E+00 -0.45593999997E+02  0.45594000000E+02  0.51100000000E-03 0.  1.
    9900012    2    1    2    0    0  0.61619449656E+01 -0.38514865671E+02 -0.19033102800E+02  0.47787269066E+02  0.19999990979E+02 0.  0.
         12    1    1    2    0    0 -0.61619449656E+01  0.38514865671E+02  0.19033102800E+02  0.43400730934E+02  0.00000000000E+00 0. -1.
         11    1    3    3    0    0 -0.58913428957E+00 -0.17156689742E+01  0.24842343335E+01  0.30760396169E+01  0.51100000000E-03 0. -1.
        -11    1    3    3    0    0  0.86244315708E+01 -0.17459188125E+02 -0.13481989405E+02  0.23684765324E+02  0.51100000000E-03 0.  1.
         12    1    3    3    0    0 -0.18733523157E+01 -0.19340008572E+02 -0.80353477291E+01  0.21026464125E+02  0.00000000000E+00 0. -1.
</event>
<event>
 7    1  0.2751796E-010  0.4778728E+02  0.7816164E-02  0.1312668E+00
        -11   -1    0    0    0    0  0.00000000000E+00  0.00000000000E+00  0.45593999997E+02  0.45594000000E+02  0.51100000000E-03 0.  1.
         11   -1    0    0    0    0 -0.00000000000E+00 -0.00000000000E+00 -0.45593999997E+02  0.45594000000E+02  0.51100000000E-03 0. -1.
    9900012    2    1    2    0    0 -0.35880082844E+01  0.12127363827E+02  0.41517177473E+02  0.47787276709E+02  0.20000025827E+02 0.  0.
         12    1    1    2    0    0  0.35880082844E+01 -0.12127363827E+02 -0.41517177473E+02  0.43400723291E+02  0.00000000000E+00 0. -1.
         11    1    3    3    0    0  0.47067409518E+01  0.52064255647E+01  0.15491802530E+02  0.17007534314E+02  0.51100000000E-03 0. -1.
        -11    1    3    3    0    0 -0.11317996788E+02  0.50239725656E+01  0.16664790110E+02  0.20761805829E+02  0.51100000000E-03 0.  1.
        -12    1    3    3    0    0  0.30232475519E+01  0.18969656968E+01  0.93605848328E+01  0.10017936565E+02  0.00000000000E+00 0.  1.
</event>
<event>
 7    1  0.2751796E-010  0.4778728E+02  0.7816164E-02  0.1312668E+00
        -11   -1    0    0    0    0  0.00000000000E+00  0.00000000000E+00  0.45593999997E+02  0.45594000000E+02  0.51100000000E-03 0. -1.
         11   -1    0    0    0    0 -0.00000000000E+00 -0.00000000000E+00 -0.45593999997E+02  0.45594000000E+02  0.51100000000E-03 0.  1.
    9900012    2    1    2    0    0  0.17316087556E+02  0.38323155063E+02 -0.10729006276E+02  0.47787277911E+02  0.20000031306E+02 0.  0.
         12    1    1    2    0    0 -0.17316087556E+02 -0.38323155063E+02  0.10729006276E+02  0.43400722089E+02  0.00000000000E+00 0. -1.
         11    1    3    3    0    0  0.17895869265E+02  0.23823370951E+02 -0.12802907758E+00  0.29796502009E+02  0.51100000000E-03 0. -1.
        -11    1    3    3    0    0 -0.12274680230E+00  0.94529699524E+01 -0.72812277773E+01  0.11932727513E+02  0.51100000000E-03 0.  1.
         12    1    3    3    0    0 -0.45703490705E+00  0.50468141591E+01 -0.33197494209E+01  0.60580483888E+01  0.00000000000E+00 0. -1.
</event>
<event>
 7    1  0.2751796E-010  0.4778727E+02  0.7816164E-02  0.1312668E+00
        -11   -1    0    0    0    0  0.00000000000E+00  0.00000000000E+00  0.45593999997E+02  0.45594000000E+02  0.51100000000E-03 0. -1.
         11   -1    0    0    0    0 -0.00000000000E+00 -0.00000000000E+00 -0.45593999997E+02  0.45594000000E+02  0.51100000000E-03 0.  1.
    9900012    2    1    2    0    0 -0.19736867572E+02  0.16007482550E+02 -0.35182943839E+02  0.47787274473E+02  0.20000015631E+02 0.  0.
         12    1    1    2    0    0  0.19736867572E+02 -0.16007482550E+02  0.35182943839E+02  0.43400725527E+02  0.00000000000E+00 0. -1.
         11    1    3    3    0    0 -0.19966492814E-01  0.15286865313E+01  0.12178631047E+01  0.19546027665E+01  0.51100000000E-03 0. -1.
        -11    1    3    3    0    0 -0.68288879313E+01  0.55825901081E+01 -0.24862657215E+02  0.26380878430E+02  0.51100000000E-03 0.  1.
        -12    1    3    3    0    0 -0.12888013148E+02  0.88962059104E+01 -0.11538149729E+02  0.19451793276E+02  0.00000000000E+00 0.  1.
</event>
<event>
 7    1  0.2751796E-010  0.4778727E+02  0.7816164E-02  0.1312668E+00
        -11   -1    0    0    0    0  0.00000000000E+00  0.00000000000E+00  0.45593999997E+02  0.45594000000E+02  0.51100000000E-03 0.  1.
         11   -1    0    0    0    0 -0.00000000000E+00 -0.00000000000E+00 -0.45593999997E+02  0.45594000000E+02  0.51100000000E-03 0. -1.
    9900012    2    1    2    0    0 -0.10571329616E+02  0.16170184023E+02  0.38863806382E+02  0.47787270655E+02  0.19999998225E+02 0.  0.
         12    1    1    2    0    0  0.10571329616E+02 -0.16170184023E+02 -0.38863806382E+02  0.43400729345E+02  0.00000000000E+00 0. -1.
         11    1    3    3    0    0  0.35229040127E+00 -0.15912310184E+01  0.18075742779E+02  0.18149066146E+02  0.51100000000E-03 0.  1.
        -11    1    3    3    0    0 -0.70821484244E+01  0.11333945333E+02  0.15527856336E+02  0.20487300109E+02  0.51100000000E-03 0. -1.
        -12    1    3    3    0    0 -0.38414715932E+01  0.64274697087E+01  0.52602072663E+01  0.91509044002E+01  0.00000000000E+00 0.  1.
</event>
<event>
 7    1  0.2751796E-010  0.4778728E+02  0.7816164E-02  0.1312668E+00
        -11   -1    0    0    0    0  0.00000000000E+00  0.00000000000E+00  0.45593999997E+02  0.45594000000E+02  0.51100000000E-03 0.  1.
         11   -1    0    0    0    0 -0.00000000000E+00 -0.00000000000E+00 -0.45593999997E+02  0.45594000000E+02  0.51100000000E-03 0. -1.
    9900012    2    1    2    0    0  0.33694885886E+02 -0.27325870310E+02 -0.12545357437E+01  0.47787281307E+02  0.20000046792E+02 0.  0.
         12    1    1    2    0    0 -0.33694885886E+02  0.27325870310E+02  0.12545357437E+01  0.43400718693E+02  0.00000000000E+00 0. -1.
         11    1    3    3    0    0  0.86926593307E+01 -0.91748718655E+01  0.40581498603E+01  0.13274380608E+02  0.51100000000E-03 0. -1.
        -11    1    3    3    0    0  0.20657235880E+02 -0.13842561992E+02 -0.10003183694E+02  0.26803014774E+02  0.51100000000E-03 0.  1.
        -12    1    3    3    0    0  0.43449906759E+01 -0.43084364524E+01  0.46904980901E+01  0.77098859247E+01  0.00000000000E+00 0.  1.
</event>
<event>
 7    1  0.2751796E-010  0.4778727E+02  0.7816164E-02  0.1312668E+00
        -11   -1    0    0    0    0  0.00000000000E+00  0.00000000000E+00  0.45593999997E+02  0.45594000000E+02  0.51100000000E-03 0. -1.
         11   -1    0    0    0    0 -0.00000000000E+00 -0.00000000000E+00 -0.45593999997E+02  0.45594000000E+02  0.51100000000E-03 0.  1.
    9900012    2    1    2    0    0 -0.17018688725E+01 -0.37444329051E+02 -0.21878053554E+02  0.47787270017E+02  0.19999995316E+02 0.  0.
         12    1    1    2    0    0  0.17018688725E+01  0.37444329051E+02  0.21878053554E+02  0.43400729983E+02  0.00000000000E+00 0. -1.
         11    1    3    3    0    0  0.42989776458E+01 -0.10073373495E+02 -0.62676182239E+01  0.12618918370E+02  0.51100000000E-03 0. -1.
        -11    1    3    3    0    0 -0.18289641257E+01 -0.11056237793E+02 -0.14453412813E+02  0.18288976082E+02  0.51100000000E-03 0.  1.
        -12    1    3    3    0    0 -0.41718823926E+01 -0.16314717762E+02 -0.11570225174E+01  0.16879375565E+02  0.00000000000E+00 0.  1.
</event>
<event>
 7    1  0.2751796E-010  0.4778727E+02  0.7816164E-02  0.1312668E+00
        -11   -1    0    0    0    0  0.00000000000E+00  0.00000000000E+00  0.45593999997E+02  0.45594000000E+02  0.51100000000E-03 0. -1.
         11   -1    0    0    0    0 -0.00000000000E+00 -0.00000000000E+00 -0.45593999997E+02  0.45594000000E+02  0.51100000000E-03 0.  1.
    9900012    2    1    2    0    0 -0.41709480749E+02 -0.93642649444E+01  0.75002131758E+01  0.47787269131E+02  0.19999991274E+02 0.  0.
         12    1    1    2    0    0  0.41709480749E+02  0.93642649444E+01 -0.75002131758E+01  0.43400730869E+02  0.00000000000E+00 0. -1.
         11    1    3    3    0    0 -0.81059203373E+01 -0.78140514827E+01 -0.31914030457E+01  0.11702580859E+02  0.51100000000E-03 0. -1.
        -11    1    3    3    0    0 -0.28176742898E+02 -0.19875697613E+01  0.59536981134E+01  0.28867382898E+02  0.51100000000E-03 0.  1.
         12    1    3    3    0    0 -0.54268175142E+01  0.43735629967E+00  0.47379181081E+01  0.72173053742E+01  0.00000000000E+00 0. -1.
</event>
<event>
 7    1  0.2751796E-010  0.4778721E+02  0.7816164E-02  0.1312668E+00
        -11   -1    0    0    0    0  0.00000000000E+00  0.00000000000E+00  0.45593999997E+02  0.45594000000E+02  0.51100000000E-03 0. -1.
         11   -1    0    0    0    0 -0.00000000000E+00 -0.00000000000E+00 -0.45593999997E+02  0.45594000000E+02  0.51100000000E-03 0.  1.
    9900012    2    1    2    0    0  0.19306106221E+02 -0.14628540238E+02 -0.36012617928E+02  0.47787209950E+02  0.19999721445E+02 0.  0.
         12    1    1    2    0    0 -0.19306106221E+02  0.14628540238E+02  0.36012617928E+02  0.43400790050E+02  0.00000000000E+00 0. -1.
         11    1    3    3    0    0 -0.23760161484E+00 -0.54698646368E+01 -0.14845955173E+02  0.15823345377E+02  0.51100000000E-03 0. -1.
        -11    1    3    3    0    0  0.14167173127E+02 -0.90076968476E+01 -0.20571358488E+02  0.26552366885E+02  0.51100000000E-03 0.  1.
         12    1    3    3    0    0  0.53765347086E+01 -0.15097875333E+00 -0.59530426815E+00  0.54114976881E+01  0.00000000000E+00 0. -1.
</event>
<event>
 7    1  0.2751796E-010  0.4778727E+02  0.7816164E-02  0.1312668E+00
        -11   -1    0    0    0    0  0.00000000000E+00  0.00000000000E+00  0.45593999997E+02  0.45594000000E+02  0.51100000000E-03 0. -1.
         11   -1    0    0    0    0 -0.00000000000E+00 -0.00000000000E+00 -0.45593999997E+02  0.45594000000E+02  0.51100000000E-03 0.  1.
    9900012    2    1    2    0    0  0.23947649566E+02 -0.96025830477E-01 -0.36195632205E+02  0.47787274990E+02  0.20000017988E+02 0.  0.
         12    1    1    2    0    0 -0.23947649566E+02  0.96025830477E-01  0.36195632205E+02  0.43400725010E+02  0.00000000000E+00 0. -1.
         11    1    3    3    0    0  0.78012732530E+01 -0.50907067255E+01 -0.35278939944E+01  0.99609836678E+01  0.51100000000E-03 0. -1.
        -11    1    3    3    0    0  0.44955283985E+01  0.28902437098E+00 -0.17794384931E+02  0.18355746948E+02  0.51100000000E-03 0.  1.
         12    1    3    3    0    0  0.11650847914E+02  0.47056565241E+01 -0.14873353279E+02  0.19470544374E+02  0.00000000000E+00 0. -1.
</event>
<event>
 7    1  0.2751796E-010  0.4778728E+02  0.7816164E-02  0.1312668E+00
        -11   -1    0    0    0    0  0.00000000000E+00  0.00000000000E+00  0.45593999997E+02  0.45594000000E+02  0.51100000000E-03 0.  1.
         11   -1    0    0    0    0 -0.00000000000E+00 -0.00000000000E+00 -0.45593999997E+02  0.45594000000E+02  0.51100000000E-03 0. -1.
    9900012    2    1    2    0    0  0.19680653374E+02 -0.16883065888E+02  0.34803110691E+02  0.47787279444E+02  0.20000038298E+02 0.  0.
         12    1    1    2    0    0 -0.19680653374E+02  0.16883065888E+02 -0.34803110691E+02  0.43400720556E+02  0.00000000000E+00 0. -1.
         11    1    3    3    0    0  0.81124366233E+00  0.16663404868E+01 -0.12644932637E+01  0.22436020976E+01  0.51100000000E-03 0. -1.
        -11    1    3    3    0    0  0.98972139156E+01 -0.14072574853E+02  0.18130285111E+02  0.24993988172E+02  0.51100000000E-03 0.  1.
         12    1    3    3    0    0  0.89721957958E+01 -0.44768315218E+01  0.17937318843E+02  0.20549689174E+02  0.00000000000E+00 0. -1.
</event>
<event>
 7    1  0.2751796E-010  0.4778727E+02  0.7816164E-02  0.1312668E+00
        -11   -1    0    0    0    0  0.00000000000E+00  0.00000000000E+00  0.45593999997E+02  0.45594000000E+02  0.51100000000E-03 0. -1.
         11   -1    0    0    0    0 -0.00000000000E+00 -0.00000000000E+00 -0.45593999997E+02  0.45594000000E+02  0.51100000000E-03 0.  1.
    9900012    2    1    2    0    0 -0.29933157194E+02  0.11496167049E+02  0.29248373557E+02  0.47787272907E+02  0.20000008494E+02 0.  0.
         12    1    1    2    0    0  0.29933157194E+02 -0.11496167049E+02 -0.29248373557E+02  0.43400727093E+02  0.00000000000E+00 0. -1.
         11    1    3    3    0    0 -0.17330252769E+01 -0.10552510386E+01  0.12319539083E+01  0.23737400992E+01  0.51100000000E-03 0. -1.
        -11    1    3    3    0    0 -0.11365784951E+02  0.14867215933E+02  0.15682419830E+02  0.24416254199E+02  0.51100000000E-03 0.  1.
        -12    1    3    3    0    0 -0.16834346967E+02 -0.23157978451E+01  0.12333999818E+02  0.20997278609E+02  0.00000000000E+00 0.  1.
</event>
<event>
 7    1  0.2751796E-010  0.4778727E+02  0.7816164E-02  0.1312668E+00
        -11   -1    0    0    0    0  0.00000000000E+00  0.00000000000E+00  0.45593999997E+02  0.45594000000E+02  0.51100000000E-03 0.  1.
         11   -1    0    0    0    0 -0.00000000000E+00 -0.00000000000E+00 -0.45593999997E+02  0.45594000000E+02  0.51100000000E-03 0. -1.
    9900012    2    1    2    0    0 -0.10697486346E+02  0.41884080459E+02  0.38614550485E+01  0.47787271376E+02  0.20000001513E+02 0.  0.
         12    1    1    2    0    0  0.10697486346E+02 -0.41884080459E+02 -0.38614550485E+01  0.43400728624E+02  0.00000000000E+00 0. -1.
         11    1    3    3    0    0  0.56182453443E+00  0.79342198403E+01  0.81883859215E+01  0.11415653969E+02  0.51100000000E-03 0. -1.
        -11    1    3    3    0    0 -0.62905460375E+01  0.24070579233E+02 -0.46437227986E+01  0.25308652982E+02  0.51100000000E-03 0.  1.
        -12    1    3    3    0    0 -0.49687648430E+01  0.98792813848E+01  0.31679192561E+00  0.11062964425E+02  0.00000000000E+00 0.  1.
</event>
<event>
 7    1  0.2751796E-010  0.4778727E+02  0.7816164E-02  0.1312668E+00
        -11   -1    0    0    0    0  0.00000000000E+00  0.00000000000E+00  0.45593999997E+02  0.45594000000E+02  0.51100000000E-03 0.  1.
         11   -1    0    0    0    0 -0.00000000000E+00 -0.00000000000E+00 -0.45593999997E+02  0.45594000000E+02  0.51100000000E-03 0. -1.
    9900012    2    1    2    0    0  0.20223883251E+01  0.37713475377E+02  0.21382868547E+02  0.47787270204E+02  0.19999996167E+02 0.  0.
         12    1    1    2    0    0 -0.20223883251E+01 -0.37713475377E+02 -0.21382868547E+02  0.43400729796E+02  0.00000000000E+00 0. -1.
         11    1    3    3    0    0 -0.88969507622E+00  0.31760532768E+01 -0.20111202626E+01  0.38630916010E+01  0.51100000000E-03 0. -1.
        -11    1    3    3    0    0  0.73039519834E+01  0.16925641402E+02  0.15683512710E+02  0.24203256447E+02  0.51100000000E-03 0.  1.
        -12    1    3    3    0    0 -0.43918685821E+01  0.17611780698E+02  0.77104760996E+01  0.19720922155E+02  0.00000000000E+00 0.  1.
</event>
<event>
 7    1  0.2751796E-010  0.4778727E+02  0.7816164E-02  0.1312668E+00
        -11   -1    0    0    0    0  0.00000000000E+00  0.00000000000E+00  0.45593999997E+02  0.45594000000E+02  0.51100000000E-03 0.  1.
         11   -1    0    0    0    0 -0.00000000000E+00 -0.00000000000E+00 -0.45593999997E+02  0.45594000000E+02  0.51100000000E-03 0. -1.
    9900012    2    1    2    0    0 -0.18964763496E+02  0.28967542301E+02  0.26169492260E+02  0.47787273202E+02  0.20000009837E+02 0.  0.
         12    1    1    2    0    0  0.18964763496E+02 -0.28967542301E+02 -0.26169492260E+02  0.43400726798E+02  0.00000000000E+00 0. -1.
         11    1    3    3    0    0 -0.65435001274E+01 -0.96962251000E-01  0.22378900777E+01  0.69162813604E+01  0.51100000000E-03 0. -1.
        -11    1    3    3    0    0 -0.93359399790E+01  0.10303595173E+02  0.78372768120E+01  0.15960788103E+02  0.51100000000E-03 0.  1.
         12    1    3    3    0    0 -0.30853233896E+01  0.18760909379E+02  0.16094325371E+02  0.24910203738E+02  0.00000000000E+00 0. -1.
</event>
<event>
 7    1  0.2751796E-010  0.4778727E+02  0.7816164E-02  0.1312668E+00
        -11   -1    0    0    0    0  0.00000000000E+00  0.00000000000E+00  0.45593999997E+02  0.45594000000E+02  0.51100000000E-03 0.  1.
         11   -1    0    0    0    0 -0.00000000000E+00 -0.00000000000E+00 -0.45593999997E+02  0.45594000000E+02  0.51100000000E-03 0. -1.
    9900012    2    1    2    0    0  0.39477412028E+02  0.13970503258E+02  0.11400975901E+02  0.47787271052E+02  0.20000000036E+02 0.  0.
         12    1    1    2    0    0 -0.39477412028E+02 -0.13970503258E+02 -0.11400975901E+02  0.43400728948E+02  0.00000000000E+00 0. -1.
         11    1    3    3    0    0  0.11348549827E+02  0.10286221172E+02  0.50694383089E+01  0.16133664624E+02  0.51100000000E-03 0. -1.
        -11    1    3    3    0    0  0.22568436869E+02 -0.22189557787E+01  0.29545200606E+01  0.22868915508E+02  0.51100000000E-03 0.  1.
        -12    1    3    3    0    0  0.55604253321E+01  0.59032378640E+01  0.33770175319E+01  0.87846909203E+01  0.00000000000E+00 0.  1.
</event>
<event>
 7    1  0.2751796E-010  0.4778727E+02  0.7816164E-02  0.1312668E+00
        -11   -1    0    0    0    0  0.00000000000E+00  0.00000000000E+00  0.45593999997E+02  0.45594000000E+02  0.51100000000E-03 0.  1.
         11   -1    0    0    0    0 -0.00000000000E+00 -0.00000000000E+00 -0.45593999997E+02  0.45594000000E+02  0.51100000000E-03 0. -1.
    9900012    2    1    2    0    0 -0.33484020038E+02 -0.22740478343E+01  0.27518591282E+02  0.47787265472E+02  0.19999974592E+02 0.  0.
         12    1    1    2    0    0  0.33484020038E+02  0.22740478343E+01 -0.27518591282E+02  0.43400734528E+02  0.00000000000E+00 0. -1.
         11    1    3    3    0    0 -0.13421472131E+01  0.11446655294E+01 -0.25868695142E+01  0.31310561253E+01  0.51100000000E-03 0. -1.
        -11    1    3    3    0    0 -0.61017534779E+00 -0.39248903141E+00  0.26164001665E+01  0.27151264588E+01  0.51100000000E-03 0.  1.
         12    1    3    3    0    0 -0.31531697477E+02 -0.30262243322E+01  0.27489060630E+02  0.41941082888E+02  0.00000000000E+00 0. -1.
</event>
<event>
 7    1  0.2751796E-010  0.4778728E+02  0.7816164E-02  0.1312668E+00
        -11   -1    0    0    0    0  0.00000000000E+00  0.00000000000E+00  0.45593999997E+02  0.45594000000E+02  0.51100000000E-03 0.  1.
         11   -1    0    0    0    0 -0.00000000000E+00 -0.00000000000E+00 -0.45593999997E+02  0.45594000000E+02  0.51100000000E-03 0. -1.
    9900012    2    1    2    0    0  0.14541387212E+00  0.39222139328E+02  0.18580240873E+02  0.47787277546E+02  0.20000029641E+02 0.  0.
         12    1    1    2    0    0 -0.14541387212E+00 -0.39222139328E+02 -0.18580240873E+02  0.43400722454E+02  0.00000000000E+00 0. -1.
         11    1    3    3    0    0 -0.19180427008E+01 -0.20307896713E+00  0.41565490263E+00  0.19730428602E+01  0.51100000000E-03 0. -1.
        -11    1    3    3    0    0  0.65960806890E+01  0.28673837925E+02  0.17259529946E+02  0.34111415040E+02  0.51100000000E-03 0.  1.
        -12    1    3    3    0    0 -0.45326241161E+01  0.10751380371E+02  0.90505602421E+00  0.11702819646E+02  0.00000000000E+00 0.  1.
</event>
<event>
 7    1  0.2751796E-010  0.4778730E+02  0.7816164E-02  0.1312668E+00
        -11   -1    0    0    0    0  0.00000000000E+00  0.00000000000E+00  0.45593999997E+02  0.45594000000E+02  0.51100000000E-03 0.  1.
         11   -1    0    0    0    0 -0.00000000000E+00 -0.00000000000E+00 -0.45593999997E+02  0.45594000000E+02  0.51100000000E-03 0. -1.
    9900012    2    1    2    0    0 -0.16441411510E+02 -0.21262530882E+02  0.34076468237E+02  0.47787298169E+02  0.20000123670E+02 0.  0.
         12    1    1    2    0    0  0.16441411510E+02  0.21262530882E+02 -0.34076468237E+02  0.43400701831E+02  0.00000000000E+00 0. -1.
         11    1    3    3    0    0 -0.40198901430E+00 -0.25783119664E+01 -0.24353926289E+01  0.35693732338E+01  0.51100000000E-03 0. -1.
        -11    1    3    3    0    0 -0.42951389497E+01 -0.49699844311E+01  0.13077258170E+02  0.14634331052E+02  0.51100000000E-03 0.  1.
         12    1    3    3    0    0 -0.11744283546E+02 -0.13714234484E+02  0.23434602696E+02  0.29583593883E+02  0.00000000000E+00 0. -1.
</event>
<event>
 7    1  0.2751796E-010  0.4778727E+02  0.7816164E-02  0.1312668E+00
        -11   -1    0    0    0    0  0.00000000000E+00  0.00000000000E+00  0.45593999997E+02  0.45594000000E+02  0.51100000000E-03 0. -1.
         11   -1    0    0    0    0 -0.00000000000E+00 -0.00000000000E+00 -0.45593999997E+02  0.45594000000E+02  0.51100000000E-03 0.  1.
    9900012    2    1    2    0    0  0.14723172378E+02  0.31376152099E+02 -0.26122568076E+02  0.47787270879E+02  0.19999999244E+02 0.  0.
         12    1    1    2    0    0 -0.14723172378E+02 -0.31376152099E+02  0.26122568076E+02  0.43400729121E+02  0.00000000000E+00 0. -1.
         11    1    3    3    0    0  0.10993208160E+01 -0.13768171067E+01 -0.50002184202E+01  0.53015390325E+01  0.51100000000E-03 0. -1.
        -11    1    3    3    0    0  0.10634011810E+02  0.25714197785E+02 -0.20959066761E+02  0.34836541945E+02  0.51100000000E-03 0.  1.
         12    1    3    3    0    0  0.29898397512E+01  0.70387714199E+01 -0.16328289503E+00  0.76491899011E+01  0.00000000000E+00 0. -1.
</event>
<event>
 7    1  0.2751796E-010  0.4778727E+02  0.7816164E-02  0.1312668E+00
        -11   -1    0    0    0    0  0.00000000000E+00  0.00000000000E+00  0.45593999997E+02  0.45594000000E+02  0.51100000000E-03 0. -1.
         11   -1    0    0    0    0 -0.00000000000E+00 -0.00000000000E+00 -0.45593999997E+02  0.45594000000E+02  0.51100000000E-03 0.  1.
    9900012    2    1    2    0    0  0.42579956210E+02 -0.12518798353E+01 -0.83068242112E+01  0.47787271867E+02  0.20000003752E+02 0.  0.
         12    1    1    2    0    0 -0.42579956210E+02  0.12518798353E+01  0.83068242112E+01  0.43400728133E+02  0.00000000000E+00 0. -1.
         11    1    3    3    0    0  0.56132756229E+01  0.13900238164E+01  0.99079437035E+00  0.58670864298E+01  0.51100000000E-03 0. -1.
        -11    1    3    3    0    0  0.22034350517E+02 -0.57827943531E+01  0.20959054215E+01  0.22876759671E+02  0.51100000000E-03 0.  1.
        -12    1    3    3    0    0  0.14932330070E+02  0.31408907014E+01 -0.11393524003E+02  0.19043425767E+02  0.00000000000E+00 0.  1.
</event>
<event>
 7    1  0.2751796E-010  0.4778728E+02  0.7816164E-02  0.1312668E+00
        -11   -1    0    0    0    0  0.00000000000E+00  0.00000000000E+00  0.45593999997E+02  0.45594000000E+02  0.51100000000E-03 0.  1.
         11   -1    0    0    0    0 -0.00000000000E+00 -0.00000000000E+00 -0.45593999997E+02  0.45594000000E+02  0.51100000000E-03 0. -1.
    9900012    2    1    2    0    0  0.29724823557E+02  0.23764099208E+01  0.31534274467E+02  0.47787275055E+02  0.20000018284E+02 0.  0.
         12    1    1    2    0    0 -0.29724823557E+02 -0.23764099208E+01 -0.31534274467E+02  0.43400724945E+02  0.00000000000E+00 0. -1.
         11    1    3    3    0    0  0.16635757327E+00  0.31481492212E+01  0.21681922795E+01  0.38261699365E+01  0.51100000000E-03 0. -1.
        -11    1    3    3    0    0  0.28790373506E+02 -0.29123236635E+01  0.22285075831E+02  0.36523853039E+02  0.51100000000E-03 0.  1.
        -12    1    3    3    0    0  0.76809247808E+00  0.21405843632E+01  0.70810063568E+01  0.74372520796E+01  0.00000000000E+00 0.  1.
</event>
<event>
 7    1  0.2751796E-010  0.4778727E+02  0.7816164E-02  0.1312668E+00
        -11   -1    0    0    0    0  0.00000000000E+00  0.00000000000E+00  0.45593999997E+02  0.45594000000E+02  0.51100000000E-03 0. -1.
         11   -1    0    0    0    0 -0.00000000000E+00 -0.00000000000E+00 -0.45593999997E+02  0.45594000000E+02  0.51100000000E-03 0.  1.
    9900012    2    1    2    0    0 -0.38919758692E+02  0.19137356711E+02 -0.16239285406E+01  0.47787272098E+02  0.20000004803E+02 0.  0.
         12    1    1    2    0    0  0.38919758692E+02 -0.19137356711E+02  0.16239285406E+01  0.43400727902E+02  0.00000000000E+00 0. -1.
         11    1    3    3    0    0 -0.50116410693E+01  0.95850682877E+01 -0.65171384458E+00  0.10835811529E+02  0.51100000000E-03 0. -1.
        -11    1    3    3    0    0 -0.25373539110E+02  0.69376501533E+01 -0.56039544551E+01  0.26895199988E+02  0.51100000000E-03 0.  1.
         12    1    3    3    0    0 -0.85345785129E+01  0.26146382704E+01  0.46317397591E+01  0.10056260581E+02  0.00000000000E+00 0. -1.
</event>
<event>
 7    1  0.2751796E-010  0.4778727E+02  0.7816164E-02  0.1312668E+00
        -11   -1    0    0    0    0  0.00000000000E+00  0.00000000000E+00  0.45593999997E+02  0.45594000000E+02  0.51100000000E-03 0.  1.
         11   -1    0    0    0    0 -0.00000000000E+00 -0.00000000000E+00 -0.45593999997E+02  0.45594000000E+02  0.51100000000E-03 0. -1.
    9900012    2    1    2    0    0  0.34269350638E+02 -0.23764567220E+02  0.12019997441E+02  0.47787269744E+02  0.19999994069E+02 0.  0.
         12    1    1    2    0    0 -0.34269350638E+02  0.23764567220E+02 -0.12019997441E+02  0.43400730256E+02  0.00000000000E+00 0. -1.
         11    1    3    3    0    0  0.33612487432E+01 -0.31649443401E+01 -0.29699646493E+01  0.54895861473E+01  0.51100000000E-03 0. -1.
        -11    1    3    3    0    0  0.20594942808E+02 -0.13510229648E+02  0.16566749646E+02  0.29683921043E+02  0.51100000000E-03 0.  1.
        -12    1    3    3    0    0  0.10313159087E+02 -0.70893932315E+01 -0.15767875559E+01  0.12613762553E+02  0.00000000000E+00 0.  1.
</event>
<event>
 7    1  0.2751796E-010  0.4778728E+02  0.7816164E-02  0.1312668E+00
        -11   -1    0    0    0    0  0.00000000000E+00  0.00000000000E+00  0.45593999997E+02  0.45594000000E+02  0.51100000000E-03 0.  1.
         11   -1    0    0    0    0 -0.00000000000E+00 -0.00000000000E+00 -0.45593999997E+02  0.45594000000E+02  0.51100000000E-03 0. -1.
    9900012    2    1    2    0    0  0.33421013463E+02 -0.96064119466E+01  0.25968736246E+02  0.47787279342E+02  0.20000037831E+02 0.  0.
         12    1    1    2    0    0 -0.33421013463E+02  0.96064119466E+01 -0.25968736246E+02  0.43400720658E+02  0.00000000000E+00 0. -1.
         11    1    3    3    0    0  0.75726321774E+01 -0.54208384908E+01  0.12970679614E+01  0.94027992425E+01  0.51100000000E-03 0. -1.
        -11    1    3    3    0    0  0.26571249530E+02 -0.38745741538E+01  0.19581142255E+02  0.33233488512E+02  0.51100000000E-03 0.  1.
        -12    1    3    3    0    0 -0.72286824369E+00 -0.31099930198E+00  0.50905260305E+01  0.51509915871E+01  0.00000000000E+00 0.  1.
</event>
<event>
 7    1  0.2751796E-010  0.4778727E+02  0.7816164E-02  0.1312668E+00
        -11   -1    0    0    0    0  0.00000000000E+00  0.00000000000E+00  0.45593999997E+02  0.45594000000E+02  0.51100000000E-03 0.  1.
         11   -1    0    0    0    0 -0.00000000000E+00 -0.00000000000E+00 -0.45593999997E+02  0.45594000000E+02  0.51100000000E-03 0. -1.
    9900012    2    1    2    0    0  0.22393564009E+02 -0.10392917928E+02  0.35695083582E+02  0.47787269085E+02  0.19999991065E+02 0.  0.
         12    1    1    2    0    0 -0.22393564009E+02  0.10392917928E+02 -0.35695083582E+02  0.43400730915E+02  0.00000000000E+00 0. -1.
         11    1    3    3    0    0  0.64023771622E+01 -0.17423889943E+01 -0.60311967096E+00  0.66625900619E+01  0.51100000000E-03 0. -1.
        -11    1    3    3    0    0  0.63224957342E+01 -0.86138365311E+00  0.17199344814E+02  0.18344846590E+02  0.51100000000E-03 0.  1.
         12    1    3    3    0    0  0.96686911124E+01 -0.77891452809E+01  0.19098858439E+02  0.22779832433E+02  0.00000000000E+00 0. -1.
</event>
<event>
 7    1  0.2751796E-010  0.4778728E+02  0.7816164E-02  0.1312668E+00
        -11   -1    0    0    0    0  0.00000000000E+00  0.00000000000E+00  0.45593999997E+02  0.45594000000E+02  0.51100000000E-03 0.  1.
         11   -1    0    0    0    0 -0.00000000000E+00 -0.00000000000E+00 -0.45593999997E+02  0.45594000000E+02  0.51100000000E-03 0. -1.
    9900012    2    1    2    0    0  0.18969975102E+02 -0.24484227734E+02  0.30402054345E+02  0.47787282593E+02  0.20000052653E+02 0.  0.
         12    1    1    2    0    0 -0.18969975102E+02  0.24484227734E+02 -0.30402054345E+02  0.43400717407E+02  0.00000000000E+00 0. -1.
         11    1    3    3    0    0  0.11273488828E+02 -0.11811108662E+02  0.29789836351E+01  0.16597234166E+02  0.51100000000E-03 0. -1.
        -11    1    3    3    0    0  0.40705933781E+01 -0.60506269426E+01  0.12737907391E+02  0.14677673583E+02  0.51100000000E-03 0.  1.
         12    1    3    3    0    0  0.36258928957E+01 -0.66224921287E+01  0.14685163318E+02  0.16512374843E+02  0.00000000000E+00 0. -1.
</event>
<event>
 7    1  0.2751796E-010  0.4778727E+02  0.7816164E-02  0.1312668E+00
        -11   -1    0    0    0    0  0.00000000000E+00  0.00000000000E+00  0.45593999997E+02  0.45594000000E+02  0.51100000000E-03 0. -1.
         11   -1    0    0    0    0 -0.00000000000E+00 -0.00000000000E+00 -0.45593999997E+02  0.45594000000E+02  0.51100000000E-03 0.  1.
    9900012    2    1    2    0    0  0.39302102834E+02 -0.17034477308E+02 -0.69853395670E+01  0.47787266444E+02  0.19999979024E+02 0.  0.
         12    1    1    2    0    0 -0.39302102834E+02  0.17034477308E+02  0.69853395670E+01  0.43400733556E+02  0.00000000000E+00 0. -1.
         11    1    3    3    0    0  0.12622139583E+02 -0.76934245427E+01  0.45116423654E+01  0.15455164378E+02  0.51100000000E-03 0. -1.
        -11    1    3    3    0    0  0.27383294256E+02 -0.90492392481E+01 -0.97784877264E+01  0.30452460619E+02  0.51100000000E-03 0.  1.
        -12    1    3    3    0    0 -0.70333100532E+00 -0.29181351673E+00 -0.17184942059E+01  0.18796414465E+01  0.00000000000E+00 0.  1.
</event>
<event>
 7    1  0.2751796E-010  0.4778727E+02  0.7816164E-02  0.1312668E+00
        -11   -1    0    0    0    0  0.00000000000E+00  0.00000000000E+00  0.45593999997E+02  0.45594000000E+02  0.51100000000E-03 0. -1.
         11   -1    0    0    0    0 -0.00000000000E+00 -0.00000000000E+00 -0.45593999997E+02  0.45594000000E+02  0.51100000000E-03 0.  1.
    9900012    2    1    2    0    0 -0.31886393356E+01 -0.41419346236E+02 -0.12565571453E+02  0.47787271326E+02  0.20000001285E+02 0.  0.
         12    1    1    2    0    0  0.31886393356E+01  0.41419346236E+02  0.12565571453E+02  0.43400728674E+02  0.00000000000E+00 0. -1.
         11    1    3    3    0    0  0.37033747902E+00 -0.24638409945E+02 -0.38712579966E+01  0.24943436676E+02  0.51100000000E-03 0. -1.
        -11    1    3    3    0    0 -0.66248882778E+01 -0.55170711866E+01 -0.60741656391E+00  0.86426948525E+01  0.51100000000E-03 0.  1.
        -12    1    3    3    0    0  0.30659114632E+01 -0.11263865104E+02 -0.80868968927E+01  0.14201139797E+02  0.00000000000E+00 0.  1.
</event>
<event>
 7    1  0.2751796E-010  0.4778727E+02  0.7816164E-02  0.1312668E+00
        -11   -1    0    0    0    0  0.00000000000E+00  0.00000000000E+00  0.45593999997E+02  0.45594000000E+02  0.51100000000E-03 0.  1.
         11   -1    0    0    0    0 -0.00000000000E+00 -0.00000000000E+00 -0.45593999997E+02  0.45594000000E+02  0.51100000000E-03 0. -1.
    9900012    2    1    2    0    0 -0.27050587732E+02 -0.24712820186E+02  0.23262963317E+02  0.47787271430E+02  0.20000001756E+02 0.  0.
         12    1    1    2    0    0  0.27050587732E+02  0.24712820186E+02 -0.23262963317E+02  0.43400728570E+02  0.00000000000E+00 0. -1.
         11    1    3    3    0    0 -0.14148668827E+02 -0.66985822162E+01  0.33488262477E+01  0.16008449981E+02  0.51100000000E-03 0. -1.
        -11    1    3    3    0    0  0.45533576493E+00 -0.56448332522E+01  0.87518389256E+01  0.10424306113E+02  0.51100000000E-03 0.  1.
         12    1    3    3    0    0 -0.13357254669E+02 -0.12369404717E+02  0.11162298144E+02  0.21354515335E+02  0.00000000000E+00 0. -1.
</event>
<event>
 7    1  0.2751796E-010  0.4778728E+02  0.7816164E-02  0.1312668E+00
        -11   -1    0    0    0    0  0.00000000000E+00  0.00000000000E+00  0.45593999997E+02  0.45594000000E+02  0.51100000000E-03 0. -1.
         11   -1    0    0    0    0 -0.00000000000E+00 -0.00000000000E+00 -0.45593999997E+02  0.45594000000E+02  0.51100000000E-03 0.  1.
    9900012    2    1    2    0    0 -0.15465873203E+02 -0.28087181606E+02 -0.29249613243E+02  0.47787275590E+02  0.20000020725E+02 0.  0.
         12    1    1    2    0    0  0.15465873203E+02  0.28087181606E+02  0.29249613243E+02  0.43400724410E+02  0.00000000000E+00 0. -1.
         11    1    3    3    0    0  0.22378297692E+01 -0.51755669382E+00 -0.47028576834E+01  0.52337957219E+01  0.51100000000E-03 0. -1.
        -11    1    3    3    0    0 -0.17040352773E+02 -0.17205112942E+02 -0.15270641127E+02  0.28628342856E+02  0.51100000000E-03 0.  1.
        -12    1    3    3    0    0 -0.66335019952E+00 -0.10364511970E+02 -0.92761144317E+01  0.13925137012E+02  0.00000000000E+00 0.  1.
</event>
<event>
 7    1  0.2751796E-010  0.4778727E+02  0.7816164E-02  0.1312668E+00
        -11   -1    0    0    0    0  0.00000000000E+00  0.00000000000E+00  0.45593999997E+02  0.45594000000E+02  0.51100000000E-03 0. -1.
         11   -1    0    0    0    0 -0.00000000000E+00 -0.00000000000E+00 -0.45593999997E+02  0.45594000000E+02  0.51100000000E-03 0.  1.
    9900012    2    1    2    0    0 -0.33166985637E+02  0.16015453014E+02 -0.22958217349E+02  0.47787269415E+02  0.19999992570E+02 0.  0.
         12    1    1    2    0    0  0.33166985637E+02 -0.16015453014E+02  0.22958217349E+02  0.43400730585E+02  0.00000000000E+00 0. -1.
         11    1    3    3    0    0  0.19200782772E+01 -0.11269141621E+01 -0.31546164136E+01  0.38611191509E+01  0.51100000000E-03 0. -1.
        -11    1    3    3    0    0 -0.15749717449E+02  0.83724023791E+01 -0.10886770150E+02  0.20896709929E+02  0.51100000000E-03 0.  1.
         12    1    3    3    0    0 -0.19337346465E+02  0.87699647972E+01 -0.89168307856E+01  0.23029440334E+02  0.00000000000E+00 0. -1.
</event>
<event>
 7    1  0.2751796E-010  0.4778728E+02  0.7816164E-02  0.1312668E+00
        -11   -1    0    0    0    0  0.00000000000E+00  0.00000000000E+00  0.45593999997E+02  0.45594000000E+02  0.51100000000E-03 0.  1.
         11   -1    0    0    0    0 -0.00000000000E+00 -0.00000000000E+00 -0.45593999997E+02  0.45594000000E+02  0.51100000000E-03 0. -1.
    9900012    2    1    2    0    0 -0.28765687581E+02  0.70467854289E+01  0.31725399280E+02  0.47787275048E+02  0.20000018254E+02 0.  0.
         12    1    1    2    0    0  0.28765687581E+02 -0.70467854289E+01 -0.31725399280E+02  0.43400724952E+02  0.00000000000E+00 0. -1.
         11    1    3    3    0    0 -0.52438650045E+01 -0.31114631938E+01  0.27156822426E+00  0.61035295488E+01  0.51100000000E-03 0. -1.
        -11    1    3    3    0    0 -0.18618445728E+02  0.71211314041E+01  0.17278753344E+02  0.26380150704E+02  0.51100000000E-03 0.  1.
        -12    1    3    3    0    0 -0.49033768486E+01  0.30371172185E+01  0.14175077712E+02  0.15303594795E+02  0.00000000000E+00 0.  1.
</event>
<event>
 7    1  0.2751796E-010  0.4778727E+02  0.7816164E-02  0.1312668E+00
        -11   -1    0    0    0    0  0.00000000000E+00  0.00000000000E+00  0.45593999997E+02  0.45594000000E+02  0.51100000000E-03 0.  1.
         11   -1    0    0    0    0 -0.00000000000E+00 -0.00000000000E+00 -0.45593999997E+02  0.45594000000E+02  0.51100000000E-03 0. -1.
    9900012    2    1    2    0    0 -0.11865104793E+02 -0.22991402857E+02  0.34845913422E+02  0.47787274208E+02  0.20000014422E+02 0.  0.
         12    1    1    2    0    0  0.11865104793E+02  0.22991402857E+02 -0.34845913422E+02  0.43400725792E+02  0.00000000000E+00 0. -1.
         11    1    3    3    0    0 -0.83214030647E+00 -0.17909867923E+02  0.17326142770E+02  0.24932931036E+02  0.51100000000E-03 0. -1.
        -11    1    3    3    0    0 -0.68838897874E+01 -0.30184795363E+01  0.39004236584E+01  0.84683211023E+01  0.51100000000E-03 0.  1.
         12    1    3    3    0    0 -0.41490746991E+01 -0.20630553974E+01  0.13619346994E+02  0.14386022069E+02  0.00000000000E+00 0. -1.
</event>
<event>
 7    1  0.2751796E-010  0.4778727E+02  0.7816164E-02  0.1312668E+00
        -11   -1    0    0    0    0  0.00000000000E+00  0.00000000000E+00  0.45593999997E+02  0.45594000000E+02  0.51100000000E-03 0.  1.
         11   -1    0    0    0    0 -0.00000000000E+00 -0.00000000000E+00 -0.45593999997E+02  0.45594000000E+02  0.51100000000E-03 0. -1.
    9900012    2    1    2    0    0 -0.45752318705E+01 -0.20134678641E+02  0.38174404191E+02  0.47787272288E+02  0.20000005670E+02 0.  0.
         12    1    1    2    0    0  0.45752318705E+01  0.20134678641E+02 -0.38174404191E+02  0.43400727712E+02  0.00000000000E+00 0. -1.
         11    1    3    3    0    0  0.25261297580E+01 -0.15672867865E+02  0.16243417748E+02  0.22712743980E+02  0.51100000000E-03 0. -1.
        -11    1    3    3    0    0 -0.39430705248E+01  0.10363439616E+01  0.28680516746E+01  0.49847301472E+01  0.51100000000E-03 0.  1.
        -12    1    3    3    0    0 -0.31582911037E+01 -0.54981547373E+01  0.19062934767E+02  0.20089798161E+02  0.00000000000E+00 0.  1.
</event>
<event>
 7    1  0.2751796E-010  0.4778731E+02  0.7816164E-02  0.1312668E+00
        -11   -1    0    0    0    0  0.00000000000E+00  0.00000000000E+00  0.45593999997E+02  0.45594000000E+02  0.51100000000E-03 0.  1.
         11   -1    0    0    0    0 -0.00000000000E+00 -0.00000000000E+00 -0.45593999997E+02  0.45594000000E+02  0.51100000000E-03 0. -1.
    9900012    2    1    2    0    0 -0.82951535701E+01  0.18939679489E+02  0.38158867075E+02  0.47787306822E+02  0.20000163122E+02 0.  0.
         12    1    1    2    0    0  0.82951535701E+01 -0.18939679489E+02 -0.38158867075E+02  0.43400693178E+02  0.00000000000E+00 0. -1.
         11    1    3    3    0    0 -0.12551937977E+01  0.15700122942E+02  0.15265153555E+02  0.21933861611E+02  0.51100000000E-03 0. -1.
        -11    1    3    3    0    0 -0.79940811949E+01  0.25180889123E+01  0.10654782430E+02  0.13556197653E+02  0.51100000000E-03 0.  1.
         12    1    3    3    0    0  0.95412142249E+00  0.72146763420E+00  0.12238931091E+02  0.12297247557E+02  0.00000000000E+00 0. -1.
</event>
<event>
 7    1  0.2751796E-010  0.4778727E+02  0.7816164E-02  0.1312668E+00
        -11   -1    0    0    0    0  0.00000000000E+00  0.00000000000E+00  0.45593999997E+02  0.45594000000E+02  0.51100000000E-03 0.  1.
         11   -1    0    0    0    0 -0.00000000000E+00 -0.00000000000E+00 -0.45593999997E+02  0.45594000000E+02  0.51100000000E-03 0. -1.
    9900012    2    1    2    0    0  0.27685195176E+02 -0.23359814399E+02  0.23905487549E+02  0.47787270794E+02  0.19999998857E+02 0.  0.
         12    1    1    2    0    0 -0.27685195176E+02  0.23359814399E+02 -0.23905487549E+02  0.43400729206E+02  0.00000000000E+00 0. -1.
         11    1    3    3    0    0  0.61106176434E-01 -0.70151980992E+00 -0.17624997349E+01  0.18979645901E+01  0.51100000000E-03 0. -1.
        -11    1    3    3    0    0  0.23804767651E+02 -0.11960356647E+02  0.17027807163E+02  0.31617452635E+02  0.51100000000E-03 0.  1.
        -12    1    3    3    0    0  0.38193213481E+01 -0.10697937942E+02  0.86401801211E+01  0.14271853569E+02  0.00000000000E+00 0.  1.
</event>
<event>
 7    1  0.2751796E-010  0.4778727E+02  0.7816164E-02  0.1312668E+00
        -11   -1    0    0    0    0  0.00000000000E+00  0.00000000000E+00  0.45593999997E+02  0.45594000000E+02  0.51100000000E-03 0.  1.
         11   -1    0    0    0    0 -0.00000000000E+00 -0.00000000000E+00 -0.45593999997E+02  0.45594000000E+02  0.51100000000E-03 0. -1.
    9900012    2    1    2    0    0  0.23151819003E+02  0.15848602734E+02  0.33112512632E+02  0.47787269308E+02  0.19999992082E+02 0.  0.
         12    1    1    2    0    0 -0.23151819003E+02 -0.15848602734E+02 -0.33112512632E+02  0.43400730692E+02  0.00000000000E+00 0. -1.
         11    1    3    3    0    0  0.20104452488E+02  0.78606389116E+01  0.16014778355E+02  0.26878463125E+02  0.51100000000E-03 0. -1.
        -11    1    3    3    0    0  0.52297048453E+00  0.69969480704E+01  0.52727495184E+01  0.87768256319E+01  0.51100000000E-03 0.  1.
        -12    1    3    3    0    0  0.25243960300E+01  0.99101575251E+00  0.11824984759E+02  0.12131980551E+02  0.00000000000E+00 0.  1.
</event>
<event>
 7    1  0.2751796E-010  0.4778727E+02  0.7816164E-02  0.1312668E+00
        -11   -1    0    0    0    0  0.00000000000E+00  0.00000000000E+00  0.45593999997E+02  0.45594000000E+02  0.51100000000E-03 0.  1.
         11   -1    0    0    0    0 -0.00000000000E+00 -0.00000000000E+00 -0.45593999997E+02  0.45594000000E+02  0.51100000000E-03 0. -1.
    9900012    2    1    2    0    0 -0.22742579780E+02  0.23199579752E+02  0.28778088164E+02  0.47787265051E+02  0.19999972676E+02 0.  0.
         12    1    1    2    0    0  0.22742579780E+02 -0.23199579752E+02 -0.28778088164E+02  0.43400734949E+02  0.00000000000E+00 0. -1.
         11    1    3    3    0    0 -0.19199688376E+02  0.16293173337E+02  0.18399632222E+02  0.31187208873E+02  0.51100000000E-03 0. -1.
        -11    1    3    3    0    0  0.48618071190E+00  0.71668401199E+01  0.10305423194E+02  0.12561915318E+02  0.51100000000E-03 0.  1.
         12    1    3    3    0    0 -0.40290721158E+01 -0.26043370526E+00  0.73032748692E-01  0.40381408607E+01  0.00000000000E+00 0. -1.
</event>
<event>
 7    1  0.2751796E-010  0.4778727E+02  0.7816164E-02  0.1312668E+00
        -11   -1    0    0    0    0  0.00000000000E+00  0.00000000000E+00  0.45593999997E+02  0.45594000000E+02  0.51100000000E-03 0.  1.
         11   -1    0    0    0    0 -0.00000000000E+00 -0.00000000000E+00 -0.45593999997E+02  0.45594000000E+02  0.51100000000E-03 0. -1.
    9900012    2    1    2    0    0  0.26408059863E+02 -0.32285720324E+02  0.11994580194E+02  0.47787270552E+02  0.19999997756E+02 0.  0.
         12    1    1    2    0    0 -0.26408059863E+02  0.32285720324E+02 -0.11994580194E+02  0.43400729448E+02  0.00000000000E+00 0. -1.
         11    1    3    3    0    0  0.27703077057E+02 -0.31888664850E+02  0.12559826626E+02  0.44069225878E+02  0.51100000000E-03 0.  1.
        -11    1    3    3    0    0 -0.94881693471E+00  0.10993727114E+01 -0.13591814456E+01  0.19890320252E+01  0.51100000000E-03 0. -1.
        -12    1    3    3    0    0 -0.34620025997E+00 -0.14964281855E+01  0.79393501332E+00  0.17290126488E+01  0.00000000000E+00 0.  1.
</event>
<event>
 7    1  0.2751796E-010  0.4778727E+02  0.7816164E-02  0.1312668E+00
        -11   -1    0    0    0    0  0.00000000000E+00  0.00000000000E+00  0.45593999997E+02  0.45594000000E+02  0.51100000000E-03 0. -1.
         11   -1    0    0    0    0 -0.00000000000E+00 -0.00000000000E+00 -0.45593999997E+02  0.45594000000E+02  0.51100000000E-03 0.  1.
    9900012    2    1    2    0    0  0.33830443408E+02  0.21061485234E+02 -0.17191220745E+02  0.47787272678E+02  0.20000007446E+02 0.  0.
         12    1    1    2    0    0 -0.33830443408E+02 -0.21061485234E+02  0.17191220745E+02  0.43400727322E+02  0.00000000000E+00 0. -1.
         11    1    3    3    0    0 -0.22732214100E+01  0.16309524780E+01 -0.12644725190E+01  0.30702495952E+01  0.51100000000E-03 0. -1.
        -11    1    3    3    0    0  0.23802899463E+02  0.16007374452E+02 -0.83732533443E+01  0.29881857899E+02  0.51100000000E-03 0.  1.
        -12    1    3    3    0    0  0.12300765355E+02  0.34231583044E+01 -0.75534948812E+01  0.14835165183E+02  0.00000000000E+00 0.  1.
</event>
<event>
 7    1  0.2751796E-010  0.4778727E+02  0.7816164E-02  0.1312668E+00
        -11   -1    0    0    0    0  0.00000000000E+00  0.00000000000E+00  0.45593999997E+02  0.45594000000E+02  0.51100000000E-03 0.  1.
         11   -1    0    0    0    0 -0.00000000000E+00 -0.00000000000E+00 -0.45593999997E+02  0.45594000000E+02  0.51100000000E-03 0. -1.
    9900012    2    1    2    0    0 -0.28424956843E+01 -0.36302705919E+02  0.23614757204E+02  0.47787274239E+02  0.20000014567E+02 0.  0.
         12    1    1    2    0    0  0.28424956843E+01  0.36302705919E+02 -0.23614757204E+02  0.43400725761E+02  0.00000000000E+00 0. -1.
         11    1    3    3    0    0 -0.16435770406E+01  0.10416375836E+00 -0.23421458138E+01  0.28631875334E+01  0.51100000000E-03 0. -1.
        -11    1    3    3    0    0 -0.18914796376E+01 -0.33008916495E+02  0.24553717547E+02  0.41183143506E+02  0.51100000000E-03 0.  1.
         12    1    3    3    0    0  0.69256099390E+00 -0.33979531823E+01  0.14031854704E+01  0.37409431997E+01  0.00000000000E+00 0. -1.
</event>
<event>
 7    1  0.2751796E-010  0.4778731E+02  0.7816164E-02  0.1312668E+00
        -11   -1    0    0    0    0  0.00000000000E+00  0.00000000000E+00  0.45593999997E+02  0.45594000000E+02  0.51100000000E-03 0.  1.
         11   -1    0    0    0    0 -0.00000000000E+00 -0.00000000000E+00 -0.45593999997E+02  0.45594000000E+02  0.51100000000E-03 0. -1.
    9900012    2    1    2    0    0  0.25613675272E+02 -0.16521717537E+01  0.34997567406E+02  0.47787311563E+02  0.20000184741E+02 0.  0.
         12    1    1    2    0    0 -0.25613675272E+02  0.16521717537E+01 -0.34997567406E+02  0.43400688437E+02  0.00000000000E+00 0. -1.
         11    1    3    3    0    0  0.15011747670E+02 -0.77310728438E+01  0.23255550185E+02  0.28739218328E+02  0.51100000000E-03 0. -1.
        -11    1    3    3    0    0  0.11670719992E+02  0.61344178312E+01  0.12124057476E+02  0.17911715641E+02  0.51100000000E-03 0.  1.
         12    1    3    3    0    0 -0.10687923897E+01 -0.55516741069E-01 -0.38204025513E+00  0.11363775945E+01  0.00000000000E+00 0. -1.
</event>
<event>
 7    1  0.2751796E-010  0.4778727E+02  0.7816164E-02  0.1312668E+00
        -11   -1    0    0    0    0  0.00000000000E+00  0.00000000000E+00  0.45593999997E+02  0.45594000000E+02  0.51100000000E-03 0. -1.
         11   -1    0    0    0    0 -0.00000000000E+00 -0.00000000000E+00 -0.45593999997E+02  0.45594000000E+02  0.51100000000E-03 0.  1.
    9900012    2    1    2    0    0 -0.20789695364E+02 -0.33655256239E+02  0.17853158255E+02  0.47787274597E+02  0.20000016198E+02 0.  0.
         12    1    1    2    0    0  0.20789695364E+02  0.33655256239E+02 -0.17853158255E+02  0.43400725403E+02  0.00000000000E+00 0. -1.
         11    1    3    3    0    0  0.30951360996E+01 -0.11823365546E+01 -0.26876968320E+00  0.33241577289E+01  0.51100000000E-03 0. -1.
        -11    1    3    3    0    0 -0.14078923914E+02 -0.17874862108E+02  0.12713176156E+02  0.26064374962E+02  0.51100000000E-03 0.  1.
         12    1    3    3    0    0 -0.98059075499E+01 -0.14598057576E+02  0.54087517822E+01  0.18398741906E+02  0.00000000000E+00 0. -1.
</event>
<event>
 7    1  0.2751796E-010  0.4778728E+02  0.7816164E-02  0.1312668E+00
        -11   -1    0    0    0    0  0.00000000000E+00  0.00000000000E+00  0.45593999997E+02  0.45594000000E+02  0.51100000000E-03 0. -1.
         11   -1    0    0    0    0 -0.00000000000E+00 -0.00000000000E+00 -0.45593999997E+02  0.45594000000E+02  0.51100000000E-03 0.  1.
    9900012    2    1    2    0    0  0.15023440991E+02  0.28256491456E+02 -0.29317055268E+02  0.47787276294E+02  0.20000023935E+02 0.  0.
         12    1    1    2    0    0 -0.15023440991E+02 -0.28256491456E+02  0.29317055268E+02  0.43400723706E+02  0.00000000000E+00 0. -1.
         11    1    3    3    0    0  0.47419776794E+00  0.69125570855E+01 -0.28056402290E+01  0.74752877094E+01  0.51100000000E-03 0. -1.
        -11    1    3    3    0    0  0.13676000404E+01  0.15324077907E+01 -0.12561758786E+02  0.12728565810E+02  0.51100000000E-03 0.  1.
        -12    1    3    3    0    0  0.13181643183E+02  0.19811526580E+02 -0.13949656253E+02  0.27583422775E+02  0.00000000000E+00 0.  1.
</event>
<event>
 7    1  0.2751796E-010  0.4778727E+02  0.7816164E-02  0.1312668E+00
        -11   -1    0    0    0    0  0.00000000000E+00  0.00000000000E+00  0.45593999997E+02  0.45594000000E+02  0.51100000000E-03 0. -1.
         11   -1    0    0    0    0 -0.00000000000E+00 -0.00000000000E+00 -0.45593999997E+02  0.45594000000E+02  0.51100000000E-03 0.  1.
    9900012    2    1    2    0    0 -0.23482319534E+02  0.25016231879E+02 -0.26578038629E+02  0.47787270450E+02  0.19999997289E+02 0.  0.
         12    1    1    2    0    0  0.23482319534E+02 -0.25016231879E+02  0.26578038629E+02  0.43400729550E+02  0.00000000000E+00 0. -1.
         11    1    3    3    0    0 -0.40697555391E+01  0.27011716973E+01  0.21833474101E+01  0.53503499755E+01  0.51100000000E-03 0. -1.
        -11    1    3    3    0    0 -0.13576484275E+02  0.87185862545E+01 -0.17789312356E+02  0.24016542339E+02  0.51100000000E-03 0.  1.
        -12    1    3    3    0    0 -0.58360797198E+01  0.13596473927E+02 -0.10972073683E+02  0.18420378135E+02  0.00000000000E+00 0.  1.
</event>
<event>
 7    1  0.2751796E-010  0.4778726E+02  0.7816164E-02  0.1312668E+00
        -11   -1    0    0    0    0  0.00000000000E+00  0.00000000000E+00  0.45593999997E+02  0.45594000000E+02  0.51100000000E-03 0. -1.
         11   -1    0    0    0    0 -0.00000000000E+00 -0.00000000000E+00 -0.45593999997E+02  0.45594000000E+02  0.51100000000E-03 0.  1.
    9900012    2    1    2    0    0 -0.23829056679E+02 -0.33847986933E+02  0.13042762080E+02  0.47787264934E+02  0.19999972139E+02 0.  0.
         12    1    1    2    0    0  0.23829056679E+02  0.33847986933E+02 -0.13042762080E+02  0.43400735066E+02  0.00000000000E+00 0. -1.
         11    1    3    3    0    0 -0.70160144353E+01 -0.30319460982E+01  0.65749415878E+01  0.10082014325E+02  0.51100000000E-03 0. -1.
        -11    1    3    3    0    0 -0.17440438870E+02 -0.31513046105E+02  0.69007584564E+01  0.36672352669E+02  0.51100000000E-03 0.  1.
        -12    1    3    3    0    0  0.62739662641E+00  0.69700527010E+00 -0.43293796385E+00  0.10328979397E+01  0.00000000000E+00 0.  1.
</event>
<event>
 7    1  0.2751796E-010  0.4778727E+02  0.7816164E-02  0.1312668E+00
        -11   -1    0    0    0    0  0.00000000000E+00  0.00000000000E+00  0.45593999997E+02  0.45594000000E+02  0.51100000000E-03 0.  1.
         11   -1    0    0    0    0 -0.00000000000E+00 -0.00000000000E+00 -0.45593999997E+02  0.45594000000E+02  0.51100000000E-03 0. -1.
    9900012    2    1    2    0    0  0.10472719772E+02 -0.19746663586E+02  0.37202350675E+02  0.47787268693E+02  0.19999989281E+02 0.  0.
         12    1    1    2    0    0 -0.10472719772E+02  0.19746663586E+02 -0.37202350675E+02  0.43400731307E+02  0.00000000000E+00 0. -1.
         11    1    3    3    0    0  0.95679183827E+01 -0.38487625002E+01  0.15796452310E+02  0.18864939459E+02  0.51100000000E-03 0. -1.
        -11    1    3    3    0    0 -0.45856694812E+01 -0.32770374443E+01  0.71834220768E+01  0.91306567123E+01  0.51100000000E-03 0.  1.
        -12    1    3    3    0    0  0.54904708704E+01 -0.12620863642E+02  0.14222476288E+02  0.19791672522E+02  0.00000000000E+00 0.  1.
</event>
<event>
 7    1  0.2751796E-010  0.4778727E+02  0.7816164E-02  0.1312668E+00
        -11   -1    0    0    0    0  0.00000000000E+00  0.00000000000E+00  0.45593999997E+02  0.45594000000E+02  0.51100000000E-03 0. -1.
         11   -1    0    0    0    0 -0.00000000000E+00 -0.00000000000E+00 -0.45593999997E+02  0.45594000000E+02  0.51100000000E-03 0.  1.
    9900012    2    1    2    0    0  0.26987002884E+02 -0.27590864278E+02 -0.19851185198E+02  0.47787266481E+02  0.19999979192E+02 0.  0.
         12    1    1    2    0    0 -0.26987002884E+02  0.27590864278E+02  0.19851185198E+02  0.43400733519E+02  0.00000000000E+00 0. -1.
         11    1    3    3    0    0  0.11594510119E+02 -0.47842207760E+01  0.61923670795E+00  0.12558060666E+02  0.51100000000E-03 0. -1.
        -11    1    3    3    0    0  0.16078272359E+02 -0.22720800267E+02 -0.20447667470E+02  0.34537699866E+02  0.51100000000E-03 0.  1.
         12    1    3    3    0    0 -0.68577959397E+00 -0.85843234709E-01 -0.22754436172E-01  0.69150594851E+00  0.00000000000E+00 0. -1.
</event>
<event>
 7    1  0.2751796E-010  0.4778727E+02  0.7816164E-02  0.1312668E+00
        -11   -1    0    0    0    0  0.00000000000E+00  0.00000000000E+00  0.45593999997E+02  0.45594000000E+02  0.51100000000E-03 0.  1.
         11   -1    0    0    0    0 -0.00000000000E+00 -0.00000000000E+00 -0.45593999997E+02  0.45594000000E+02  0.51100000000E-03 0. -1.
    9900012    2    1    2    0    0 -0.75335853549E+01  0.41151642403E+02 -0.11550354911E+02  0.47787270981E+02  0.19999999712E+02 0.  0.
         12    1    1    2    0    0  0.75335853549E+01 -0.41151642403E+02  0.11550354911E+02  0.43400729019E+02  0.00000000000E+00 0. -1.
         11    1    3    3    0    0  0.14686590219E+01  0.20219808595E+02 -0.10081132934E+02  0.22641264550E+02  0.51100000000E-03 0. -1.
        -11    1    3    3    0    0 -0.28596434123E+01  0.88865328819E+01  0.45030634385E+01  0.10364632540E+02  0.51100000000E-03 0.  1.
        -12    1    3    3    0    0 -0.61426009645E+01  0.12045300927E+02 -0.59722854155E+01  0.14781373891E+02  0.00000000000E+00 0.  1.
</event>
<event>
 7    1  0.2751796E-010  0.4778727E+02  0.7816164E-02  0.1312668E+00
        -11   -1    0    0    0    0  0.00000000000E+00  0.00000000000E+00  0.45593999997E+02  0.45594000000E+02  0.51100000000E-03 0.  1.
         11   -1    0    0    0    0 -0.00000000000E+00 -0.00000000000E+00 -0.45593999997E+02  0.45594000000E+02  0.51100000000E-03 0. -1.
    9900012    2    1    2    0    0 -0.35118225971E+02  0.45097371040E+01  0.25099711538E+02  0.47787273700E+02  0.20000012108E+02 0.  0.
         12    1    1    2    0    0  0.35118225971E+02 -0.45097371040E+01 -0.25099711538E+02  0.43400726300E+02  0.00000000000E+00 0. -1.
         11    1    3    3    0    0 -0.40671755587E+01 -0.53839176414E+01  0.66337782521E+00  0.67800115482E+01  0.51100000000E-03 0. -1.
        -11    1    3    3    0    0 -0.18337447035E+02  0.80704020406E+01  0.13750650632E+02  0.24299665552E+02  0.51100000000E-03 0.  1.
         12    1    3    3    0    0 -0.12713603377E+02  0.18232527048E+01  0.10685683080E+02  0.16707596600E+02  0.00000000000E+00 0. -1.
</event>
<event>
 7    1  0.2751796E-010  0.4778727E+02  0.7816164E-02  0.1312668E+00
        -11   -1    0    0    0    0  0.00000000000E+00  0.00000000000E+00  0.45593999997E+02  0.45594000000E+02  0.51100000000E-03 0. -1.
         11   -1    0    0    0    0 -0.00000000000E+00 -0.00000000000E+00 -0.45593999997E+02  0.45594000000E+02  0.51100000000E-03 0.  1.
    9900012    2    1    2    0    0 -0.37573480561E+02 -0.21682882802E+02 -0.13075010606E+01  0.47787269510E+02  0.19999993002E+02 0.  0.
         12    1    1    2    0    0  0.37573480561E+02  0.21682882802E+02  0.13075010606E+01  0.43400730490E+02  0.00000000000E+00 0. -1.
         11    1    3    3    0    0 -0.22529941358E+02 -0.49726311830E+01  0.31706431108E+01  0.23289016649E+02  0.51100000000E-03 0. -1.
        -11    1    3    3    0    0 -0.15764804610E+02 -0.13668287193E+02 -0.46134578606E+01  0.21369022740E+02  0.51100000000E-03 0.  1.
         12    1    3    3    0    0  0.72126540663E+00 -0.30419644255E+01  0.13531368931E+00  0.31292301206E+01  0.00000000000E+00 0. -1.
</event>
<event>
 7    1  0.2751796E-010  0.4778730E+02  0.7816164E-02  0.1312668E+00
        -11   -1    0    0    0    0  0.00000000000E+00  0.00000000000E+00  0.45593999997E+02  0.45594000000E+02  0.51100000000E-03 0.  1.
         11   -1    0    0    0    0 -0.00000000000E+00 -0.00000000000E+00 -0.45593999997E+02  0.45594000000E+02  0.51100000000E-03 0. -1.
    9900012    2    1    2    0    0  0.44349880337E+01  0.32755017887E+02  0.28125789408E+02  0.47787304781E+02  0.20000153819E+02 0.  0.
         12    1    1    2    0    0 -0.44349880337E+01 -0.32755017887E+02 -0.28125789408E+02  0.43400695219E+02  0.00000000000E+00 0. -1.
         11    1    3    3    0    0 -0.47439757393E+01  0.35128785368E+01  0.58076407675E+01  0.82809608727E+01  0.51100000000E-03 0. -1.
        -11    1    3    3    0    0  0.86013771979E+01  0.14735635391E+02  0.71198305393E+01  0.18488229424E+02  0.51100000000E-03 0.  1.
        -12    1    3    3    0    0  0.57758657507E+00  0.14506503960E+02  0.15198318101E+02  0.21018114485E+02  0.00000000000E+00 0.  1.
</event>
<event>
 7    1  0.2751796E-010  0.4778727E+02  0.7816164E-02  0.1312668E+00
        -11   -1    0    0    0    0  0.00000000000E+00  0.00000000000E+00  0.45593999997E+02  0.45594000000E+02  0.51100000000E-03 0. -1.
         11   -1    0    0    0    0 -0.00000000000E+00 -0.00000000000E+00 -0.45593999997E+02  0.45594000000E+02  0.51100000000E-03 0.  1.
    9900012    2    1    2    0    0  0.30750331339E+02 -0.24300933283E+02 -0.18641482297E+02  0.47787273070E+02  0.20000009234E+02 0.  0.
         12    1    1    2    0    0 -0.30750331339E+02  0.24300933283E+02  0.18641482297E+02  0.43400726930E+02  0.00000000000E+00 0. -1.
         11    1    3    3    0    0  0.94197598871E+01 -0.38614928382E+01 -0.12288228089E+02  0.15957554735E+02  0.51100000000E-03 0.  1.
        -11    1    3    3    0    0  0.77624950563E+01 -0.75057344386E+01  0.25241417036E+01  0.11088898528E+02  0.51100000000E-03 0. -1.
        -12    1    3    3    0    0  0.13568076396E+02 -0.12933706006E+02 -0.88773959108E+01  0.20740819807E+02  0.00000000000E+00 0.  1.
</event>
<event>
 7    1  0.2751796E-010  0.4778727E+02  0.7816164E-02  0.1312668E+00
        -11   -1    0    0    0    0  0.00000000000E+00  0.00000000000E+00  0.45593999997E+02  0.45594000000E+02  0.51100000000E-03 0. -1.
         11   -1    0    0    0    0 -0.00000000000E+00 -0.00000000000E+00 -0.45593999997E+02  0.45594000000E+02  0.51100000000E-03 0.  1.
    9900012    2    1    2    0    0 -0.23279129800E+02 -0.35874393047E+02  0.73981997060E+01  0.47787270517E+02  0.19999997596E+02 0.  0.
         12    1    1    2    0    0  0.23279129800E+02  0.35874393047E+02 -0.73981997060E+01  0.43400729483E+02  0.00000000000E+00 0. -1.
         11    1    3    3    0    0 -0.49177619837E+01 -0.63329948766E+01  0.27881636009E+01  0.84891144157E+01  0.51100000000E-03 0. -1.
        -11    1    3    3    0    0 -0.16833331177E+02 -0.11863040046E+02 -0.11958167984E+01  0.20628202436E+02  0.51100000000E-03 0.  1.
        -12    1    3    3    0    0 -0.15280366389E+01 -0.17678358125E+02  0.58058529034E+01  0.18669953666E+02  0.00000000000E+00 0.  1.
</event>
<event>
 7    1  0.2751796E-010  0.4778727E+02  0.7816164E-02  0.1312668E+00
        -11   -1    0    0    0    0  0.00000000000E+00  0.00000000000E+00  0.45593999997E+02  0.45594000000E+02  0.51100000000E-03 0. -1.
         11   -1    0    0    0    0 -0.00000000000E+00 -0.00000000000E+00 -0.45593999997E+02  0.45594000000E+02  0.51100000000E-03 0.  1.
    9900012    2    1    2    0    0  0.51903784281E+01  0.42780283108E+02  0.51507989836E+01  0.47787269808E+02  0.19999994363E+02 0.  0.
         12    1    1    2    0    0 -0.51903784281E+01 -0.42780283108E+02 -0.51507989836E+01  0.43400730192E+02  0.00000000000E+00 0. -1.
         11    1    3    3    0    0  0.34072266068E+01  0.16633178275E+01  0.30808742661E+01  0.48854483776E+01  0.51100000000E-03 0. -1.
        -11    1    3    3    0    0 -0.42596424635E+01  0.27725568176E+02 -0.98157074863E-01  0.28051048459E+02  0.51100000000E-03 0.  1.
        -12    1    3    3    0    0  0.60427942848E+01  0.13391397105E+02  0.21680817924E+01  0.14850772971E+02  0.00000000000E+00 0.  1.
</event>
<event>
 7    1  0.2751796E-010  0.4778728E+02  0.7816164E-02  0.1312668E+00
        -11   -1    0    0    0    0  0.00000000000E+00  0.00000000000E+00  0.45593999997E+02  0.45594000000E+02  0.51100000000E-03 0.  1.
         11   -1    0    0    0    0 -0.00000000000E+00 -0.00000000000E+00 -0.45593999997E+02  0.45594000000E+02  0.51100000000E-03 0. -1.
    9900012    2    1    2    0    0  0.30218579568E+02  0.29895888386E+02  0.87576017593E+01  0.47787282471E+02  0.20000052096E+02 0.  0.
         12    1    1    2    0    0 -0.30218579568E+02 -0.29895888386E+02 -0.87576017593E+01  0.43400717529E+02  0.00000000000E+00 0. -1.
         11    1    3    3    0    0  0.92344987986E+01  0.11726995463E+02  0.49308720891E+00  0.14934574848E+02  0.51100000000E-03 0. -1.
        -11    1    3    3    0    0  0.21219235095E+02  0.13325128971E+02  0.22942360822E+01  0.25161051639E+02  0.51100000000E-03 0.  1.
        -12    1    3    3    0    0 -0.23515432543E+00  0.48437639523E+01  0.59702784682E+01  0.76916559836E+01  0.00000000000E+00 0.  1.
</event>
<event>
 7    1  0.2751796E-010  0.4778727E+02  0.7816164E-02  0.1312668E+00
        -11   -1    0    0    0    0  0.00000000000E+00  0.00000000000E+00  0.45593999997E+02  0.45594000000E+02  0.51100000000E-03 0. -1.
         11   -1    0    0    0    0 -0.00000000000E+00 -0.00000000000E+00 -0.45593999997E+02  0.45594000000E+02  0.51100000000E-03 0.  1.
    9900012    2    1    2    0    0 -0.36020825046E+01  0.43561247583E+01 -0.43031064509E+02  0.47787270351E+02  0.19999996840E+02 0.  0.
         12    1    1    2    0    0  0.36020825046E+01 -0.43561247583E+01  0.43031064509E+02  0.43400729649E+02  0.00000000000E+00 0. -1.
         11    1    3    3    0    0 -0.22062483048E+01 -0.39335222442E+01 -0.18002768416E+02  0.18559089410E+02  0.51100000000E-03 0.  1.
        -11    1    3    3    0    0 -0.30233207979E+01  0.92091766229E+01 -0.94463445346E+01  0.13534505091E+02  0.51100000000E-03 0. -1.
         12    1    3    3    0    0  0.16274865981E+01 -0.91952962040E+00 -0.15581951558E+02  0.15693675851E+02  0.00000000000E+00 0. -1.
</event>
<event>
 7    1  0.2751796E-010  0.4778727E+02  0.7816164E-02  0.1312668E+00
        -11   -1    0    0    0    0  0.00000000000E+00  0.00000000000E+00  0.45593999997E+02  0.45594000000E+02  0.51100000000E-03 0.  1.
         11   -1    0    0    0    0 -0.00000000000E+00 -0.00000000000E+00 -0.45593999997E+02  0.45594000000E+02  0.51100000000E-03 0. -1.
    9900012    2    1    2    0    0 -0.26318823011E+02 -0.22152217203E+02  0.26461714029E+02  0.47787268658E+02  0.19999989118E+02 0.  0.
         12    1    1    2    0    0  0.26318823011E+02  0.22152217203E+02 -0.26461714029E+02  0.43400731342E+02  0.00000000000E+00 0. -1.
         11    1    3    3    0    0 -0.12728194376E+02 -0.26403336478E+01  0.15425265706E+02  0.20172186699E+02  0.51100000000E-03 0. -1.
        -11    1    3    3    0    0 -0.53409020959E+01 -0.13652141395E+02  0.37088887853E+01  0.15121575849E+02  0.51100000000E-03 0.  1.
        -12    1    3    3    0    0 -0.82497265389E+01 -0.58597421601E+01  0.73275595381E+01  0.12493506111E+02  0.00000000000E+00 0.  1.
</event>
<event>
 7    1  0.2751796E-010  0.4778727E+02  0.7816164E-02  0.1312668E+00
        -11   -1    0    0    0    0  0.00000000000E+00  0.00000000000E+00  0.45593999997E+02  0.45594000000E+02  0.51100000000E-03 0.  1.
         11   -1    0    0    0    0 -0.00000000000E+00 -0.00000000000E+00 -0.45593999997E+02  0.45594000000E+02  0.51100000000E-03 0. -1.
    9900012    2    1    2    0    0  0.22250170378E+02  0.36652118976E+02  0.67212530396E+01  0.47787272475E+02  0.20000006523E+02 0.  0.
         12    1    1    2    0    0 -0.22250170378E+02 -0.36652118976E+02 -0.67212530396E+01  0.43400727525E+02  0.00000000000E+00 0. -1.
         11    1    3    3    0    0  0.98040065763E+01  0.38477305182E+01 -0.21939989753E+01  0.10758122831E+02  0.51100000000E-03 0. -1.
        -11    1    3    3    0    0  0.13488832626E+02  0.29325828855E+02  0.75578382933E+01  0.33152281423E+02  0.51100000000E-03 0.  1.
         12    1    3    3    0    0 -0.10426688245E+01  0.34785596031E+01  0.13574137215E+01  0.38768682208E+01  0.00000000000E+00 0. -1.
</event>
<event>
 7    1  0.2751796E-010  0.4778727E+02  0.7816164E-02  0.1312668E+00
        -11   -1    0    0    0    0  0.00000000000E+00  0.00000000000E+00  0.45593999997E+02  0.45594000000E+02  0.51100000000E-03 0. -1.
         11   -1    0    0    0    0 -0.00000000000E+00 -0.00000000000E+00 -0.45593999997E+02  0.45594000000E+02  0.51100000000E-03 0.  1.
    9900012    2    1    2    0    0 -0.32914971162E+02  0.14296040705E+02 -0.24410063734E+02  0.47787270537E+02  0.19999997685E+02 0.  0.
         12    1    1    2    0    0  0.32914971162E+02 -0.14296040705E+02  0.24410063734E+02  0.43400729463E+02  0.00000000000E+00 0. -1.
         11    1    3    3    0    0 -0.10280424140E+02 -0.17951081637E+01 -0.14489983315E+01  0.10536087046E+02  0.51100000000E-03 0. -1.
        -11    1    3    3    0    0 -0.17769954362E+02  0.78309502940E+01 -0.12668469634E+02  0.23185883284E+02  0.51100000000E-03 0.  1.
         12    1    3    3    0    0 -0.48645926602E+01  0.82601985750E+01 -0.10292595769E+02  0.14065300207E+02  0.00000000000E+00 0. -1.
</event>
<event>
 7    1  0.2751796E-010  0.4778727E+02  0.7816164E-02  0.1312668E+00
        -11   -1    0    0    0    0  0.00000000000E+00  0.00000000000E+00  0.45593999997E+02  0.45594000000E+02  0.51100000000E-03 0.  1.
         11   -1    0    0    0    0 -0.00000000000E+00 -0.00000000000E+00 -0.45593999997E+02  0.45594000000E+02  0.51100000000E-03 0. -1.
    9900012    2    1    2    0    0  0.11826986078E+02  0.54916391703E+01  0.41395506114E+02  0.47787266977E+02  0.19999981456E+02 0.  0.
         12    1    1    2    0    0 -0.11826986078E+02 -0.54916391703E+01 -0.41395506114E+02  0.43400733023E+02  0.00000000000E+00 0. -1.
         11    1    3    3    0    0  0.60309194419E+01  0.10755512123E+02  0.13209619046E+02  0.18070613325E+02  0.51100000000E-03 0. -1.
        -11    1    3    3    0    0  0.63830564158E+01 -0.31326957370E+01  0.19568657560E+02  0.20820411878E+02  0.51100000000E-03 0.  1.
         12    1    3    3    0    0 -0.58698977959E+00 -0.21311772152E+01  0.86172295078E+01  0.88962417747E+01  0.00000000000E+00 0. -1.
</event>
<event>
 7    1  0.2751796E-010  0.4778727E+02  0.7816164E-02  0.1312668E+00
        -11   -1    0    0    0    0  0.00000000000E+00  0.00000000000E+00  0.45593999997E+02  0.45594000000E+02  0.51100000000E-03 0.  1.
         11   -1    0    0    0    0 -0.00000000000E+00 -0.00000000000E+00 -0.45593999997E+02  0.45594000000E+02  0.51100000000E-03 0. -1.
    9900012    2    1    2    0    0 -0.13560518058E+02 -0.31856935311E+02  0.26170046694E+02  0.47787270497E+02  0.19999997506E+02 0.  0.
         12    1    1    2    0    0  0.13560518058E+02  0.31856935311E+02 -0.26170046694E+02  0.43400729503E+02  0.00000000000E+00 0. -1.
         11    1    3    3    0    0 -0.86522850129E+01 -0.24314514559E+02  0.11183463630E+02  0.28126989054E+02  0.51100000000E-03 0. -1.
        -11    1    3    3    0    0  0.22751306700E+00 -0.53682557856E+01  0.23827577697E+01  0.58777093519E+01  0.51100000000E-03 0.  1.
         12    1    3    3    0    0 -0.51357461123E+01 -0.21741649661E+01  0.12603825294E+02  0.13782572092E+02  0.00000000000E+00 0. -1.
</event>
<event>
 7    1  0.2751796E-010  0.4778727E+02  0.7816164E-02  0.1312668E+00
        -11   -1    0    0    0    0  0.00000000000E+00  0.00000000000E+00  0.45593999997E+02  0.45594000000E+02  0.51100000000E-03 0.  1.
         11   -1    0    0    0    0 -0.00000000000E+00 -0.00000000000E+00 -0.45593999997E+02  0.45594000000E+02  0.51100000000E-03 0. -1.
    9900012    2    1    2    0    0  0.48888099196E+01 -0.25251497611E+01  0.43050508254E+02  0.47787272994E+02  0.20000008887E+02 0.  0.
         12    1    1    2    0    0 -0.48888099196E+01  0.25251497611E+01 -0.43050508254E+02  0.43400727006E+02  0.00000000000E+00 0. -1.
         11    1    3    3    0    0  0.90100863989E+01  0.29041297808E+01  0.31649941341E+02  0.33035350973E+02  0.51100000000E-03 0. -1.
        -11    1    3    3    0    0  0.15731385927E+01 -0.19634374471E+01  0.45114291154E+01  0.51655439757E+01  0.51100000000E-03 0.  1.
         12    1    3    3    0    0 -0.56944150721E+01 -0.34658420947E+01  0.68891377972E+01  0.95863780453E+01  0.00000000000E+00 0. -1.
</event>
<event>
 7    1  0.2751796E-010  0.4778727E+02  0.7816164E-02  0.1312668E+00
        -11   -1    0    0    0    0  0.00000000000E+00  0.00000000000E+00  0.45593999997E+02  0.45594000000E+02  0.51100000000E-03 0.  1.
         11   -1    0    0    0    0 -0.00000000000E+00 -0.00000000000E+00 -0.45593999997E+02  0.45594000000E+02  0.51100000000E-03 0. -1.
    9900012    2    1    2    0    0  0.31654556703E+02  0.26605741752E+02  0.13181302790E+02  0.47787271924E+02  0.20000004012E+02 0.  0.
         12    1    1    2    0    0 -0.31654556703E+02 -0.26605741752E+02 -0.13181302790E+02  0.43400728076E+02  0.00000000000E+00 0. -1.
         11    1    3    3    0    0 -0.64644686136E-01 -0.30464064784E-01 -0.27740690809E+01  0.27749894633E+01  0.51100000000E-03 0. -1.
        -11    1    3    3    0    0  0.21564859006E+02  0.22320331707E+02  0.12377352241E+02  0.33413159088E+02  0.51100000000E-03 0.  1.
         12    1    3    3    0    0  0.10154342382E+02  0.43158741108E+01  0.35780196299E+01  0.11599123373E+02  0.00000000000E+00 0. -1.
</event>
<event>
 7    1  0.2751796E-010  0.4778727E+02  0.7816164E-02  0.1312668E+00
        -11   -1    0    0    0    0  0.00000000000E+00  0.00000000000E+00  0.45593999997E+02  0.45594000000E+02  0.51100000000E-03 0.  1.
         11   -1    0    0    0    0 -0.00000000000E+00 -0.00000000000E+00 -0.45593999997E+02  0.45594000000E+02  0.51100000000E-03 0. -1.
    9900012    2    1    2    0    0  0.32032816724E+02 -0.18242239786E+02  0.22907261704E+02  0.47787270762E+02  0.19999998710E+02 0.  0.
         12    1    1    2    0    0 -0.32032816724E+02  0.18242239786E+02 -0.22907261704E+02  0.43400729238E+02  0.00000000000E+00 0. -1.
         11    1    3    3    0    0  0.12666667749E+02  0.94696535546E+00  0.16787265501E+01  0.12812468082E+02  0.51100000000E-03 0. -1.
        -11    1    3    3    0    0  0.97459699248E+01 -0.91739790203E+01  0.13804211982E+02  0.19227638689E+02  0.51100000000E-03 0.  1.
         12    1    3    3    0    0  0.96201790494E+01 -0.10015226121E+02  0.74243231717E+01  0.15747163991E+02  0.00000000000E+00 0. -1.
</event>
<event>
 7    1  0.2751796E-010  0.4778727E+02  0.7816164E-02  0.1312668E+00
        -11   -1    0    0    0    0  0.00000000000E+00  0.00000000000E+00  0.45593999997E+02  0.45594000000E+02  0.51100000000E-03 0.  1.
         11   -1    0    0    0    0 -0.00000000000E+00 -0.00000000000E+00 -0.45593999997E+02  0.45594000000E+02  0.51100000000E-03 0. -1.
    9900012    2    1    2    0    0  0.57654789483E+01 -0.43005801461E+02 -0.94010183219E+00  0.47787268460E+02  0.19999988214E+02 0.  0.
         12    1    1    2    0    0 -0.57654789483E+01  0.43005801461E+02  0.94010183219E+00  0.43400731540E+02  0.00000000000E+00 0. -1.
         11    1    3    3    0    0  0.91546389643E+00  0.61467981701E+00  0.75535658198E+00  0.13365886615E+01  0.51100000000E-03 0. -1.
        -11    1    3    3    0    0  0.54036767097E+01 -0.16802585965E+02  0.58357677582E+01  0.18589857522E+02  0.51100000000E-03 0.  1.
        -12    1    3    3    0    0 -0.55366165777E+00 -0.26817895313E+02 -0.75312261724E+01  0.27860822276E+02  0.00000000000E+00 0.  1.
</event>
<event>
 7    1  0.2751796E-010  0.4778727E+02  0.7816164E-02  0.1312668E+00
        -11   -1    0    0    0    0  0.00000000000E+00  0.00000000000E+00  0.45593999997E+02  0.45594000000E+02  0.51100000000E-03 0. -1.
         11   -1    0    0    0    0 -0.00000000000E+00 -0.00000000000E+00 -0.45593999997E+02  0.45594000000E+02  0.51100000000E-03 0.  1.
    9900012    2    1    2    0    0 -0.37030394819E+02 -0.14119734439E+02 -0.17691981011E+02  0.47787271513E+02  0.20000002138E+02 0.  0.
         12    1    1    2    0    0  0.37030394819E+02  0.14119734439E+02  0.17691981011E+02  0.43400728487E+02  0.00000000000E+00 0. -1.
         11    1    3    3    0    0 -0.20536043078E+02 -0.38425955014E+01 -0.15054635903E+02  0.25751440114E+02  0.51100000000E-03 0.  1.
        -11    1    3    3    0    0 -0.17724646333E+02 -0.88706139964E+01 -0.15669635116E+01  0.19882310108E+02  0.51100000000E-03 0. -1.
        -12    1    3    3    0    0  0.12302945923E+01 -0.14065249408E+01 -0.10703815961E+01  0.21535212918E+01  0.00000000000E+00 0.  1.
</event>
<event>
 7    1  0.2751796E-010  0.4778727E+02  0.7816164E-02  0.1312668E+00
        -11   -1    0    0    0    0  0.00000000000E+00  0.00000000000E+00  0.45593999997E+02  0.45594000000E+02  0.51100000000E-03 0. -1.
         11   -1    0    0    0    0 -0.00000000000E+00 -0.00000000000E+00 -0.45593999997E+02  0.45594000000E+02  0.51100000000E-03 0.  1.
    9900012    2    1    2    0    0  0.19937761873E+02 -0.22598238890E+02 -0.31231852748E+02  0.47787269874E+02  0.19999994663E+02 0.  0.
         12    1    1    2    0    0 -0.19937761873E+02  0.22598238890E+02  0.31231852748E+02  0.43400730126E+02  0.00000000000E+00 0. -1.
         11    1    3    3    0    0 -0.25231186127E+01  0.87009193947E+00 -0.21857242623E+01  0.34497214857E+01  0.51100000000E-03 0. -1.
        -11    1    3    3    0    0  0.14167683709E+02 -0.10336628030E+02 -0.18914024772E+02  0.25793593663E+02  0.51100000000E-03 0.  1.
         12    1    3    3    0    0  0.82931967772E+01 -0.13131702800E+02 -0.10132103713E+02  0.18543954726E+02  0.00000000000E+00 0. -1.
</event>
<event>
 7    1  0.2751796E-010  0.4778727E+02  0.7816164E-02  0.1312668E+00
        -11   -1    0    0    0    0  0.00000000000E+00  0.00000000000E+00  0.45593999997E+02  0.45594000000E+02  0.51100000000E-03 0. -1.
         11   -1    0    0    0    0 -0.00000000000E+00 -0.00000000000E+00 -0.45593999997E+02  0.45594000000E+02  0.51100000000E-03 0.  1.
    9900012    2    1    2    0    0  0.34034306579E+02 -0.70328859267E+01 -0.25996690586E+02  0.47787269244E+02  0.19999991790E+02 0.  0.
         12    1    1    2    0    0 -0.34034306579E+02  0.70328859267E+01  0.25996690586E+02  0.43400730756E+02  0.00000000000E+00 0. -1.
         11    1    3    3    0    0  0.61467722639E+01 -0.28110077394E+01 -0.79711285847E+01  0.10451003059E+02  0.51100000000E-03 0. -1.
        -11    1    3    3    0    0  0.17085708935E+02 -0.23667565775E+01 -0.19771560557E+02  0.26238094322E+02  0.51100000000E-03 0.  1.
        -12    1    3    3    0    0  0.10801825380E+02 -0.18551216098E+01  0.17459985561E+01  0.11098171862E+02  0.00000000000E+00 0.  1.
</event>
<event>
 7    1  0.2751796E-010  0.4778727E+02  0.7816164E-02  0.1312668E+00
        -11   -1    0    0    0    0  0.00000000000E+00  0.00000000000E+00  0.45593999997E+02  0.45594000000E+02  0.51100000000E-03 0. -1.
         11   -1    0    0    0    0 -0.00000000000E+00 -0.00000000000E+00 -0.45593999997E+02  0.45594000000E+02  0.51100000000E-03 0.  1.
    9900012    2    1    2    0    0 -0.17684089745E+02  0.90923498085E+01 -0.38577523029E+02  0.47787272608E+02  0.20000007128E+02 0.  0.
         12    1    1    2    0    0  0.17684089745E+02 -0.90923498085E+01  0.38577523029E+02  0.43400727392E+02  0.00000000000E+00 0. -1.
         11    1    3    3    0    0 -0.51822877277E+00  0.33516877890E+01 -0.21878247984E+01  0.40359570991E+01  0.51100000000E-03 0. -1.
        -11    1    3    3    0    0  0.29563627909E+01  0.20898501110E+01 -0.78095005849E+01  0.86078948695E+01  0.51100000000E-03 0.  1.
        -12    1    3    3    0    0 -0.20122223763E+02  0.36508119084E+01 -0.28580197645E+02  0.35143420639E+02  0.00000000000E+00 0.  1.
</event>
<event>
 7    1  0.2751796E-010  0.4778727E+02  0.7816164E-02  0.1312668E+00
        -11   -1    0    0    0    0  0.00000000000E+00  0.00000000000E+00  0.45593999997E+02  0.45594000000E+02  0.51100000000E-03 0.  1.
         11   -1    0    0    0    0 -0.00000000000E+00 -0.00000000000E+00 -0.45593999997E+02  0.45594000000E+02  0.51100000000E-03 0. -1.
    9900012    2    1    2    0    0  0.29587408657E+02 -0.16922486106E+02  0.26867042932E+02  0.47787270940E+02  0.19999999524E+02 0.  0.
         12    1    1    2    0    0 -0.29587408657E+02  0.16922486106E+02 -0.26867042932E+02  0.43400729060E+02  0.00000000000E+00 0. -1.
         11    1    3    3    0    0  0.86001351506E+01  0.13392653761E+01  0.14931795702E+02  0.17283358456E+02  0.51100000000E-03 0. -1.
        -11    1    3    3    0    0  0.18174184409E+02 -0.14590870325E+02  0.11057429117E+02  0.25796534936E+02  0.51100000000E-03 0.  1.
         12    1    3    3    0    0  0.28130890968E+01 -0.36708811579E+01  0.87781811268E+00  0.47073775481E+01  0.00000000000E+00 0. -1.
</event>
<event>
 7    1  0.2751796E-010  0.4778726E+02  0.7816164E-02  0.1312668E+00
        -11   -1    0    0    0    0  0.00000000000E+00  0.00000000000E+00  0.45593999997E+02  0.45594000000E+02  0.51100000000E-03 0.  1.
         11   -1    0    0    0    0 -0.00000000000E+00 -0.00000000000E+00 -0.45593999997E+02  0.45594000000E+02  0.51100000000E-03 0. -1.
    9900012    2    1    2    0    0 -0.14571968692E+02 -0.37527382504E+02  0.16216579955E+02  0.47787260668E+02  0.19999952689E+02 0.  0.
         12    1    1    2    0    0  0.14571968692E+02  0.37527382504E+02 -0.16216579955E+02  0.43400739332E+02  0.00000000000E+00 0. -1.
         11    1    3    3    0    0  0.32215225663E+01 -0.74168170171E+01 -0.16366068627E+01  0.82502039123E+01  0.51100000000E-03 0. -1.
        -11    1    3    3    0    0 -0.14064382211E+02 -0.21087856906E+02  0.11133124202E+02  0.27684851645E+02  0.51100000000E-03 0.  1.
         12    1    3    3    0    0 -0.37291090475E+01 -0.90227085809E+01  0.67200626149E+01  0.11852205110E+02  0.00000000000E+00 0. -1.
</event>
<event>
 7    1  0.2751796E-010  0.4778726E+02  0.7816164E-02  0.1312668E+00
        -11   -1    0    0    0    0  0.00000000000E+00  0.00000000000E+00  0.45593999997E+02  0.45594000000E+02  0.51100000000E-03 0. -1.
         11   -1    0    0    0    0 -0.00000000000E+00 -0.00000000000E+00 -0.45593999997E+02  0.45594000000E+02  0.51100000000E-03 0.  1.
    9900012    2    1    2    0    0  0.20162671131E+02  0.12281590805E+02 -0.36417764282E+02  0.47787258818E+02  0.19999944253E+02 0.  0.
         12    1    1    2    0    0 -0.20162671131E+02 -0.12281590805E+02  0.36417764282E+02  0.43400741182E+02  0.00000000000E+00 0. -1.
         11    1    3    3    0    0  0.13511514598E+02  0.11781944665E+01 -0.69828262024E+01  0.15254803537E+02  0.51100000000E-03 0. -1.
        -11    1    3    3    0    0  0.60538926355E+01  0.11208883728E+02 -0.29241270927E+02  0.31895777403E+02  0.51100000000E-03 0.  1.
        -12    1    3    3    0    0  0.59726389802E+00 -0.10548738950E+00 -0.19366715318E+00  0.63667787730E+00  0.00000000000E+00 0.  1.
</event>
<event>
 7    1  0.2751796E-010  0.4778727E+02  0.7816164E-02  0.1312668E+00
        -11   -1    0    0    0    0  0.00000000000E+00  0.00000000000E+00  0.45593999997E+02  0.45594000000E+02  0.51100000000E-03 0.  1.
         11   -1    0    0    0    0 -0.00000000000E+00 -0.00000000000E+00 -0.45593999997E+02  0.45594000000E+02  0.51100000000E-03 0. -1.
    9900012    2    1    2    0    0 -0.22879292796E+02  0.36342214116E+02  0.62773181872E+01  0.47787270867E+02  0.19999999190E+02 0.  0.
         12    1    1    2    0    0  0.22879292796E+02 -0.36342214116E+02 -0.62773181872E+01  0.43400729133E+02  0.00000000000E+00 0. -1.
         11    1    3    3    0    0 -0.17794045915E+01  0.55200841115E+01 -0.34745520675E+01  0.67609260926E+01  0.51100000000E-03 0. -1.
        -11    1    3    3    0    0 -0.20060962933E+02  0.19113946969E+02  0.94236860132E+01  0.29267576956E+02  0.51100000000E-03 0.  1.
        -12    1    3    3    0    0 -0.10389252710E+01  0.11708183035E+02  0.32818424146E+00  0.11758767818E+02  0.00000000000E+00 0.  1.
</event>
<event>
 7    1  0.2751796E-010  0.4778727E+02  0.7816164E-02  0.1312668E+00
        -11   -1    0    0    0    0  0.00000000000E+00  0.00000000000E+00  0.45593999997E+02  0.45594000000E+02  0.51100000000E-03 0.  1.
         11   -1    0    0    0    0 -0.00000000000E+00 -0.00000000000E+00 -0.45593999997E+02  0.45594000000E+02  0.51100000000E-03 0. -1.
    9900012    2    1    2    0    0  0.69452467665E+00 -0.29019313979E+01  0.43298036204E+02  0.47787268330E+02  0.19999987623E+02 0.  0.
         12    1    1    2    0    0 -0.69452467665E+00  0.29019313979E+01 -0.43298036204E+02  0.43400731670E+02  0.00000000000E+00 0. -1.
         11    1    3    3    0    0 -0.65398867768E+01  0.36102341734E+01  0.10428208742E+02  0.12827760821E+02  0.51100000000E-03 0. -1.
        -11    1    3    3    0    0 -0.27468600420E+00  0.11226562868E+01  0.41582161933E+01  0.43158512151E+01  0.51100000000E-03 0.  1.
         12    1    3    3    0    0  0.75090974577E+01 -0.76348218581E+01  0.28711611269E+02  0.30643656294E+02  0.00000000000E+00 0. -1.
</event>
<event>
 7    1  0.2751796E-010  0.4778721E+02  0.7816164E-02  0.1312668E+00
        -11   -1    0    0    0    0  0.00000000000E+00  0.00000000000E+00  0.45593999997E+02  0.45594000000E+02  0.51100000000E-03 0. -1.
         11   -1    0    0    0    0 -0.00000000000E+00 -0.00000000000E+00 -0.45593999997E+02  0.45594000000E+02  0.51100000000E-03 0.  1.
    9900012    2    1    2    0    0  0.31731341380E+01 -0.85090454284E+00 -0.43276274474E+02  0.47787207943E+02  0.19999712294E+02 0.  0.
         12    1    1    2    0    0 -0.31731341380E+01  0.85090454284E+00  0.43276274474E+02  0.43400792057E+02  0.00000000000E+00 0. -1.
         11    1    3    3    0    0  0.37170182206E+01  0.76129781584E+01 -0.24217314356E+02  0.25656421726E+02  0.51100000000E-03 0. -1.
        -11    1    3    3    0    0  0.27872540557E+01 -0.59635392727E+01 -0.14674511213E+02  0.16083341240E+02  0.51100000000E-03 0.  1.
         12    1    3    3    0    0 -0.33311381383E+01 -0.25003434285E+01 -0.43844489051E+01  0.60474449776E+01  0.00000000000E+00 0. -1.
</event>
<event>
 7    1  0.2751796E-010  0.4778727E+02  0.7816164E-02  0.1312668E+00
        -11   -1    0    0    0    0  0.00000000000E+00  0.00000000000E+00  0.45593999997E+02  0.45594000000E+02  0.51100000000E-03 0.  1.
         11   -1    0    0    0    0 -0.00000000000E+00 -0.00000000000E+00 -0.45593999997E+02  0.45594000000E+02  0.51100000000E-03 0. -1.
    9900012    2    1    2    0    0 -0.12315820663E+02  0.27214936751E+02  0.31484774360E+02  0.47787271464E+02  0.20000001914E+02 0.  0.
         12    1    1    2    0    0  0.12315820663E+02 -0.27214936751E+02 -0.31484774360E+02  0.43400728536E+02  0.00000000000E+00 0. -1.
         11    1    3    3    0    0  0.41656640949E+01  0.83912691689E+01  0.70877927639E+01  0.11747466201E+02  0.51100000000E-03 0. -1.
        -11    1    3    3    0    0 -0.90395887810E+01  0.64385926244E+01  0.15526904023E+02  0.19085449670E+02  0.51100000000E-03 0.  1.
         12    1    3    3    0    0 -0.74418959771E+01  0.12385074958E+02  0.88700775730E+01  0.16954355593E+02  0.00000000000E+00 0. -1.
</event>
<event>
 7    1  0.2751796E-010  0.4778727E+02  0.7816164E-02  0.1312668E+00
        -11   -1    0    0    0    0  0.00000000000E+00  0.00000000000E+00  0.45593999997E+02  0.45594000000E+02  0.51100000000E-03 0. -1.
         11   -1    0    0    0    0 -0.00000000000E+00 -0.00000000000E+00 -0.45593999997E+02  0.45594000000E+02  0.51100000000E-03 0.  1.
    9900012    2    1    2    0    0 -0.34144088681E+01 -0.40356555814E+02  0.15598504862E+02  0.47787272598E+02  0.20000007082E+02 0.  0.
         12    1    1    2    0    0  0.34144088681E+01  0.40356555814E+02 -0.15598504862E+02  0.43400727402E+02  0.00000000000E+00 0. -1.
         11    1    3    3    0    0 -0.85922609341E+00 -0.10254126645E+02 -0.16186905034E+01  0.10416599346E+02  0.51100000000E-03 0. -1.
        -11    1    3    3    0    0 -0.22647572386E+01 -0.70597311498E+01  0.11407410288E+02  0.13605070342E+02  0.51100000000E-03 0.  1.
        -12    1    3    3    0    0 -0.29042553607E+00 -0.23042698020E+02  0.58097850769E+01  0.23765602910E+02  0.00000000000E+00 0.  1.
</event>
<event>
 7    1  0.2751796E-010  0.4778727E+02  0.7816164E-02  0.1312668E+00
        -11   -1    0    0    0    0  0.00000000000E+00  0.00000000000E+00  0.45593999997E+02  0.45594000000E+02  0.51100000000E-03 0.  1.
         11   -1    0    0    0    0 -0.00000000000E+00 -0.00000000000E+00 -0.45593999997E+02  0.45594000000E+02  0.51100000000E-03 0. -1.
    9900012    2    1    2    0    0  0.31847602329E+02 -0.12633695174E+02  0.26641012909E+02  0.47787267326E+02  0.19999983045E+02 0.  0.
         12    1    1    2    0    0 -0.31847602329E+02  0.12633695174E+02 -0.26641012909E+02  0.43400732674E+02  0.00000000000E+00 0. -1.
         11    1    3    3    0    0  0.19276471316E+02 -0.14264269399E+02  0.10691239568E+02  0.26255558110E+02  0.51100000000E-03 0. -1.
        -11    1    3    3    0    0  0.96824067649E+01  0.25845424847E+01  0.74018696004E+01  0.12458592796E+02  0.51100000000E-03 0.  1.
         12    1    3    3    0    0  0.28887242475E+01 -0.95396826004E+00  0.85479037401E+01  0.90731164199E+01  0.00000000000E+00 0. -1.
</event>
<event>
 7    1  0.2751796E-010  0.4778727E+02  0.7816164E-02  0.1312668E+00
        -11   -1    0    0    0    0  0.00000000000E+00  0.00000000000E+00  0.45593999997E+02  0.45594000000E+02  0.51100000000E-03 0. -1.
         11   -1    0    0    0    0 -0.00000000000E+00 -0.00000000000E+00 -0.45593999997E+02  0.45594000000E+02  0.51100000000E-03 0.  1.
    9900012    2    1    2    0    0  0.66764846712E+01 -0.66151581366E+00 -0.42879018892E+02  0.47787270606E+02  0.19999998002E+02 0.  0.
         12    1    1    2    0    0 -0.66764846712E+01  0.66151581366E+00  0.42879018892E+02  0.43400729394E+02  0.00000000000E+00 0. -1.
         11    1    3    3    0    0 -0.59505525970E+01  0.22629210124E+00 -0.10690096172E+02  0.12236765943E+02  0.51100000000E-03 0. -1.
        -11    1    3    3    0    0  0.10743956489E+02  0.26631318940E+01 -0.23846580952E+02  0.26290384095E+02  0.51100000000E-03 0.  1.
        -12    1    3    3    0    0  0.18830807796E+01 -0.35509398089E+01 -0.83423417681E+01  0.92601205675E+01  0.00000000000E+00 0.  1.
</event>
<event>
 7    1  0.2751796E-010  0.4778727E+02  0.7816164E-02  0.1312668E+00
        -11   -1    0    0    0    0  0.00000000000E+00  0.00000000000E+00  0.45593999997E+02  0.45594000000E+02  0.51100000000E-03 0. -1.
         11   -1    0    0    0    0 -0.00000000000E+00 -0.00000000000E+00 -0.45593999997E+02  0.45594000000E+02  0.51100000000E-03 0.  1.
    9900012    2    1    2    0    0 -0.25551183407E+01  0.12638982060E+02  0.41440928475E+02  0.47787273623E+02  0.20000011755E+02 0.  0.
         12    1    1    2    0    0  0.25551183407E+01 -0.12638982060E+02 -0.41440928475E+02  0.43400726377E+02  0.00000000000E+00 0. -1.
         11    1    3    3    0    0 -0.11210024847E+01  0.68788444080E+01  0.27771507442E+02  0.28632704602E+02  0.51100000000E-03 0. -1.
        -11    1    3    3    0    0  0.42314971406E+01 -0.52882662097E+00  0.19278349466E+01  0.46799330645E+01  0.51100000000E-03 0.  1.
        -12    1    3    3    0    0 -0.56656129966E+01  0.62889642728E+01  0.11741586086E+02  0.14474635956E+02  0.00000000000E+00 0.  1.
</event>
<event>
 7    1  0.2751796E-010  0.4778727E+02  0.7816164E-02  0.1312668E+00
        -11   -1    0    0    0    0  0.00000000000E+00  0.00000000000E+00  0.45593999997E+02  0.45594000000E+02  0.51100000000E-03 0.  1.
         11   -1    0    0    0    0 -0.00000000000E+00 -0.00000000000E+00 -0.45593999997E+02  0.45594000000E+02  0.51100000000E-03 0. -1.
    9900012    2    1    2    0    0  0.91835936069E+00 -0.39778751306E+02  0.17332931318E+02  0.47787274805E+02  0.20000017145E+02 0.  0.
         12    1    1    2    0    0 -0.91835936069E+00  0.39778751306E+02 -0.17332931318E+02  0.43400725195E+02  0.00000000000E+00 0. -1.
         11    1    3    3    0    0 -0.41623505413E+01 -0.17439281581E+02  0.83116802503E+01  0.19762027551E+02  0.51100000000E-03 0. -1.
        -11    1    3    3    0    0  0.89349255516E+01 -0.16915992129E+02  0.94901400681E+01  0.21355243925E+02  0.51100000000E-03 0.  1.
        -12    1    3    3    0    0 -0.38542156496E+01 -0.54234775962E+01 -0.46888900068E+00  0.66700033288E+01  0.00000000000E+00 0.  1.
</event>
<event>
 7    1  0.2751796E-010  0.4778727E+02  0.7816164E-02  0.1312668E+00
        -11   -1    0    0    0    0  0.00000000000E+00  0.00000000000E+00  0.45593999997E+02  0.45594000000E+02  0.51100000000E-03 0.  1.
         11   -1    0    0    0    0 -0.00000000000E+00 -0.00000000000E+00 -0.45593999997E+02  0.45594000000E+02  0.51100000000E-03 0. -1.
    9900012    2    1    2    0    0  0.38483092681E+02  0.13577454085E+02  0.14775929982E+02  0.47787265115E+02  0.19999972964E+02 0.  0.
         12    1    1    2    0    0 -0.38483092681E+02 -0.13577454085E+02 -0.14775929982E+02  0.43400734885E+02  0.00000000000E+00 0. -1.
         11    1    3    3    0    0  0.22939819764E+01  0.22183869705E+01  0.69791667363E+01  0.76741359548E+01  0.51100000000E-03 0. -1.
        -11    1    3    3    0    0  0.26178086666E+02  0.12951260603E+02  0.55184158052E+01  0.29723396272E+02  0.51100000000E-03 0.  1.
         12    1    3    3    0    0  0.10011024039E+02 -0.15921934884E+01  0.22783474406E+01  0.10389732888E+02  0.00000000000E+00 0. -1.
</event>
<event>
 7    1  0.2751796E-010  0.4778727E+02  0.7816164E-02  0.1312668E+00
        -11   -1    0    0    0    0  0.00000000000E+00  0.00000000000E+00  0.45593999997E+02  0.45594000000E+02  0.51100000000E-03 0.  1.
         11   -1    0    0    0    0 -0.00000000000E+00 -0.00000000000E+00 -0.45593999997E+02  0.45594000000E+02  0.51100000000E-03 0. -1.
    9900012    2    1    2    0    0  0.38879537325E+01 -0.10962339603E+02  0.41813087438E+02  0.47787270111E+02  0.19999995746E+02 0.  0.
         12    1    1    2    0    0 -0.38879537325E+01  0.10962339603E+02 -0.41813087438E+02  0.43400729889E+02  0.00000000000E+00 0. -1.
         11    1    3    3    0    0 -0.17138060668E+01  0.43918848200E+00 -0.15961782744E+01  0.23828141140E+01  0.51100000000E-03 0. -1.
        -11    1    3    3    0    0  0.19414881756E+01 -0.66006982173E+01  0.17565085062E+02  0.18864538340E+02  0.51100000000E-03 0.  1.
         12    1    3    3    0    0  0.36602716237E+01 -0.48008298677E+01  0.25844180650E+02  0.26539917657E+02  0.00000000000E+00 0. -1.
</event>
<event>
 7    1  0.2751796E-010  0.4778726E+02  0.7816164E-02  0.1312668E+00
        -11   -1    0    0    0    0  0.00000000000E+00  0.00000000000E+00  0.45593999997E+02  0.45594000000E+02  0.51100000000E-03 0.  1.
         11   -1    0    0    0    0 -0.00000000000E+00 -0.00000000000E+00 -0.45593999997E+02  0.45594000000E+02  0.51100000000E-03 0. -1.
    9900012    2    1    2    0    0  0.95683570510E+01 -0.31038167930E+02  0.28787206543E+02  0.47787255932E+02  0.19999931095E+02 0.  0.
         12    1    1    2    0    0 -0.95683570510E+01  0.31038167930E+02 -0.28787206543E+02  0.43400744068E+02  0.00000000000E+00 0. -1.
         11    1    3    3    0    0 -0.30839079737E+00  0.24570630280E+01  0.11227459443E+01  0.27189744986E+01  0.51100000000E-03 0. -1.
        -11    1    3    3    0    0  0.95878246514E+01 -0.25183776411E+02  0.23559700084E+02  0.35793972176E+02  0.51100000000E-03 0.  1.
        -12    1    3    3    0    0  0.28892319700E+00 -0.83114545471E+01  0.41047605153E+01  0.92743092567E+01  0.00000000000E+00 0.  1.
</event>
<event>
 7    1  0.2751796E-010  0.4778727E+02  0.7816164E-02  0.1312668E+00
        -11   -1    0    0    0    0  0.00000000000E+00  0.00000000000E+00  0.45593999997E+02  0.45594000000E+02  0.51100000000E-03 0.  1.
         11   -1    0    0    0    0 -0.00000000000E+00 -0.00000000000E+00 -0.45593999997E+02  0.45594000000E+02  0.51100000000E-03 0. -1.
    9900012    2    1    2    0    0 -0.28123871424E+02 -0.33055049130E+02  0.18642628983E+00  0.47787272222E+02  0.20000005369E+02 0.  0.
         12    1    1    2    0    0  0.28123871424E+02  0.33055049130E+02 -0.18642628983E+00  0.43400727778E+02  0.00000000000E+00 0. -1.
         11    1    3    3    0    0  0.93901665324E-01 -0.72063980127E+00 -0.22894694545E+01  0.24020428577E+01  0.51100000000E-03 0. -1.
        -11    1    3    3    0    0 -0.21208637628E+02 -0.24493243130E+02  0.81864072731E+01  0.33417697906E+02  0.51100000000E-03 0.  1.
        -12    1    3    3    0    0 -0.70091354622E+01 -0.78411661989E+01 -0.57105115288E+01  0.11967531458E+02  0.00000000000E+00 0.  1.
</event>
<event>
 7    1  0.2751796E-010  0.4778727E+02  0.7816164E-02  0.1312668E+00
        -11   -1    0    0    0    0  0.00000000000E+00  0.00000000000E+00  0.45593999997E+02  0.45594000000E+02  0.51100000000E-03 0.  1.
         11   -1    0    0    0    0 -0.00000000000E+00 -0.00000000000E+00 -0.45593999997E+02  0.45594000000E+02  0.51100000000E-03 0. -1.
    9900012    2    1    2    0    0 -0.10275199963E+01 -0.12797907561E+02  0.41458189209E+02  0.47787266277E+02  0.19999978261E+02 0.  0.
         12    1    1    2    0    0  0.10275199963E+01  0.12797907561E+02 -0.41458189209E+02  0.43400733723E+02  0.00000000000E+00 0. -1.
         11    1    3    3    0    0  0.32868649610E+01  0.27110928962E+01  0.42514248052E+01  0.60189799052E+01  0.51100000000E-03 0. -1.
        -11    1    3    3    0    0 -0.11699760343E+00 -0.11766931169E+02  0.32036689984E+02  0.34129516009E+02  0.51100000000E-03 0.  1.
         12    1    3    3    0    0 -0.41973873539E+01 -0.37420692881E+01  0.51700744190E+01  0.76387703626E+01  0.00000000000E+00 0. -1.
</event>
<event>
 7    1  0.2751796E-010  0.4778727E+02  0.7816164E-02  0.1312668E+00
        -11   -1    0    0    0    0  0.00000000000E+00  0.00000000000E+00  0.45593999997E+02  0.45594000000E+02  0.51100000000E-03 0.  1.
         11   -1    0    0    0    0 -0.00000000000E+00 -0.00000000000E+00 -0.45593999997E+02  0.45594000000E+02  0.51100000000E-03 0. -1.
    9900012    2    1    2    0    0  0.21608626420E+02 -0.19704774791E+02  0.32068869468E+02  0.47787271040E+02  0.19999999979E+02 0.  0.
         12    1    1    2    0    0 -0.21608626420E+02  0.19704774791E+02 -0.32068869468E+02  0.43400728960E+02  0.00000000000E+00 0. -1.
         11    1    3    3    0    0 -0.28199700179E+01 -0.28991724687E+01  0.72330029591E+01  0.82869634953E+01  0.51100000000E-03 0. -1.
        -11    1    3    3    0    0  0.16448740442E+02 -0.14909334457E+02  0.20524419148E+02  0.30234104877E+02  0.51100000000E-03 0.  1.
        -12    1    3    3    0    0  0.79798559960E+01 -0.18962678653E+01  0.43114473606E+01  0.92662026676E+01  0.00000000000E+00 0.  1.
</event>
<event>
 7    1  0.2751796E-010  0.4778727E+02  0.7816164E-02  0.1312668E+00
        -11   -1    0    0    0    0  0.00000000000E+00  0.00000000000E+00  0.45593999997E+02  0.45594000000E+02  0.51100000000E-03 0.  1.
         11   -1    0    0    0    0 -0.00000000000E+00 -0.00000000000E+00 -0.45593999997E+02  0.45594000000E+02  0.51100000000E-03 0. -1.
    9900012    2    1    2    0    0  0.20727111838E+02  0.24992663568E+02  0.28798905916E+02  0.47787269829E+02  0.19999994459E+02 0.  0.
         12    1    1    2    0    0 -0.20727111838E+02 -0.24992663568E+02 -0.28798905916E+02  0.43400730171E+02  0.00000000000E+00 0. -1.
         11    1    3    3    0    0  0.15313651596E+01  0.43556456483E+01  0.24823336264E+01  0.52420138077E+01  0.51100000000E-03 0. -1.
        -11    1    3    3    0    0  0.65630483426E+01  0.12523588741E+02  0.24510913759E+01  0.14349973091E+02  0.51100000000E-03 0.  1.
        -12    1    3    3    0    0  0.12632698336E+02  0.81134291787E+01  0.23865480914E+02  0.28195282931E+02  0.00000000000E+00 0.  1.
</event>
<event>
 7    1  0.2751796E-010  0.4778727E+02  0.7816164E-02  0.1312668E+00
        -11   -1    0    0    0    0  0.00000000000E+00  0.00000000000E+00  0.45593999997E+02  0.45594000000E+02  0.51100000000E-03 0.  1.
         11   -1    0    0    0    0 -0.00000000000E+00 -0.00000000000E+00 -0.45593999997E+02  0.45594000000E+02  0.51100000000E-03 0. -1.
    9900012    2    1    2    0    0 -0.11852905057E+02 -0.30077190725E+02  0.28956766183E+02  0.47787273416E+02  0.20000010813E+02 0.  0.
         12    1    1    2    0    0  0.11852905057E+02  0.30077190725E+02 -0.28956766183E+02  0.43400726584E+02  0.00000000000E+00 0. -1.
         11    1    3    3    0    0 -0.78576636255E+01 -0.73528702767E+01  0.12622328162E+02  0.16587065667E+02  0.51100000000E-03 0. -1.
        -11    1    3    3    0    0  0.93418008026E+00 -0.20360444072E+02  0.15636516807E+02  0.25688928225E+02  0.51100000000E-03 0.  1.
        -12    1    3    3    0    0 -0.49294215123E+01 -0.23638763763E+01  0.69792121444E+00  0.55112795238E+01  0.00000000000E+00 0.  1.
</event>
<event>
 7    1  0.2751796E-010  0.4778727E+02  0.7816164E-02  0.1312668E+00
        -11   -1    0    0    0    0  0.00000000000E+00  0.00000000000E+00  0.45593999997E+02  0.45594000000E+02  0.51100000000E-03 0. -1.
         11   -1    0    0    0    0 -0.00000000000E+00 -0.00000000000E+00 -0.45593999997E+02  0.45594000000E+02  0.51100000000E-03 0.  1.
    9900012    2    1    2    0    0 -0.32743250008E+02  0.57761678379E+01 -0.27895134367E+02  0.47787273539E+02  0.20000011374E+02 0.  0.
         12    1    1    2    0    0  0.32743250008E+02 -0.57761678379E+01  0.27895134367E+02  0.43400726461E+02  0.00000000000E+00 0. -1.
         11    1    3    3    0    0 -0.50039094642E+01 -0.81950564846E+00 -0.13342187975E+02  0.14273215463E+02  0.51100000000E-03 0. -1.
        -11    1    3    3    0    0 -0.12784176803E+02  0.72488483379E+01 -0.41040902901E+01  0.15258588930E+02  0.51100000000E-03 0.  1.
         12    1    3    3    0    0 -0.14955163741E+02 -0.65317485161E+00 -0.10448856102E+02  0.18255469146E+02  0.00000000000E+00 0. -1.
</event>
<event>
 7    1  0.2751796E-010  0.4778728E+02  0.7816164E-02  0.1312668E+00
        -11   -1    0    0    0    0  0.00000000000E+00  0.00000000000E+00  0.45593999997E+02  0.45594000000E+02  0.51100000000E-03 0.  1.
         11   -1    0    0    0    0 -0.00000000000E+00 -0.00000000000E+00 -0.45593999997E+02  0.45594000000E+02  0.51100000000E-03 0. -1.
    9900012    2    1    2    0    0 -0.42586051612E+02  0.48909252161E+01  0.67918914444E+01  0.47787277301E+02  0.20000028527E+02 0.  0.
         12    1    1    2    0    0  0.42586051612E+02 -0.48909252161E+01 -0.67918914444E+01  0.43400722699E+02  0.00000000000E+00 0. -1.
         11    1    3    3    0    0  0.12776900071E+01  0.10577115708E+01 -0.20965244777E+01  0.26733238989E+01  0.51100000000E-03 0. -1.
        -11    1    3    3    0    0 -0.30509299249E+02  0.31630014605E+01  0.80752478766E+01  0.31718000369E+02  0.51100000000E-03 0.  1.
         12    1    3    3    0    0 -0.13354442371E+02  0.67021218476E+00  0.81316804555E+00  0.13395953033E+02  0.00000000000E+00 0. -1.
</event>
<event>
 7    1  0.2751796E-010  0.4778727E+02  0.7816164E-02  0.1312668E+00
        -11   -1    0    0    0    0  0.00000000000E+00  0.00000000000E+00  0.45593999997E+02  0.45594000000E+02  0.51100000000E-03 0. -1.
         11   -1    0    0    0    0 -0.00000000000E+00 -0.00000000000E+00 -0.45593999997E+02  0.45594000000E+02  0.51100000000E-03 0.  1.
    9900012    2    1    2    0    0 -0.27368140650E+02  0.33150610133E+02  0.59703435952E+01  0.47787273308E+02  0.20000010319E+02 0.  0.
         12    1    1    2    0    0  0.27368140650E+02 -0.33150610133E+02 -0.59703435952E+01  0.43400726692E+02  0.00000000000E+00 0. -1.
         11    1    3    3    0    0 -0.10929741520E+01 -0.15938087146E+01 -0.19863661371E+01  0.27713659822E+01  0.51100000000E-03 0. -1.
        -11    1    3    3    0    0 -0.12757438987E+02  0.17844171449E+02 -0.65311354713E-01  0.21935609635E+02  0.51100000000E-03 0.  1.
         12    1    3    3    0    0 -0.13517727510E+02  0.16900247398E+02  0.80220210870E+01  0.23080297690E+02  0.00000000000E+00 0. -1.
</event>
<event>
 7    1  0.2751796E-010  0.4778727E+02  0.7816164E-02  0.1312668E+00
        -11   -1    0    0    0    0  0.00000000000E+00  0.00000000000E+00  0.45593999997E+02  0.45594000000E+02  0.51100000000E-03 0.  1.
         11   -1    0    0    0    0 -0.00000000000E+00 -0.00000000000E+00 -0.45593999997E+02  0.45594000000E+02  0.51100000000E-03 0. -1.
    9900012    2    1    2    0    0  0.42358602828E+02  0.53202718018E+01 -0.78145220848E+01  0.47787270963E+02  0.19999999627E+02 0.  0.
         12    1    1    2    0    0 -0.42358602828E+02 -0.53202718018E+01  0.78145220848E+01  0.43400729037E+02  0.00000000000E+00 0. -1.
         11    1    3    3    0    0  0.32582311667E+02  0.54598308888E+00 -0.71954036259E+01  0.33371828908E+02  0.51100000000E-03 0. -1.
        -11    1    3    3    0    0  0.10320580169E+02  0.20638486125E+01 -0.28036776775E+01  0.10891944496E+02  0.51100000000E-03 0.  1.
         12    1    3    3    0    0 -0.54428900854E+00  0.27104401004E+01  0.21845592186E+01  0.35234975582E+01  0.00000000000E+00 0. -1.
</event>
<event>
 7    1  0.2751796E-010  0.4778727E+02  0.7816164E-02  0.1312668E+00
        -11   -1    0    0    0    0  0.00000000000E+00  0.00000000000E+00  0.45593999997E+02  0.45594000000E+02  0.51100000000E-03 0. -1.
         11   -1    0    0    0    0 -0.00000000000E+00 -0.00000000000E+00 -0.45593999997E+02  0.45594000000E+02  0.51100000000E-03 0.  1.
    9900012    2    1    2    0    0 -0.39064926344E+02 -0.18755863710E+02  0.24025177820E+01  0.47787274367E+02  0.20000015150E+02 0.  0.
         12    1    1    2    0    0  0.39064926344E+02  0.18755863710E+02 -0.24025177820E+01  0.43400725633E+02  0.00000000000E+00 0. -1.
         11    1    3    3    0    0 -0.23388460141E+01 -0.33738891505E+01  0.39858540853E+01  0.57219194094E+01  0.51100000000E-03 0. -1.
        -11    1    3    3    0    0 -0.15298743096E+02 -0.52986876037E+01  0.58968022166E+01  0.17230783711E+02  0.51100000000E-03 0.  1.
         12    1    3    3    0    0 -0.21427337234E+02 -0.10083286955E+02 -0.74801385198E+01  0.24834571247E+02  0.00000000000E+00 0. -1.
</event>
<event>
 7    1  0.2751796E-010  0.4778727E+02  0.7816164E-02  0.1312668E+00
        -11   -1    0    0    0    0  0.00000000000E+00  0.00000000000E+00  0.45593999997E+02  0.45594000000E+02  0.51100000000E-03 0. -1.
         11   -1    0    0    0    0 -0.00000000000E+00 -0.00000000000E+00 -0.45593999997E+02  0.45594000000E+02  0.51100000000E-03 0.  1.
    9900012    2    1    2    0    0 -0.40015865999E+02  0.29384027971E+01 -0.16544477860E+02  0.47787268551E+02  0.19999988633E+02 0.  0.
         12    1    1    2    0    0  0.40015865999E+02 -0.29384027971E+01  0.16544477860E+02  0.43400731449E+02  0.00000000000E+00 0. -1.
         11    1    3    3    0    0 -0.15845195906E+02 -0.38630445243E+01 -0.27119874687E-01  0.16309325002E+02  0.51100000000E-03 0. -1.
        -11    1    3    3    0    0 -0.15575152286E+02  0.88790319841E+01 -0.11694718519E+02  0.21405350247E+02  0.51100000000E-03 0.  1.
        -12    1    3    3    0    0 -0.85955178069E+01 -0.20775846627E+01 -0.48226394665E+01  0.10072593302E+02  0.00000000000E+00 0.  1.
</event>
<event>
 7    1  0.2751796E-010  0.4778727E+02  0.7816164E-02  0.1312668E+00
        -11   -1    0    0    0    0  0.00000000000E+00  0.00000000000E+00  0.45593999997E+02  0.45594000000E+02  0.51100000000E-03 0.  1.
         11   -1    0    0    0    0 -0.00000000000E+00 -0.00000000000E+00 -0.45593999997E+02  0.45594000000E+02  0.51100000000E-03 0. -1.
    9900012    2    1    2    0    0  0.39466180477E+02  0.65806384011E+01  0.16814847113E+02  0.47787270897E+02  0.19999999328E+02 0.  0.
         12    1    1    2    0    0 -0.39466180477E+02 -0.65806384011E+01 -0.16814847113E+02  0.43400729103E+02  0.00000000000E+00 0. -1.
         11    1    3    3    0    0  0.37185086105E+01  0.49900989359E+01  0.31285984023E+01  0.69653802409E+01  0.51100000000E-03 0. -1.
        -11    1    3    3    0    0  0.12488853289E+02 -0.58407529635E+01  0.27093946617E+01  0.14050860164E+02  0.51100000000E-03 0.  1.
        -12    1    3    3    0    0  0.23258818577E+02  0.74312924287E+01  0.10976854049E+02  0.26771030492E+02  0.00000000000E+00 0.  1.
</event>
<event>
 7    1  0.2751796E-010  0.4778727E+02  0.7816164E-02  0.1312668E+00
        -11   -1    0    0    0    0  0.00000000000E+00  0.00000000000E+00  0.45593999997E+02  0.45594000000E+02  0.51100000000E-03 0.  1.
         11   -1    0    0    0    0 -0.00000000000E+00 -0.00000000000E+00 -0.45593999997E+02  0.45594000000E+02  0.51100000000E-03 0. -1.
    9900012    2    1    2    0    0  0.20317793489E+02  0.27868993828E+02  0.26346339149E+02  0.47787272635E+02  0.20000007251E+02 0.  0.
         12    1    1    2    0    0 -0.20317793489E+02 -0.27868993828E+02 -0.26346339149E+02  0.43400727365E+02  0.00000000000E+00 0. -1.
         11    1    3    3    0    0 -0.38656406306E+00  0.34999340348E+01  0.92715092337E+01  0.99176536416E+01  0.51100000000E-03 0. -1.
        -11    1    3    3    0    0  0.12446014567E+02  0.73763470626E+01  0.44122468271E+01  0.15125531294E+02  0.51100000000E-03 0.  1.
        -12    1    3    3    0    0  0.82583429849E+01  0.16992712731E+02  0.12662583088E+02  0.22744087699E+02  0.00000000000E+00 0.  1.
</event>
<event>
 7    1  0.2751796E-010  0.4778727E+02  0.7816164E-02  0.1312668E+00
        -11   -1    0    0    0    0  0.00000000000E+00  0.00000000000E+00  0.45593999997E+02  0.45594000000E+02  0.51100000000E-03 0. -1.
         11   -1    0    0    0    0 -0.00000000000E+00 -0.00000000000E+00 -0.45593999997E+02  0.45594000000E+02  0.51100000000E-03 0.  1.
    9900012    2    1    2    0    0 -0.72008870857E+01 -0.39322231095E+02 -0.16897717740E+02  0.47787268463E+02  0.19999988232E+02 0.  0.
         12    1    1    2    0    0  0.72008870857E+01  0.39322231095E+02  0.16897717740E+02  0.43400731537E+02  0.00000000000E+00 0. -1.
         11    1    3    3    0    0  0.27615008744E+01 -0.64046028761E+00  0.13586430300E+01  0.31435628836E+01  0.51100000000E-03 0. -1.
        -11    1    3    3    0    0 -0.87821636985E+01 -0.20818111812E+02 -0.77554069655E+01  0.23888627338E+02  0.51100000000E-03 0.  1.
        -12    1    3    3    0    0 -0.11802242616E+01 -0.17863658995E+02 -0.10500953805E+02  0.20755078241E+02  0.00000000000E+00 0.  1.
</event>
<event>
 7    1  0.2751796E-010  0.4778727E+02  0.7816164E-02  0.1312668E+00
        -11   -1    0    0    0    0  0.00000000000E+00  0.00000000000E+00  0.45593999997E+02  0.45594000000E+02  0.51100000000E-03 0.  1.
         11   -1    0    0    0    0 -0.00000000000E+00 -0.00000000000E+00 -0.45593999997E+02  0.45594000000E+02  0.51100000000E-03 0. -1.
    9900012    2    1    2    0    0 -0.28729555586E+02 -0.31831583600E+02  0.67071724113E+01  0.47787271430E+02  0.20000001757E+02 0.  0.
         12    1    1    2    0    0  0.28729555586E+02  0.31831583600E+02 -0.67071724113E+01  0.43400728570E+02  0.00000000000E+00 0. -1.
         11    1    3    3    0    0 -0.18808269176E+02 -0.26335213534E+02  0.58454201267E+01  0.32885610804E+02  0.51100000000E-03 0. -1.
        -11    1    3    3    0    0 -0.83594881720E+01 -0.59850254302E+01  0.42609020068E+01  0.11129099607E+02  0.51100000000E-03 0.  1.
         12    1    3    3    0    0 -0.15617982382E+01  0.48865536346E+00 -0.33991497222E+01  0.37725610180E+01  0.00000000000E+00 0. -1.
</event>
<event>
 7    1  0.2751796E-010  0.4778727E+02  0.7816164E-02  0.1312668E+00
        -11   -1    0    0    0    0  0.00000000000E+00  0.00000000000E+00  0.45593999997E+02  0.45594000000E+02  0.51100000000E-03 0. -1.
         11   -1    0    0    0    0 -0.00000000000E+00 -0.00000000000E+00 -0.45593999997E+02  0.45594000000E+02  0.51100000000E-03 0.  1.
    9900012    2    1    2    0    0 -0.38752511574E+02 -0.17395882968E+02 -0.89022203059E+01  0.47787269316E+02  0.19999992122E+02 0.  0.
         12    1    1    2    0    0  0.38752511574E+02  0.17395882968E+02  0.89022203059E+01  0.43400730684E+02  0.00000000000E+00 0. -1.
         11    1    3    3    0    0 -0.15051016722E+02 -0.15408403780E+01 -0.10021737294E+02  0.18147796343E+02  0.51100000000E-03 0. -1.
        -11    1    3    3    0    0 -0.10338680668E+02 -0.10266092181E+02  0.34394934094E+01  0.14970340070E+02  0.51100000000E-03 0.  1.
        -12    1    3    3    0    0 -0.13362814183E+02 -0.55889504090E+01 -0.23199764211E+01  0.14669132904E+02  0.00000000000E+00 0.  1.
</event>
<event>
 7    1  0.2751796E-010  0.4778727E+02  0.7816164E-02  0.1312668E+00
        -11   -1    0    0    0    0  0.00000000000E+00  0.00000000000E+00  0.45593999997E+02  0.45594000000E+02  0.51100000000E-03 0. -1.
         11   -1    0    0    0    0 -0.00000000000E+00 -0.00000000000E+00 -0.45593999997E+02  0.45594000000E+02  0.51100000000E-03 0.  1.
    9900012    2    1    2    0    0  0.39487140475E+02 -0.16936123279E+02 -0.61283773336E+01  0.47787267939E+02  0.19999985843E+02 0.  0.
         12    1    1    2    0    0 -0.39487140475E+02  0.16936123279E+02  0.61283773336E+01  0.43400732061E+02  0.00000000000E+00 0. -1.
         11    1    3    3    0    0  0.53507233846E+00  0.30741844784E+01 -0.11939114518E+01  0.33410084451E+01  0.51100000000E-03 0. -1.
        -11    1    3    3    0    0  0.20428342850E+02 -0.75692871714E+01 -0.11687996266E+01  0.21816906121E+02  0.51100000000E-03 0.  1.
         12    1    3    3    0    0  0.18523725287E+02 -0.12441020586E+02 -0.37656662552E+01  0.22629353373E+02  0.00000000000E+00 0. -1.
</event>
<event>
 7    1  0.2751796E-010  0.4778727E+02  0.7816164E-02  0.1312668E+00
        -11   -1    0    0    0    0  0.00000000000E+00  0.00000000000E+00  0.45593999997E+02  0.45594000000E+02  0.51100000000E-03 0. -1.
         11   -1    0    0    0    0 -0.00000000000E+00 -0.00000000000E+00 -0.45593999997E+02  0.45594000000E+02  0.51100000000E-03 0.  1.
    9900012    2    1    2    0    0 -0.32887448298E+02 -0.17771931008E+02 -0.22049881534E+02  0.47787273474E+02  0.20000011078E+02 0.  0.
         12    1    1    2    0    0  0.32887448298E+02  0.17771931008E+02  0.22049881534E+02  0.43400726526E+02  0.00000000000E+00 0. -1.
         11    1    3    3    0    0 -0.10987339962E+02  0.52984990156E+00 -0.27928963139E+01  0.11349125536E+02  0.51100000000E-03 0. -1.
        -11    1    3    3    0    0 -0.60425849551E+00 -0.63319956719E+01 -0.54553288256E+01  0.83797321183E+01  0.51100000000E-03 0.  1.
        -12    1    3    3    0    0 -0.21295849841E+02 -0.11969785237E+02 -0.13801656395E+02  0.28058415820E+02  0.00000000000E+00 0.  1.
</event>
<event>
 7    1  0.2751796E-010  0.4778727E+02  0.7816164E-02  0.1312668E+00
        -11   -1    0    0    0    0  0.00000000000E+00  0.00000000000E+00  0.45593999997E+02  0.45594000000E+02  0.51100000000E-03 0.  1.
         11   -1    0    0    0    0 -0.00000000000E+00 -0.00000000000E+00 -0.45593999997E+02  0.45594000000E+02  0.51100000000E-03 0. -1.
    9900012    2    1    2    0    0  0.15564049026E+02  0.22299320687E+02  0.33824905253E+02  0.47787267972E+02  0.19999985993E+02 0.  0.
         12    1    1    2    0    0 -0.15564049026E+02 -0.22299320687E+02 -0.33824905253E+02  0.43400732028E+02  0.00000000000E+00 0. -1.
         11    1    3    3    0    0  0.55776906928E+01  0.38574902868E+01  0.24604517339E+00  0.67861184240E+01  0.51100000000E-03 0. -1.
        -11    1    3    3    0    0 -0.17199343226E+01  0.79942797630E+00  0.99328546983E+00  0.21409987036E+01  0.51100000000E-03 0.  1.
         12    1    3    3    0    0  0.11706292656E+02  0.17642402424E+02  0.32585574609E+02  0.38860150845E+02  0.00000000000E+00 0. -1.
</event>
<event>
 7    1  0.2751796E-010  0.4778727E+02  0.7816164E-02  0.1312668E+00
        -11   -1    0    0    0    0  0.00000000000E+00  0.00000000000E+00  0.45593999997E+02  0.45594000000E+02  0.51100000000E-03 0. -1.
         11   -1    0    0    0    0 -0.00000000000E+00 -0.00000000000E+00 -0.45593999997E+02  0.45594000000E+02  0.51100000000E-03 0.  1.
    9900012    2    1    2    0    0 -0.31500340576E+02  0.27178150323E+02 -0.12357181194E+02  0.47787271453E+02  0.20000001862E+02 0.  0.
         12    1    1    2    0    0  0.31500340576E+02 -0.27178150323E+02  0.12357181194E+02  0.43400728547E+02  0.00000000000E+00 0. -1.
         11    1    3    3    0    0 -0.17586510874E+02  0.13465212315E+02  0.42657829663E+00  0.22153538695E+02  0.51100000000E-03 0. -1.
        -11    1    3    3    0    0 -0.79776790022E+01  0.20481421665E+01 -0.85640232058E+01  0.11881950275E+02  0.51100000000E-03 0.  1.
        -12    1    3    3    0    0 -0.59361506995E+01  0.11664795842E+02 -0.42197362848E+01  0.13751782483E+02  0.00000000000E+00 0.  1.
</event>
<event>
 7    1  0.2751796E-010  0.4778727E+02  0.7816164E-02  0.1312668E+00
        -11   -1    0    0    0    0  0.00000000000E+00  0.00000000000E+00  0.45593999997E+02  0.45594000000E+02  0.51100000000E-03 0.  1.
         11   -1    0    0    0    0 -0.00000000000E+00 -0.00000000000E+00 -0.45593999997E+02  0.45594000000E+02  0.51100000000E-03 0. -1.
    9900012    2    1    2    0    0  0.32784677333E+02 -0.27076840122E+02  0.86967228859E+01  0.47787270423E+02  0.19999997168E+02 0.  0.
         12    1    1    2    0    0 -0.32784677333E+02  0.27076840122E+02 -0.86967228859E+01  0.43400729577E+02  0.00000000000E+00 0. -1.
         11    1    3    3    0    0  0.17522830398E+02 -0.82704110315E+01  0.69382306973E+01  0.20581261605E+02  0.51100000000E-03 0.  1.
        -11    1    3    3    0    0 -0.20934106741E+01 -0.11922992483E+01 -0.75515548656E-01  0.24103212664E+01  0.51100000000E-03 0. -1.
        -12    1    3    3    0    0  0.17355257609E+02 -0.17614129843E+02  0.18340077373E+01  0.24795687552E+02  0.00000000000E+00 0.  1.
</event>
<event>
 7    1  0.2751796E-010  0.4778727E+02  0.7816164E-02  0.1312668E+00
        -11   -1    0    0    0    0  0.00000000000E+00  0.00000000000E+00  0.45593999997E+02  0.45594000000E+02  0.51100000000E-03 0.  1.
         11   -1    0    0    0    0 -0.00000000000E+00 -0.00000000000E+00 -0.45593999997E+02  0.45594000000E+02  0.51100000000E-03 0. -1.
    9900012    2    1    2    0    0 -0.68038433699E+01  0.71279125749E+01  0.42267288292E+02  0.47787273257E+02  0.20000010087E+02 0.  0.
         12    1    1    2    0    0  0.68038433699E+01 -0.71279125749E+01 -0.42267288292E+02  0.43400726743E+02  0.00000000000E+00 0. -1.
         11    1    3    3    0    0  0.20238919924E+00  0.10979415169E+02  0.24386991794E+02  0.26745352640E+02  0.51100000000E-03 0. -1.
        -11    1    3    3    0    0 -0.76169452093E+01 -0.53653129581E+01  0.13834831458E+02  0.16679538339E+02  0.51100000000E-03 0.  1.
        -12    1    3    3    0    0  0.61071264021E+00  0.15138103643E+01  0.40454650400E+01  0.43623822778E+01  0.00000000000E+00 0.  1.
</event>
<event>
 7    1  0.2751796E-010  0.4778728E+02  0.7816164E-02  0.1312668E+00
        -11   -1    0    0    0    0  0.00000000000E+00  0.00000000000E+00  0.45593999997E+02  0.45594000000E+02  0.51100000000E-03 0.  1.
         11   -1    0    0    0    0 -0.00000000000E+00 -0.00000000000E+00 -0.45593999997E+02  0.45594000000E+02  0.51100000000E-03 0. -1.
    9900012    2    1    2    0    0 -0.28766842187E+02  0.17709261982E+02  0.27248368198E+02  0.47787277208E+02  0.20000028104E+02 0.  0.
         12    1    1    2    0    0  0.28766842187E+02 -0.17709261982E+02 -0.27248368198E+02  0.43400722792E+02  0.00000000000E+00 0. -1.
         11    1    3    3    0    0 -0.83383522461E+01  0.31745562979E+00  0.74654469544E+01  0.11196508150E+02  0.51100000000E-03 0. -1.
        -11    1    3    3    0    0 -0.16137851017E+02  0.12701734478E+02  0.59725906857E+01  0.21387756637E+02  0.51100000000E-03 0.  1.
        -12    1    3    3    0    0 -0.42906389240E+01  0.46900718736E+01  0.13810330558E+02  0.15203012421E+02  0.00000000000E+00 0.  1.
</event>
<event>
 7    1  0.2751796E-010  0.4778728E+02  0.7816164E-02  0.1312668E+00
        -11   -1    0    0    0    0  0.00000000000E+00  0.00000000000E+00  0.45593999997E+02  0.45594000000E+02  0.51100000000E-03 0. -1.
         11   -1    0    0    0    0 -0.00000000000E+00 -0.00000000000E+00 -0.45593999997E+02  0.45594000000E+02  0.51100000000E-03 0.  1.
    9900012    2    1    2    0    0 -0.36812442808E+02 -0.19334678952E+02 -0.12435307761E+02  0.47787278407E+02  0.20000033569E+02 0.  0.
         12    1    1    2    0    0  0.36812442808E+02  0.19334678952E+02  0.12435307761E+02  0.43400721593E+02  0.00000000000E+00 0. -1.
         11    1    3    3    0    0  0.16727506933E+01 -0.12386368966E+01  0.12986384795E+01  0.24533198742E+01  0.51100000000E-03 0. -1.
        -11    1    3    3    0    0 -0.30601447440E+02 -0.12275198213E+02 -0.13212217891E+02  0.35520300935E+02  0.51100000000E-03 0.  1.
         12    1    3    3    0    0 -0.78837460611E+01 -0.58208438420E+01 -0.52172834913E+00  0.98136575985E+01  0.00000000000E+00 0. -1.
</event>
<event>
 7    1  0.2751796E-010  0.4778727E+02  0.7816164E-02  0.1312668E+00
        -11   -1    0    0    0    0  0.00000000000E+00  0.00000000000E+00  0.45593999997E+02  0.45594000000E+02  0.51100000000E-03 0.  1.
         11   -1    0    0    0    0 -0.00000000000E+00 -0.00000000000E+00 -0.45593999997E+02  0.45594000000E+02  0.51100000000E-03 0. -1.
    9900012    2    1    2    0    0 -0.32006016310E+02  0.15178789610E+02  0.25076732146E+02  0.47787271559E+02  0.20000002347E+02 0.  0.
         12    1    1    2    0    0  0.32006016310E+02 -0.15178789610E+02 -0.25076732146E+02  0.43400728441E+02  0.00000000000E+00 0. -1.
         11    1    3    3    0    0 -0.50437590430E+01 -0.38219001780E+01  0.74603087958E+01  0.97827722985E+01  0.51100000000E-03 0. -1.
        -11    1    3    3    0    0 -0.24256432059E+02  0.18392031283E+02  0.17731817024E+02  0.35228662282E+02  0.51100000000E-03 0.  1.
         12    1    3    3    0    0 -0.27058252079E+01  0.60865850570E+00 -0.11539367401E+00  0.27758369787E+01  0.00000000000E+00 0. -1.
</event>
<event>
 7    1  0.2751796E-010  0.4778727E+02  0.7816164E-02  0.1312668E+00
        -11   -1    0    0    0    0  0.00000000000E+00  0.00000000000E+00  0.45593999997E+02  0.45594000000E+02  0.51100000000E-03 0.  1.
         11   -1    0    0    0    0 -0.00000000000E+00 -0.00000000000E+00 -0.45593999997E+02  0.45594000000E+02  0.51100000000E-03 0. -1.
    9900012    2    1    2    0    0 -0.25142053136E+02 -0.34479821336E+01  0.35208122082E+02  0.47787271006E+02  0.19999999823E+02 0.  0.
         12    1    1    2    0    0  0.25142053136E+02  0.34479821336E+01 -0.35208122082E+02  0.43400728994E+02  0.00000000000E+00 0. -1.
         11    1    3    3    0    0 -0.92813943413E+01 -0.77318213852E+01  0.10822291030E+02  0.16218733806E+02  0.51100000000E-03 0. -1.
        -11    1    3    3    0    0 -0.73173666290E+01  0.77456654923E+01  0.10989638767E+02  0.15307231912E+02  0.51100000000E-03 0.  1.
        -12    1    3    3    0    0 -0.85432921660E+01 -0.34618262408E+01  0.13396192284E+02  0.16261305288E+02  0.00000000000E+00 0.  1.
</event>
<event>
 7    1  0.2751796E-010  0.4778727E+02  0.7816164E-02  0.1312668E+00
        -11   -1    0    0    0    0  0.00000000000E+00  0.00000000000E+00  0.45593999997E+02  0.45594000000E+02  0.51100000000E-03 0.  1.
         11   -1    0    0    0    0 -0.00000000000E+00 -0.00000000000E+00 -0.45593999997E+02  0.45594000000E+02  0.51100000000E-03 0. -1.
    9900012    2    1    2    0    0  0.20946089653E+02  0.34003133896E+02  0.16990339196E+02  0.47787269448E+02  0.19999992719E+02 0.  0.
         12    1    1    2    0    0 -0.20946089653E+02 -0.34003133896E+02 -0.16990339196E+02  0.43400730552E+02  0.00000000000E+00 0. -1.
         11    1    3    3    0    0 -0.30828771073E+01  0.30077907967E+01  0.23892557405E+00  0.43137017081E+01  0.51100000000E-03 0. -1.
        -11    1    3    3    0    0  0.20420777630E+02  0.22250324363E+02  0.98603182635E+01  0.31769654858E+02  0.51100000000E-03 0.  1.
        -12    1    3    3    0    0  0.36081891296E+01  0.87450187363E+01  0.68910953586E+01  0.11703912881E+02  0.00000000000E+00 0.  1.
</event>
<event>
 7    1  0.2751796E-010  0.4778727E+02  0.7816164E-02  0.1312668E+00
        -11   -1    0    0    0    0  0.00000000000E+00  0.00000000000E+00  0.45593999997E+02  0.45594000000E+02  0.51100000000E-03 0.  1.
         11   -1    0    0    0    0 -0.00000000000E+00 -0.00000000000E+00 -0.45593999997E+02  0.45594000000E+02  0.51100000000E-03 0. -1.
    9900012    2    1    2    0    0  0.21100096278E+02  0.15093082477E+02  0.34793799786E+02  0.47787266076E+02  0.19999977346E+02 0.  0.
         12    1    1    2    0    0 -0.21100096278E+02 -0.15093082477E+02 -0.34793799786E+02  0.43400733924E+02  0.00000000000E+00 0. -1.
         11    1    3    3    0    0  0.62268409286E+01  0.14185038520E+01  0.94774703773E+01  0.11428392107E+02  0.51100000000E-03 0. -1.
        -11    1    3    3    0    0  0.13524475102E+02  0.16256446320E+02  0.25849740358E+02  0.33397493178E+02  0.51100000000E-03 0.  1.
        -12    1    3    3    0    0  0.13487802478E+01 -0.25818676947E+01 -0.53341094925E+00  0.29613807913E+01  0.00000000000E+00 0.  1.
</event>
<event>
 7    1  0.2751796E-010  0.4778728E+02  0.7816164E-02  0.1312668E+00
        -11   -1    0    0    0    0  0.00000000000E+00  0.00000000000E+00  0.45593999997E+02  0.45594000000E+02  0.51100000000E-03 0.  1.
         11   -1    0    0    0    0 -0.00000000000E+00 -0.00000000000E+00 -0.45593999997E+02  0.45594000000E+02  0.51100000000E-03 0. -1.
    9900012    2    1    2    0    0 -0.31329698176E+02  0.17900843673E+02 -0.24117062196E+02  0.47787275570E+02  0.20000020636E+02 0.  0.
         12    1    1    2    0    0  0.31329698176E+02 -0.17900843673E+02  0.24117062196E+02  0.43400724430E+02  0.00000000000E+00 0. -1.
         11    1    3    3    0    0 -0.10600947398E+01  0.85994395618E+01 -0.41081287730E+01  0.95891023517E+01  0.51100000000E-03 0. -1.
        -11    1    3    3    0    0 -0.25477763600E+02  0.98554501347E+01 -0.14686810130E+02  0.31015298281E+02  0.51100000000E-03 0.  1.
         12    1    3    3    0    0 -0.47918398362E+01 -0.55404602389E+00 -0.53221232937E+01  0.71828749373E+01  0.00000000000E+00 0. -1.
</event>
<event>
 7    1  0.2751796E-010  0.4778727E+02  0.7816164E-02  0.1312668E+00
        -11   -1    0    0    0    0  0.00000000000E+00  0.00000000000E+00  0.45593999997E+02  0.45594000000E+02  0.51100000000E-03 0.  1.
         11   -1    0    0    0    0 -0.00000000000E+00 -0.00000000000E+00 -0.45593999997E+02  0.45594000000E+02  0.51100000000E-03 0. -1.
    9900012    2    1    2    0    0  0.82867274231E+00 -0.27036352026E+02  0.33940720720E+02  0.47787267836E+02  0.19999985370E+02 0.  0.
         12    1    1    2    0    0 -0.82867274231E+00  0.27036352026E+02 -0.33940720720E+02  0.43400732164E+02  0.00000000000E+00 0. -1.
         11    1    3    3    0    0  0.17914873137E+01 -0.33451304684E+00  0.84987795508E+01  0.86919836566E+01  0.51100000000E-03 0. -1.
        -11    1    3    3    0    0 -0.48471394449E+01 -0.12781893125E+02  0.61477359943E+01  0.14988869563E+02  0.51100000000E-03 0.  1.
        -12    1    3    3    0    0  0.38843248735E+01 -0.13919945854E+02  0.19294205175E+02  0.24106414616E+02  0.00000000000E+00 0.  1.
</event>
<event>
 7    1  0.2751796E-010  0.4778727E+02  0.7816164E-02  0.1312668E+00
        -11   -1    0    0    0    0  0.00000000000E+00  0.00000000000E+00  0.45593999997E+02  0.45594000000E+02  0.51100000000E-03 0. -1.
         11   -1    0    0    0    0 -0.00000000000E+00 -0.00000000000E+00 -0.45593999997E+02  0.45594000000E+02  0.51100000000E-03 0.  1.
    9900012    2    1    2    0    0  0.16524604733E+02 -0.98066536745E+00 -0.40119810480E+02  0.47787268911E+02  0.19999990272E+02 0.  0.
         12    1    1    2    0    0 -0.16524604733E+02  0.98066536745E+00  0.40119810480E+02  0.43400731089E+02  0.00000000000E+00 0. -1.
         11    1    3    3    0    0  0.15260453545E+02 -0.55853538515E+01 -0.20206647422E+02  0.25930411110E+02  0.51100000000E-03 0.  1.
        -11    1    3    3    0    0  0.30217721253E+01  0.53102607993E+01 -0.96584980618E+01  0.11428760283E+02  0.51100000000E-03 0. -1.
         12    1    3    3    0    0 -0.17576209376E+01 -0.70557231524E+00 -0.10254664996E+02  0.10428097517E+02  0.00000000000E+00 0. -1.
</event>
<event>
 7    1  0.2751796E-010  0.4778727E+02  0.7816164E-02  0.1312668E+00
        -11   -1    0    0    0    0  0.00000000000E+00  0.00000000000E+00  0.45593999997E+02  0.45594000000E+02  0.51100000000E-03 0.  1.
         11   -1    0    0    0    0 -0.00000000000E+00 -0.00000000000E+00 -0.45593999997E+02  0.45594000000E+02  0.51100000000E-03 0. -1.
    9900012    2    1    2    0    0  0.32999437193E+02  0.79959510973E+01  0.27031924469E+02  0.47787273860E+02  0.20000012836E+02 0.  0.
         12    1    1    2    0    0 -0.32999437193E+02 -0.79959510973E+01 -0.27031924469E+02  0.43400726140E+02  0.00000000000E+00 0. -1.
         11    1    3    3    0    0  0.15782976881E+02  0.26244531868E+01  0.15907129691E+02  0.22561624255E+02  0.51100000000E-03 0. -1.
        -11    1    3    3    0    0  0.15477840462E+02  0.19963092790E+01  0.13594129554E+02  0.20696597660E+02  0.51100000000E-03 0.  1.
         12    1    3    3    0    0  0.17386198498E+01  0.33751886315E+01 -0.24693347761E+01  0.45290519446E+01  0.00000000000E+00 0. -1.
</event>
<event>
 7    1  0.2751796E-010  0.4778727E+02  0.7816164E-02  0.1312668E+00
        -11   -1    0    0    0    0  0.00000000000E+00  0.00000000000E+00  0.45593999997E+02  0.45594000000E+02  0.51100000000E-03 0.  1.
         11   -1    0    0    0    0 -0.00000000000E+00 -0.00000000000E+00 -0.45593999997E+02  0.45594000000E+02  0.51100000000E-03 0. -1.
    9900012    2    1    2    0    0  0.24013852272E+02  0.29738335576E+01  0.36029354970E+02  0.47787271820E+02  0.20000003535E+02 0.  0.
         12    1    1    2    0    0 -0.24013852272E+02 -0.29738335576E+01 -0.36029354970E+02  0.43400728180E+02  0.00000000000E+00 0. -1.
         11    1    3    3    0    0  0.21519916047E+02  0.20721828653E+01  0.26570157477E+02  0.34254547101E+02  0.51100000000E-03 0. -1.
        -11    1    3    3    0    0 -0.27372808715E+01  0.14913283203E+01  0.52237489112E+00  0.31606395740E+01  0.51100000000E-03 0.  1.
        -12    1    3    3    0    0  0.52312170965E+01 -0.58967762806E+00  0.89368226026E+01  0.10372085145E+02  0.00000000000E+00 0.  1.
</event>
<event>
 7    1  0.2751796E-010  0.4778727E+02  0.7816164E-02  0.1312668E+00
        -11   -1    0    0    0    0  0.00000000000E+00  0.00000000000E+00  0.45593999997E+02  0.45594000000E+02  0.51100000000E-03 0.  1.
         11   -1    0    0    0    0 -0.00000000000E+00 -0.00000000000E+00 -0.45593999997E+02  0.45594000000E+02  0.51100000000E-03 0. -1.
    9900012    2    1    2    0    0  0.33695782244E+02  0.26128565830E+02 -0.80941609192E+01  0.47787272651E+02  0.20000007327E+02 0.  0.
         12    1    1    2    0    0 -0.33695782244E+02 -0.26128565830E+02  0.80941609192E+01  0.43400727349E+02  0.00000000000E+00 0. -1.
         11    1    3    3    0    0  0.59054508495E+00  0.24581532097E+01 -0.52741612789E+00  0.25825237139E+01  0.51100000000E-03 0. -1.
        -11    1    3    3    0    0 -0.12726485406E+01  0.54528439025E+01 -0.17453987967E+01  0.58651136522E+01  0.51100000000E-03 0.  1.
        -12    1    3    3    0    0  0.34377885700E+02  0.18217568718E+02 -0.58213459946E+01  0.39339635285E+02  0.00000000000E+00 0.  1.
</event>
<event>
 7    1  0.2751796E-010  0.4778727E+02  0.7816164E-02  0.1312668E+00
        -11   -1    0    0    0    0  0.00000000000E+00  0.00000000000E+00  0.45593999997E+02  0.45594000000E+02  0.51100000000E-03 0.  1.
         11   -1    0    0    0    0 -0.00000000000E+00 -0.00000000000E+00 -0.45593999997E+02  0.45594000000E+02  0.51100000000E-03 0. -1.
    9900012    2    1    2    0    0 -0.19966496022E+02 -0.32267578524E+01  0.38399876298E+02  0.47787269254E+02  0.19999991835E+02 0.  0.
         12    1    1    2    0    0  0.19966496022E+02  0.32267578524E+01 -0.38399876298E+02  0.43400730746E+02  0.00000000000E+00 0. -1.
         11    1    3    3    0    0 -0.29428400256E+01  0.21191945412E+01 -0.15638796233E+01  0.39493053385E+01  0.51100000000E-03 0. -1.
        -11    1    3    3    0    0 -0.12050383570E+02 -0.44548283910E+01  0.26306392726E+02  0.29275989115E+02  0.51100000000E-03 0.  1.
         12    1    3    3    0    0 -0.49732724261E+01 -0.89112400255E+00  0.13657363196E+02  0.14561974800E+02  0.00000000000E+00 0. -1.
</event>
<event>
 7    1  0.2751796E-010  0.4778727E+02  0.7816164E-02  0.1312668E+00
        -11   -1    0    0    0    0  0.00000000000E+00  0.00000000000E+00  0.45593999997E+02  0.45594000000E+02  0.51100000000E-03 0. -1.
         11   -1    0    0    0    0 -0.00000000000E+00 -0.00000000000E+00 -0.45593999997E+02  0.45594000000E+02  0.51100000000E-03 0.  1.
    9900012    2    1    2    0    0  0.17442353954E+02 -0.15538588932E+02 -0.36577859866E+02  0.47787270860E+02  0.19999999160E+02 0.  0.
         12    1    1    2    0    0 -0.17442353954E+02  0.15538588932E+02  0.36577859866E+02  0.43400729140E+02  0.00000000000E+00 0. -1.
         11    1    3    3    0    0  0.68988767827E+00  0.22593491253E+01 -0.61314322935E+01  0.65707736006E+01  0.51100000000E-03 0. -1.
        -11    1    3    3    0    0  0.43181647000E+01 -0.14184826618E+02 -0.15846884256E+02  0.21702064267E+02  0.51100000000E-03 0.  1.
        -12    1    3    3    0    0  0.12434301576E+02 -0.36131114388E+01 -0.14599543317E+02  0.19514432993E+02  0.00000000000E+00 0.  1.
</event>
<event>
 7    1  0.2751796E-010  0.4778727E+02  0.7816164E-02  0.1312668E+00
        -11   -1    0    0    0    0  0.00000000000E+00  0.00000000000E+00  0.45593999997E+02  0.45594000000E+02  0.51100000000E-03 0.  1.
         11   -1    0    0    0    0 -0.00000000000E+00 -0.00000000000E+00 -0.45593999997E+02  0.45594000000E+02  0.51100000000E-03 0. -1.
    9900012    2    1    2    0    0  0.42513856718E+02  0.16755358917E+01 -0.85666986097E+01  0.47787265460E+02  0.19999974536E+02 0.  0.
         12    1    1    2    0    0 -0.42513856718E+02 -0.16755358917E+01  0.85666986097E+01  0.43400734540E+02  0.00000000000E+00 0. -1.
         11    1    3    3    0    0  0.52108222632E+01  0.49278827365E+01 -0.63912746489E+01  0.96065128336E+01  0.51100000000E-03 0. -1.
        -11    1    3    3    0    0  0.30258363677E+02 -0.27035121860E+01 -0.45685060042E+01  0.30720494754E+02  0.51100000000E-03 0.  1.
        -12    1    3    3    0    0  0.70446707776E+01 -0.54883465882E+00  0.23930820434E+01  0.74602578718E+01  0.00000000000E+00 0.  1.
</event>
<event>
 7    1  0.2751796E-010  0.4778727E+02  0.7816164E-02  0.1312668E+00
        -11   -1    0    0    0    0  0.00000000000E+00  0.00000000000E+00  0.45593999997E+02  0.45594000000E+02  0.51100000000E-03 0.  1.
         11   -1    0    0    0    0 -0.00000000000E+00 -0.00000000000E+00 -0.45593999997E+02  0.45594000000E+02  0.51100000000E-03 0. -1.
    9900012    2    1    2    0    0  0.23140219829E+02 -0.11531134477E+02  0.34859523766E+02  0.47787271512E+02  0.20000002133E+02 0.  0.
         12    1    1    2    0    0 -0.23140219829E+02  0.11531134477E+02 -0.34859523766E+02  0.43400728488E+02  0.00000000000E+00 0. -1.
         11    1    3    3    0    0  0.13810736520E+02 -0.75604217704E+01  0.81316546468E+01  0.17720615907E+02  0.51100000000E-03 0. -1.
        -11    1    3    3    0    0  0.45631081639E+01 -0.40921874959E+01  0.52635750487E+01  0.80791817142E+01  0.51100000000E-03 0.  1.
         12    1    3    3    0    0  0.47663751452E+01  0.12147478948E+00  0.21464294071E+02  0.21987473891E+02  0.00000000000E+00 0. -1.
</event>
<event>
 7    1  0.2751796E-010  0.4778727E+02  0.7816164E-02  0.1312668E+00
        -11   -1    0    0    0    0  0.00000000000E+00  0.00000000000E+00  0.45593999997E+02  0.45594000000E+02  0.51100000000E-03 0.  1.
         11   -1    0    0    0    0 -0.00000000000E+00 -0.00000000000E+00 -0.45593999997E+02  0.45594000000E+02  0.51100000000E-03 0. -1.
    9900012    2    1    2    0    0  0.28095926231E+02 -0.46549033611E+01  0.32750176688E+02  0.47787271098E+02  0.20000000244E+02 0.  0.
         12    1    1    2    0    0 -0.28095926231E+02  0.46549033611E+01 -0.32750176688E+02  0.43400728902E+02  0.00000000000E+00 0. -1.
         11    1    3    3    0    0  0.12220634435E+02  0.73198283830E+01  0.17731706024E+02  0.22745047644E+02  0.51100000000E-03 0. -1.
        -11    1    3    3    0    0  0.11367326864E+02 -0.98077753157E+01  0.10730717375E+02  0.18454183057E+02  0.51100000000E-03 0.  1.
         12    1    3    3    0    0  0.45079649324E+01 -0.21669564285E+01  0.42877532899E+01  0.65880403968E+01  0.00000000000E+00 0. -1.
</event>
<event>
 7    1  0.2751796E-010  0.4778727E+02  0.7816164E-02  0.1312668E+00
        -11   -1    0    0    0    0  0.00000000000E+00  0.00000000000E+00  0.45593999997E+02  0.45594000000E+02  0.51100000000E-03 0. -1.
         11   -1    0    0    0    0 -0.00000000000E+00 -0.00000000000E+00 -0.45593999997E+02  0.45594000000E+02  0.51100000000E-03 0.  1.
    9900012    2    1    2    0    0 -0.34515909068E+02  0.18765425229E+00 -0.26310460693E+02  0.47787268038E+02  0.19999986294E+02 0.  0.
         12    1    1    2    0    0  0.34515909068E+02 -0.18765425229E+00  0.26310460693E+02  0.43400731962E+02  0.00000000000E+00 0. -1.
         11    1    3    3    0    0 -0.10472538070E+02  0.25174433378E+00  0.96565397588E+00  0.10519977030E+02  0.51100000000E-03 0. -1.
        -11    1    3    3    0    0 -0.19911549580E+02 -0.27454277003E+01 -0.19132564353E+02  0.27749994575E+02  0.51100000000E-03 0.  1.
         12    1    3    3    0    0 -0.41318214178E+01  0.26813376188E+01 -0.81435503157E+01  0.95172964333E+01  0.00000000000E+00 0. -1.
</event>
<event>
 7    1  0.2751796E-010  0.4778726E+02  0.7816164E-02  0.1312668E+00
        -11   -1    0    0    0    0  0.00000000000E+00  0.00000000000E+00  0.45593999997E+02  0.45594000000E+02  0.51100000000E-03 0.  1.
         11   -1    0    0    0    0 -0.00000000000E+00 -0.00000000000E+00 -0.45593999997E+02  0.45594000000E+02  0.51100000000E-03 0. -1.
    9900012    2    1    2    0    0  0.30237725066E+01  0.57197616410E+00  0.43291500084E+02  0.47787258804E+02  0.19999944189E+02 0.  0.
         12    1    1    2    0    0 -0.30237725066E+01 -0.57197616410E+00 -0.43291500084E+02  0.43400741196E+02  0.00000000000E+00 0. -1.
         11    1    3    3    0    0  0.46209192409E+01 -0.46190992971E+01  0.14889101278E+02  0.16259591325E+02  0.51100000000E-03 0. -1.
        -11    1    3    3    0    0  0.30678094957E+01  0.74392492955E+01  0.21041474007E+02  0.22527705472E+02  0.51100000000E-03 0.  1.
        -12    1    3    3    0    0 -0.46649562301E+01 -0.22481738343E+01  0.73609247993E+01  0.89999620065E+01  0.00000000000E+00 0.  1.
</event>
<event>
 7    1  0.2751796E-010  0.4778727E+02  0.7816164E-02  0.1312668E+00
        -11   -1    0    0    0    0  0.00000000000E+00  0.00000000000E+00  0.45593999997E+02  0.45594000000E+02  0.51100000000E-03 0.  1.
         11   -1    0    0    0    0 -0.00000000000E+00 -0.00000000000E+00 -0.45593999997E+02  0.45594000000E+02  0.51100000000E-03 0. -1.
    9900012    2    1    2    0    0 -0.30822266380E+02 -0.17004717359E+02  0.25386038309E+02  0.47787268920E+02  0.19999990313E+02 0.  0.
         12    1    1    2    0    0  0.30822266380E+02  0.17004717359E+02 -0.25386038309E+02  0.43400731080E+02  0.00000000000E+00 0. -1.
         11    1    3    3    0    0 -0.11378144747E+02 -0.18646924204E+01 -0.89841272066E+00  0.11564877923E+02  0.51100000000E-03 0. -1.
        -11    1    3    3    0    0 -0.10377059266E+02 -0.79637210341E+01  0.16633746342E+02  0.21160948215E+02  0.51100000000E-03 0.  1.
        -12    1    3    3    0    0 -0.90670623678E+01 -0.71763039043E+01  0.96507046872E+01  0.15061442782E+02  0.00000000000E+00 0.  1.
</event>
<event>
 7    1  0.2751796E-010  0.4778727E+02  0.7816164E-02  0.1312668E+00
        -11   -1    0    0    0    0  0.00000000000E+00  0.00000000000E+00  0.45593999997E+02  0.45594000000E+02  0.51100000000E-03 0. -1.
         11   -1    0    0    0    0 -0.00000000000E+00 -0.00000000000E+00 -0.45593999997E+02  0.45594000000E+02  0.51100000000E-03 0.  1.
    9900012    2    1    2    0    0  0.22744058717E+02  0.23883295013E+02 -0.28212039545E+02  0.47787272323E+02  0.20000005831E+02 0.  0.
         12    1    1    2    0    0 -0.22744058717E+02 -0.23883295013E+02  0.28212039545E+02  0.43400727677E+02  0.00000000000E+00 0. -1.
         11    1    3    3    0    0  0.13293782401E+02  0.16492000291E+02 -0.75865007707E+01  0.22500349293E+02  0.51100000000E-03 0. -1.
        -11    1    3    3    0    0  0.81185018717E+01  0.87586212132E+01 -0.19970455286E+02  0.23268919244E+02  0.51100000000E-03 0.  1.
         12    1    3    3    0    0  0.13317744442E+01 -0.13673264911E+01 -0.65508348803E+00  0.20180037859E+01  0.00000000000E+00 0. -1.
</event>
<event>
 7    1  0.2751796E-010  0.4778727E+02  0.7816164E-02  0.1312668E+00
        -11   -1    0    0    0    0  0.00000000000E+00  0.00000000000E+00  0.45593999997E+02  0.45594000000E+02  0.51100000000E-03 0.  1.
         11   -1    0    0    0    0 -0.00000000000E+00 -0.00000000000E+00 -0.45593999997E+02  0.45594000000E+02  0.51100000000E-03 0. -1.
    9900012    2    1    2    0    0 -0.13315986978E+02 -0.12253765671E+02  0.39448103648E+02  0.47787272313E+02  0.20000005783E+02 0.  0.
         12    1    1    2    0    0  0.13315986978E+02  0.12253765671E+02 -0.39448103648E+02  0.43400727687E+02  0.00000000000E+00 0. -1.
         11    1    3    3    0    0 -0.13837089302E+02 -0.74485231385E+01  0.15540104226E+02  0.22100687249E+02  0.51100000000E-03 0. -1.
        -11    1    3    3    0    0  0.38805860006E+01 -0.41740478565E+01  0.11782895267E+02  0.13088859551E+02  0.51100000000E-03 0.  1.
         12    1    3    3    0    0 -0.33594836773E+01 -0.63119467581E+00  0.12125104156E+02  0.12597725513E+02  0.00000000000E+00 0. -1.
</event>
<event>
 7    1  0.2751796E-010  0.4778727E+02  0.7816164E-02  0.1312668E+00
        -11   -1    0    0    0    0  0.00000000000E+00  0.00000000000E+00  0.45593999997E+02  0.45594000000E+02  0.51100000000E-03 0.  1.
         11   -1    0    0    0    0 -0.00000000000E+00 -0.00000000000E+00 -0.45593999997E+02  0.45594000000E+02  0.51100000000E-03 0. -1.
    9900012    2    1    2    0    0  0.26033095691E+02  0.13639531802E+02  0.31935313621E+02  0.47787272413E+02  0.20000006238E+02 0.  0.
         12    1    1    2    0    0 -0.26033095691E+02 -0.13639531802E+02 -0.31935313621E+02  0.43400727587E+02  0.00000000000E+00 0. -1.
         11    1    3    3    0    0  0.18163448014E+02  0.16250510603E+01  0.14246015264E+02  0.23140885589E+02  0.51100000000E-03 0. -1.
        -11    1    3    3    0    0  0.92079833270E+01  0.11163880139E+02  0.17931182476E+02  0.23042275972E+02  0.51100000000E-03 0.  1.
        -12    1    3    3    0    0 -0.13383356499E+01  0.85060060279E+00 -0.24188411887E+00  0.16041108516E+01  0.00000000000E+00 0.  1.
</event>
<event>
 7    1  0.2751796E-010  0.4778727E+02  0.7816164E-02  0.1312668E+00
        -11   -1    0    0    0    0  0.00000000000E+00  0.00000000000E+00  0.45593999997E+02  0.45594000000E+02  0.51100000000E-03 0. -1.
         11   -1    0    0    0    0 -0.00000000000E+00 -0.00000000000E+00 -0.45593999997E+02  0.45594000000E+02  0.51100000000E-03 0.  1.
    9900012    2    1    2    0    0 -0.35450596856E+02 -0.22518568825E+02 -0.10944978503E+02  0.47787270584E+02  0.19999997903E+02 0.  0.
         12    1    1    2    0    0  0.35450596856E+02  0.22518568825E+02  0.10944978503E+02  0.43400729416E+02  0.00000000000E+00 0. -1.
         11    1    3    3    0    0 -0.13445459019E+02 -0.39793219680E+01  0.14035341880E+01  0.14092028954E+02  0.51100000000E-03 0. -1.
        -11    1    3    3    0    0 -0.19466921222E+02 -0.19389143261E+02 -0.13694477139E+02  0.30699162898E+02  0.51100000000E-03 0.  1.
        -12    1    3    3    0    0 -0.25382166144E+01  0.84989640330E+00  0.13459644481E+01  0.29960787329E+01  0.00000000000E+00 0.  1.
</event>
<event>
 7    1  0.2751796E-010  0.4778727E+02  0.7816164E-02  0.1312668E+00
        -11   -1    0    0    0    0  0.00000000000E+00  0.00000000000E+00  0.45593999997E+02  0.45594000000E+02  0.51100000000E-03 0.  1.
         11   -1    0    0    0    0 -0.00000000000E+00 -0.00000000000E+00 -0.45593999997E+02  0.45594000000E+02  0.51100000000E-03 0. -1.
    9900012    2    1    2    0    0 -0.42274155000E+02 -0.28178206427E+00  0.98203636735E+01  0.47787272762E+02  0.20000007832E+02 0.  0.
         12    1    1    2    0    0  0.42274155000E+02  0.28178206427E+00 -0.98203636735E+01  0.43400727238E+02  0.00000000000E+00 0. -1.
         11    1    3    3    0    0 -0.62897421756E+01  0.17036216667E+01 -0.27191483097E+01  0.70609454898E+01  0.51100000000E-03 0. -1.
        -11    1    3    3    0    0 -0.30990885028E+02 -0.51463580774E+00  0.15587578336E+02  0.34693982237E+02  0.51100000000E-03 0.  1.
        -12    1    3    3    0    0 -0.49935277962E+01 -0.14707679233E+01 -0.30480663523E+01  0.60323450352E+01  0.00000000000E+00 0.  1.
</event>
<event>
 7    1  0.2751796E-010  0.4778727E+02  0.7816164E-02  0.1312668E+00
        -11   -1    0    0    0    0  0.00000000000E+00  0.00000000000E+00  0.45593999997E+02  0.45594000000E+02  0.51100000000E-03 0.  1.
         11   -1    0    0    0    0 -0.00000000000E+00 -0.00000000000E+00 -0.45593999997E+02  0.45594000000E+02  0.51100000000E-03 0. -1.
    9900012    2    1    2    0    0  0.22516071973E+02 -0.13358537228E+02  0.34615019515E+02  0.47787267403E+02  0.19999983395E+02 0.  0.
         12    1    1    2    0    0 -0.22516071973E+02  0.13358537228E+02 -0.34615019515E+02  0.43400732597E+02  0.00000000000E+00 0. -1.
         11    1    3    3    0    0  0.24032415011E+01 -0.72018383067E+01  0.17678287907E+02  0.19239644183E+02  0.51100000000E-03 0.  1.
        -11    1    3    3    0    0  0.31378160519E+01  0.24120202942E+01  0.26392079286E+01  0.47570106397E+01  0.51100000000E-03 0. -1.
         12    1    3    3    0    0  0.16975014420E+02 -0.85687192154E+01  0.14297523680E+02  0.23790612580E+02  0.00000000000E+00 0. -1.
</event>
<event>
 7    1  0.2751796E-010  0.4778727E+02  0.7816164E-02  0.1312668E+00
        -11   -1    0    0    0    0  0.00000000000E+00  0.00000000000E+00  0.45593999997E+02  0.45594000000E+02  0.51100000000E-03 0.  1.
         11   -1    0    0    0    0 -0.00000000000E+00 -0.00000000000E+00 -0.45593999997E+02  0.45594000000E+02  0.51100000000E-03 0. -1.
    9900012    2    1    2    0    0  0.82586660674E+01 -0.33030425950E+02  0.26914835136E+02  0.47787274729E+02  0.20000016798E+02 0.  0.
         12    1    1    2    0    0 -0.82586660674E+01  0.33030425950E+02 -0.26914835136E+02  0.43400725271E+02  0.00000000000E+00 0. -1.
         11    1    3    3    0    0  0.12981612471E+02 -0.24122110969E+02  0.13332312015E+02  0.30465538627E+02  0.51100000000E-03 0. -1.
        -11    1    3    3    0    0 -0.35743581683E+01 -0.82858262734E+01  0.98089081144E+01  0.13328376946E+02  0.51100000000E-03 0.  1.
         12    1    3    3    0    0 -0.11485882348E+01 -0.62248870772E+00  0.37736150070E+01  0.39933591555E+01  0.00000000000E+00 0. -1.
</event>
<event>
 7    1  0.2751796E-010  0.4778729E+02  0.7816164E-02  0.1312668E+00
        -11   -1    0    0    0    0  0.00000000000E+00  0.00000000000E+00  0.45593999997E+02  0.45594000000E+02  0.51100000000E-03 0. -1.
         11   -1    0    0    0    0 -0.00000000000E+00 -0.00000000000E+00 -0.45593999997E+02  0.45594000000E+02  0.51100000000E-03 0.  1.
    9900012    2    1    2    0    0 -0.30513989901E+02 -0.84860191994E+01 -0.29673308567E+02  0.47787293291E+02  0.20000101431E+02 0.  0.
         12    1    1    2    0    0  0.30513989901E+02  0.84860191994E+01  0.29673308567E+02  0.43400706709E+02  0.00000000000E+00 0. -1.
         11    1    3    3    0    0 -0.73141423427E+01 -0.53544431714E+01 -0.18609503327E+02  0.20699767009E+02  0.51100000000E-03 0. -1.
        -11    1    3    3    0    0 -0.16857158456E+02 -0.21209334186E+01 -0.11706718220E+02  0.20632726468E+02  0.51100000000E-03 0.  1.
         12    1    3    3    0    0 -0.63426891020E+01 -0.10106426094E+01  0.64291298019E+00  0.64547998133E+01  0.00000000000E+00 0. -1.
</event>
<event>
 7    1  0.2751796E-010  0.4778727E+02  0.7816164E-02  0.1312668E+00
        -11   -1    0    0    0    0  0.00000000000E+00  0.00000000000E+00  0.45593999997E+02  0.45594000000E+02  0.51100000000E-03 0.  1.
         11   -1    0    0    0    0 -0.00000000000E+00 -0.00000000000E+00 -0.45593999997E+02  0.45594000000E+02  0.51100000000E-03 0. -1.
    9900012    2    1    2    0    0 -0.88205934458E+01 -0.22989308531E+02  0.35739504137E+02  0.47787270382E+02  0.19999996977E+02 0.  0.
         12    1    1    2    0    0  0.88205934458E+01  0.22989308531E+02 -0.35739504137E+02  0.43400729618E+02  0.00000000000E+00 0. -1.
         11    1    3    3    0    0 -0.10084830309E+02 -0.24980849787E+02  0.32829987079E+02  0.42468278871E+02  0.51100000000E-03 0. -1.
        -11    1    3    3    0    0 -0.12425412226E-01 -0.57940039979E+00  0.23165140456E+01  0.23879063630E+01  0.51100000000E-03 0.  1.
         12    1    3    3    0    0  0.12766622755E+01  0.25709416563E+01  0.59300301277E+00  0.29310851470E+01  0.00000000000E+00 0. -1.
</event>
<event>
 7    1  0.2751796E-010  0.4778726E+02  0.7816164E-02  0.1312668E+00
        -11   -1    0    0    0    0  0.00000000000E+00  0.00000000000E+00  0.45593999997E+02  0.45594000000E+02  0.51100000000E-03 0. -1.
         11   -1    0    0    0    0 -0.00000000000E+00 -0.00000000000E+00 -0.45593999997E+02  0.45594000000E+02  0.51100000000E-03 0.  1.
    9900012    2    1    2    0    0 -0.10446955919E+02 -0.28615770273E+02 -0.30913146701E+02  0.47787264577E+02  0.19999970510E+02 0.  0.
         12    1    1    2    0    0  0.10446955919E+02  0.28615770273E+02  0.30913146701E+02  0.43400735423E+02  0.00000000000E+00 0. -1.
         11    1    3    3    0    0  0.24010512678E+00  0.14860753617E+01 -0.22794961304E+01  0.27316978826E+01  0.51100000000E-03 0. -1.
        -11    1    3    3    0    0 -0.33007129728E+01 -0.25256273335E+02 -0.17787767553E+02  0.31067325660E+02  0.51100000000E-03 0.  1.
        -12    1    3    3    0    0 -0.73863480733E+01 -0.48455723002E+01 -0.10845883018E+02  0.13988241034E+02  0.00000000000E+00 0.  1.
</event>
<event>
 7    1  0.2751796E-010  0.4778727E+02  0.7816164E-02  0.1312668E+00
        -11   -1    0    0    0    0  0.00000000000E+00  0.00000000000E+00  0.45593999997E+02  0.45594000000E+02  0.51100000000E-03 0.  1.
         11   -1    0    0    0    0 -0.00000000000E+00 -0.00000000000E+00 -0.45593999997E+02  0.45594000000E+02  0.51100000000E-03 0. -1.
    9900012    2    1    2    0    0  0.83304980731E+01 -0.11631593590E+02  0.40974771564E+02  0.47787273366E+02  0.20000010586E+02 0.  0.
         12    1    1    2    0    0 -0.83304980731E+01  0.11631593590E+02 -0.40974771564E+02  0.43400726634E+02  0.00000000000E+00 0. -1.
         11    1    3    3    0    0  0.78206401815E+01 -0.15676425926E+01  0.62886126338E+01  0.10157094332E+02  0.51100000000E-03 0. -1.
        -11    1    3    3    0    0  0.39924695288E+01 -0.10236244861E+02  0.28225998766E+02  0.30289066152E+02  0.51100000000E-03 0.  1.
         12    1    3    3    0    0 -0.34826116372E+01  0.17229386343E+00  0.64601601647E+01  0.73411128819E+01  0.00000000000E+00 0. -1.
</event>
<event>
 7    1  0.2751796E-010  0.4778723E+02  0.7816164E-02  0.1312668E+00
        -11   -1    0    0    0    0  0.00000000000E+00  0.00000000000E+00  0.45593999997E+02  0.45594000000E+02  0.51100000000E-03 0. -1.
         11   -1    0    0    0    0 -0.00000000000E+00 -0.00000000000E+00 -0.45593999997E+02  0.45594000000E+02  0.51100000000E-03 0.  1.
    9900012    2    1    2    0    0  0.18244029463E+02 -0.37415886844E+02 -0.12281434336E+02  0.47787230090E+02  0.19999813273E+02 0.  0.
         12    1    1    2    0    0 -0.18244029463E+02  0.37415886844E+02  0.12281434336E+02  0.43400769910E+02  0.00000000000E+00 0. -1.
         11    1    3    3    0    0  0.55324804111E+01 -0.23203803344E+02 -0.12344130481E+02  0.26858934952E+02  0.51100000000E-03 0. -1.
        -11    1    3    3    0    0  0.34729678745E+01 -0.29864044446E+01 -0.37257272894E+01  0.59043341251E+01  0.51100000000E-03 0.  1.
         12    1    3    3    0    0  0.92385811768E+01 -0.11225679055E+02  0.37884234342E+01  0.15023961013E+02  0.00000000000E+00 0. -1.
</event>
<event>
 7    1  0.2751796E-010  0.4778726E+02  0.7816164E-02  0.1312668E+00
        -11   -1    0    0    0    0  0.00000000000E+00  0.00000000000E+00  0.45593999997E+02  0.45594000000E+02  0.51100000000E-03 0.  1.
         11   -1    0    0    0    0 -0.00000000000E+00 -0.00000000000E+00 -0.45593999997E+02  0.45594000000E+02  0.51100000000E-03 0. -1.
    9900012    2    1    2    0    0  0.37109872247E+02  0.21151919912E+02 -0.76861906242E+01  0.47787264287E+02  0.19999969189E+02 0.  0.
         12    1    1    2    0    0 -0.37109872247E+02 -0.21151919912E+02  0.76861906242E+01  0.43400735713E+02  0.00000000000E+00 0. -1.
         11    1    3    3    0    0  0.53649871471E+01  0.41643345402E-01 -0.52962940092E+01  0.75389357173E+01  0.51100000000E-03 0. -1.
        -11    1    3    3    0    0  0.20395942489E+02  0.80409931656E+01  0.29800516712E+01  0.22125386987E+02  0.51100000000E-03 0.  1.
        -12    1    3    3    0    0  0.11348942611E+02  0.13069283401E+02 -0.53699482862E+01  0.18122941582E+02  0.00000000000E+00 0.  1.
</event>
<event>
 7    1  0.2751796E-010  0.4778728E+02  0.7816164E-02  0.1312668E+00
        -11   -1    0    0    0    0  0.00000000000E+00  0.00000000000E+00  0.45593999997E+02  0.45594000000E+02  0.51100000000E-03 0. -1.
         11   -1    0    0    0    0 -0.00000000000E+00 -0.00000000000E+00 -0.45593999997E+02  0.45594000000E+02  0.51100000000E-03 0.  1.
    9900012    2    1    2    0    0 -0.21435578282E+02  0.49828176959E+00 -0.37734472448E+02  0.47787277518E+02  0.20000029517E+02 0.  0.
         12    1    1    2    0    0  0.21435578282E+02 -0.49828176959E+00  0.37734472448E+02  0.43400722482E+02  0.00000000000E+00 0. -1.
         11    1    3    3    0    0 -0.76046002051E+01 -0.77797872198E+01 -0.10475352670E+02  0.15102584126E+02  0.51100000000E-03 0. -1.
        -11    1    3    3    0    0 -0.12046734208E+02  0.30219327909E+01 -0.20068995635E+02  0.23601281087E+02  0.51100000000E-03 0.  1.
         12    1    3    3    0    0 -0.17842438693E+01  0.52561361985E+01 -0.71901241426E+01  0.90834123053E+01  0.00000000000E+00 0. -1.
</event>
<event>
 7    1  0.2751796E-010  0.4778728E+02  0.7816164E-02  0.1312668E+00
        -11   -1    0    0    0    0  0.00000000000E+00  0.00000000000E+00  0.45593999997E+02  0.45594000000E+02  0.51100000000E-03 0. -1.
         11   -1    0    0    0    0 -0.00000000000E+00 -0.00000000000E+00 -0.45593999997E+02  0.45594000000E+02  0.51100000000E-03 0.  1.
    9900012    2    1    2    0    0 -0.42025676153E+02  0.59854310084E+01  0.90354702974E+01  0.47787279223E+02  0.20000037290E+02 0.  0.
         12    1    1    2    0    0  0.42025676153E+02 -0.59854310084E+01 -0.90354702974E+01  0.43400720777E+02  0.00000000000E+00 0. -1.
         11    1    3    3    0    0 -0.18003148282E+02 -0.11216049049E+01  0.86051237165E+01  0.19985482232E+02  0.51100000000E-03 0.  1.
        -11    1    3    3    0    0 -0.16178496814E+02  0.10094077671E+02  0.22856045867E+01  0.19205680195E+02  0.51100000000E-03 0. -1.
         12    1    3    3    0    0 -0.78440310576E+01 -0.29870417582E+01 -0.18552580059E+01  0.85961167958E+01  0.00000000000E+00 0. -1.
</event>
<event>
 7    1  0.2751796E-010  0.4778727E+02  0.7816164E-02  0.1312668E+00
        -11   -1    0    0    0    0  0.00000000000E+00  0.00000000000E+00  0.45593999997E+02  0.45594000000E+02  0.51100000000E-03 0. -1.
         11   -1    0    0    0    0 -0.00000000000E+00 -0.00000000000E+00 -0.45593999997E+02  0.45594000000E+02  0.51100000000E-03 0.  1.
    9900012    2    1    2    0    0  0.21002175108E+02  0.37446507165E+02  0.63475065191E+01  0.47787273081E+02  0.20000009286E+02 0.  0.
         12    1    1    2    0    0 -0.21002175108E+02 -0.37446507165E+02 -0.63475065191E+01  0.43400726919E+02  0.00000000000E+00 0. -1.
         11    1    3    3    0    0  0.27333777765E+01  0.20040038602E+02  0.82388744989E+01  0.21839266346E+02  0.51100000000E-03 0. -1.
        -11    1    3    3    0    0  0.61341334867E+01  0.49415767629E+01 -0.32013555050E+01  0.85026732189E+01  0.51100000000E-03 0.  1.
         12    1    3    3    0    0  0.12134663844E+02  0.12464891799E+02  0.13099875253E+01  0.17445333517E+02  0.00000000000E+00 0. -1.
</event>
<event>
 7    1  0.2751796E-010  0.4778727E+02  0.7816164E-02  0.1312668E+00
        -11   -1    0    0    0    0  0.00000000000E+00  0.00000000000E+00  0.45593999997E+02  0.45594000000E+02  0.51100000000E-03 0. -1.
         11   -1    0    0    0    0 -0.00000000000E+00 -0.00000000000E+00 -0.45593999997E+02  0.45594000000E+02  0.51100000000E-03 0.  1.
    9900012    2    1    2    0    0  0.39686933982E+01  0.28702028732E+02 -0.32312010858E+02  0.47787273897E+02  0.20000013005E+02 0.  0.
         12    1    1    2    0    0 -0.39686933982E+01 -0.28702028732E+02  0.32312010858E+02  0.43400726103E+02  0.00000000000E+00 0. -1.
         11    1    3    3    0    0 -0.29532186198E+00  0.46937975192E+01 -0.48645463489E+01  0.67662960026E+01  0.51100000000E-03 0. -1.
        -11    1    3    3    0    0  0.45215252190E+01  0.25303214449E+02 -0.29151527125E+02  0.38865259368E+02  0.51100000000E-03 0.  1.
        -12    1    3    3    0    0 -0.25750995885E+00 -0.12949832370E+01  0.17040626160E+01  0.21557185257E+01  0.00000000000E+00 0.  1.
</event>
<event>
 7    1  0.2751796E-010  0.4778727E+02  0.7816164E-02  0.1312668E+00
        -11   -1    0    0    0    0  0.00000000000E+00  0.00000000000E+00  0.45593999997E+02  0.45594000000E+02  0.51100000000E-03 0.  1.
         11   -1    0    0    0    0 -0.00000000000E+00 -0.00000000000E+00 -0.45593999997E+02  0.45594000000E+02  0.51100000000E-03 0. -1.
    9900012    2    1    2    0    0 -0.22399103585E+02  0.20996306285E+02  0.30676678783E+02  0.47787270280E+02  0.19999996517E+02 0.  0.
         12    1    1    2    0    0  0.22399103585E+02 -0.20996306285E+02 -0.30676678783E+02  0.43400729720E+02  0.00000000000E+00 0. -1.
         11    1    3    3    0    0 -0.22312212372E+02  0.14585643892E+02  0.19783040930E+02  0.33195549963E+02  0.51100000000E-03 0.  1.
        -11    1    3    3    0    0 -0.35109091802E+01  0.17447382404E+01  0.44297563586E+01  0.59155165841E+01  0.51100000000E-03 0. -1.
         12    1    3    3    0    0  0.34240179672E+01  0.46659241535E+01  0.64638814943E+01  0.86762037331E+01  0.00000000000E+00 0. -1.
</event>
<event>
 7    1  0.2751796E-010  0.4778727E+02  0.7816164E-02  0.1312668E+00
        -11   -1    0    0    0    0  0.00000000000E+00  0.00000000000E+00  0.45593999997E+02  0.45594000000E+02  0.51100000000E-03 0. -1.
         11   -1    0    0    0    0 -0.00000000000E+00 -0.00000000000E+00 -0.45593999997E+02  0.45594000000E+02  0.51100000000E-03 0.  1.
    9900012    2    1    2    0    0 -0.30943077997E+02 -0.17801463358E+02 -0.24683138042E+02  0.47787268702E+02  0.19999989319E+02 0.  0.
         12    1    1    2    0    0  0.30943077997E+02  0.17801463358E+02  0.24683138042E+02  0.43400731298E+02  0.00000000000E+00 0. -1.
         11    1    3    3    0    0 -0.67559151395E+01  0.62760484532E+00 -0.81967347630E+01  0.10640617381E+02  0.51100000000E-03 0. -1.
        -11    1    3    3    0    0 -0.12054675256E+02 -0.10146544285E+02 -0.98033092775E+00  0.15786975817E+02  0.51100000000E-03 0.  1.
        -12    1    3    3    0    0 -0.12132487601E+02 -0.82825239183E+01 -0.15506072351E+02  0.21359675503E+02  0.00000000000E+00 0.  1.
</event>
<event>
 7    1  0.2751796E-010  0.4778728E+02  0.7816164E-02  0.1312668E+00
        -11   -1    0    0    0    0  0.00000000000E+00  0.00000000000E+00  0.45593999997E+02  0.45594000000E+02  0.51100000000E-03 0.  1.
         11   -1    0    0    0    0 -0.00000000000E+00 -0.00000000000E+00 -0.45593999997E+02  0.45594000000E+02  0.51100000000E-03 0. -1.
    9900012    2    1    2    0    0  0.30900273849E+02  0.29303470385E+02  0.83727299895E+01  0.47787275259E+02  0.20000019217E+02 0.  0.
         12    1    1    2    0    0 -0.30900273849E+02 -0.29303470385E+02 -0.83727299895E+01  0.43400724741E+02  0.00000000000E+00 0. -1.
         11    1    3    3    0    0  0.15643236306E+02  0.43922083427E+01 -0.11548687321E+01  0.16289139274E+02  0.51100000000E-03 0. -1.
        -11    1    3    3    0    0  0.48890437326E+01  0.30712837774E+01  0.27175797038E+01  0.63812829720E+01  0.51100000000E-03 0.  1.
         12    1    3    3    0    0  0.10367993811E+02  0.21839978264E+02  0.68100190177E+01  0.25116853013E+02  0.00000000000E+00 0. -1.
</event>
<event>
 7    1  0.2751796E-010  0.4778727E+02  0.7816164E-02  0.1312668E+00
        -11   -1    0    0    0    0  0.00000000000E+00  0.00000000000E+00  0.45593999997E+02  0.45594000000E+02  0.51100000000E-03 0.  1.
         11   -1    0    0    0    0 -0.00000000000E+00 -0.00000000000E+00 -0.45593999997E+02  0.45594000000E+02  0.51100000000E-03 0. -1.
    9900012    2    1    2    0    0  0.58430623638E+00  0.54613198327E+01  0.43051785731E+02  0.47787266334E+02  0.19999978524E+02 0.  0.
         12    1    1    2    0    0 -0.58430623638E+00 -0.54613198327E+01 -0.43051785731E+02  0.43400733666E+02  0.00000000000E+00 0. -1.
         11    1    3    3    0    0 -0.66770697497E+01  0.29335598310E+01  0.23700579175E+02  0.24797308064E+02  0.51100000000E-03 0. -1.
        -11    1    3    3    0    0  0.36343292217E+00 -0.28961506268E+00  0.13520932334E+02  0.13528916136E+02  0.51100000000E-03 0.  1.
         12    1    3    3    0    0  0.68979430639E+01  0.28173750644E+01  0.58302742224E+01  0.94610421347E+01  0.00000000000E+00 0. -1.
</event>
<event>
 7    1  0.2751796E-010  0.4778728E+02  0.7816164E-02  0.1312668E+00
        -11   -1    0    0    0    0  0.00000000000E+00  0.00000000000E+00  0.45593999997E+02  0.45594000000E+02  0.51100000000E-03 0. -1.
         11   -1    0    0    0    0 -0.00000000000E+00 -0.00000000000E+00 -0.45593999997E+02  0.45594000000E+02  0.51100000000E-03 0.  1.
    9900012    2    1    2    0    0 -0.19219164705E+02  0.51676737788E+01 -0.38568656683E+02  0.47787280852E+02  0.20000044716E+02 0.  0.
         12    1    1    2    0    0  0.19219164705E+02 -0.51676737788E+01  0.38568656683E+02  0.43400719148E+02  0.00000000000E+00 0. -1.
         11    1    3    3    0    0 -0.21525841188E+01 -0.13820637459E+01  0.18573140607E+01  0.31612235555E+01  0.51100000000E-03 0. -1.
        -11    1    3    3    0    0 -0.10388246849E+02  0.51861309816E+01 -0.30012824820E+02  0.32180448740E+02  0.51100000000E-03 0.  1.
        -12    1    3    3    0    0 -0.66783337377E+01  0.13636065430E+01 -0.10413145924E+02  0.12445608557E+02  0.00000000000E+00 0.  1.
</event>
<event>
 7    1  0.2751796E-010  0.4778726E+02  0.7816164E-02  0.1312668E+00
        -11   -1    0    0    0    0  0.00000000000E+00  0.00000000000E+00  0.45593999997E+02  0.45594000000E+02  0.51100000000E-03 0.  1.
         11   -1    0    0    0    0 -0.00000000000E+00 -0.00000000000E+00 -0.45593999997E+02  0.45594000000E+02  0.51100000000E-03 0. -1.
    9900012    2    1    2    0    0  0.39406396283E+02 -0.77949539333E+01 -0.16431653501E+02  0.47787255633E+02  0.19999929733E+02 0.  0.
         12    1    1    2    0    0 -0.39406396283E+02  0.77949539333E+01  0.16431653501E+02  0.43400744367E+02  0.00000000000E+00 0. -1.
         11    1    3    3    0    0 -0.13278984398E+01  0.18506266856E+01  0.10814798479E+00  0.22803134967E+01  0.51100000000E-03 0. -1.
        -11    1    3    3    0    0  0.63390508238E+01 -0.12595050668E+01 -0.76580513383E-01  0.64634188473E+01  0.51100000000E-03 0.  1.
         12    1    3    3    0    0  0.34395243899E+02 -0.83860755520E+01 -0.16463220973E+02  0.39043523289E+02  0.00000000000E+00 0. -1.
</event>
<event>
 7    1  0.2751796E-010  0.4778727E+02  0.7816164E-02  0.1312668E+00
        -11   -1    0    0    0    0  0.00000000000E+00  0.00000000000E+00  0.45593999997E+02  0.45594000000E+02  0.51100000000E-03 0.  1.
         11   -1    0    0    0    0 -0.00000000000E+00 -0.00000000000E+00 -0.45593999997E+02  0.45594000000E+02  0.51100000000E-03 0. -1.
    9900012    2    1    2    0    0 -0.42303136959E+02 -0.40002599051E+01  0.88354708496E+01  0.47787273957E+02  0.20000013281E+02 0.  0.
         12    1    1    2    0    0  0.42303136959E+02  0.40002599051E+01 -0.88354708496E+01  0.43400726043E+02  0.00000000000E+00 0. -1.
         11    1    3    3    0    0 -0.52451498654E+01 -0.24256482685E+01 -0.53727846056E+01  0.78906388405E+01  0.51100000000E-03 0. -1.
        -11    1    3    3    0    0 -0.33337381522E+02 -0.22763962828E+01  0.13529269109E+02  0.36050022326E+02  0.51100000000E-03 0.  1.
         12    1    3    3    0    0 -0.37206055713E+01  0.70178464612E+00  0.67898634658E+00  0.38466127912E+01  0.00000000000E+00 0. -1.
</event>
<event>
 7    1  0.2751796E-010  0.4778727E+02  0.7816164E-02  0.1312668E+00
        -11   -1    0    0    0    0  0.00000000000E+00  0.00000000000E+00  0.45593999997E+02  0.45594000000E+02  0.51100000000E-03 0.  1.
         11   -1    0    0    0    0 -0.00000000000E+00 -0.00000000000E+00 -0.45593999997E+02  0.45594000000E+02  0.51100000000E-03 0. -1.
    9900012    2    1    2    0    0  0.11563930169E+02  0.67867849829E+01  0.41277577168E+02  0.47787270649E+02  0.19999998197E+02 0.  0.
         12    1    1    2    0    0 -0.11563930169E+02 -0.67867849829E+01 -0.41277577168E+02  0.43400729351E+02  0.00000000000E+00 0. -1.
         11    1    3    3    0    0 -0.26875041392E+01 -0.15088368255E+01  0.98988654214E+00  0.32371503968E+01  0.51100000000E-03 0. -1.
        -11    1    3    3    0    0 -0.35138375355E+00  0.30822852424E+00  0.98304719577E+01  0.98415778480E+01  0.51100000000E-03 0.  1.
         12    1    3    3    0    0  0.14602818062E+02  0.79873932842E+01  0.30457218668E+02  0.34708542404E+02  0.00000000000E+00 0. -1.
</event>
<event>
 7    1  0.2751796E-010  0.4778727E+02  0.7816164E-02  0.1312668E+00
        -11   -1    0    0    0    0  0.00000000000E+00  0.00000000000E+00  0.45593999997E+02  0.45594000000E+02  0.51100000000E-03 0.  1.
         11   -1    0    0    0    0 -0.00000000000E+00 -0.00000000000E+00 -0.45593999997E+02  0.45594000000E+02  0.51100000000E-03 0. -1.
    9900012    2    1    2    0    0  0.34542425996E+02 -0.25517893824E+02  0.62674701014E+01  0.47787270970E+02  0.19999999658E+02 0.  0.
         12    1    1    2    0    0 -0.34542425996E+02  0.25517893824E+02 -0.62674701014E+01  0.43400729030E+02  0.00000000000E+00 0. -1.
         11    1    3    3    0    0  0.10140230599E+02 -0.11517729639E+02  0.90227123373E+00  0.15371937623E+02  0.51100000000E-03 0. -1.
        -11    1    3    3    0    0  0.94873476046E+01 -0.53296020870E+01  0.97543590678E+01  0.14613758725E+02  0.51100000000E-03 0.  1.
        -12    1    3    3    0    0  0.14914847792E+02 -0.86705620974E+01 -0.43891602001E+01  0.17801574622E+02  0.00000000000E+00 0.  1.
</event>
<event>
 7    1  0.2751796E-010  0.4778727E+02  0.7816164E-02  0.1312668E+00
        -11   -1    0    0    0    0  0.00000000000E+00  0.00000000000E+00  0.45593999997E+02  0.45594000000E+02  0.51100000000E-03 0.  1.
         11   -1    0    0    0    0 -0.00000000000E+00 -0.00000000000E+00 -0.45593999997E+02  0.45594000000E+02  0.51100000000E-03 0. -1.
    9900012    2    1    2    0    0 -0.10318079534E+02 -0.16696693950E+02  0.38708924739E+02  0.47787271797E+02  0.20000003430E+02 0.  0.
         12    1    1    2    0    0  0.10318079534E+02  0.16696693950E+02 -0.38708924739E+02  0.43400728203E+02  0.00000000000E+00 0. -1.
         11    1    3    3    0    0 -0.11534411198E+02 -0.30094039167E+00  0.15057635704E+02  0.18970123881E+02  0.51100000000E-03 0. -1.
        -11    1    3    3    0    0  0.10219477552E+01 -0.11967709225E+02  0.16634962421E+02  0.20518099725E+02  0.51100000000E-03 0.  1.
         12    1    3    3    0    0  0.19438390860E+00 -0.44280443332E+01  0.70163266140E+01  0.82990481909E+01  0.00000000000E+00 0. -1.
</event>
<event>
 7    1  0.2751796E-010  0.4778726E+02  0.7816164E-02  0.1312668E+00
        -11   -1    0    0    0    0  0.00000000000E+00  0.00000000000E+00  0.45593999997E+02  0.45594000000E+02  0.51100000000E-03 0.  1.
         11   -1    0    0    0    0 -0.00000000000E+00 -0.00000000000E+00 -0.45593999997E+02  0.45594000000E+02  0.51100000000E-03 0. -1.
    9900012    2    1    2    0    0  0.22481112928E+02 -0.87351914507E+01  0.36082132055E+02  0.47787259664E+02  0.19999948110E+02 0.  0.
         12    1    1    2    0    0 -0.22481112928E+02  0.87351914507E+01 -0.36082132055E+02  0.43400740336E+02  0.00000000000E+00 0. -1.
         11    1    3    3    0    0  0.41815544289E+01 -0.27622296145E+01  0.21172768566E+02  0.21757790304E+02  0.51100000000E-03 0. -1.
        -11    1    3    3    0    0  0.23013795959E+01 -0.45875569836E+01  0.49688371473E+01  0.71436244288E+01  0.51100000000E-03 0.  1.
         12    1    3    3    0    0  0.15998178903E+02 -0.13854048527E+01  0.99405263410E+01  0.18885844931E+02  0.00000000000E+00 0. -1.
</event>
<event>
 7    1  0.2751796E-010  0.4778728E+02  0.7816164E-02  0.1312668E+00
        -11   -1    0    0    0    0  0.00000000000E+00  0.00000000000E+00  0.45593999997E+02  0.45594000000E+02  0.51100000000E-03 0.  1.
         11   -1    0    0    0    0 -0.00000000000E+00 -0.00000000000E+00 -0.45593999997E+02  0.45594000000E+02  0.51100000000E-03 0. -1.
    9900012    2    1    2    0    0  0.16526053505E+02 -0.21755640720E+02  0.33722463582E+02  0.47787275379E+02  0.20000019762E+02 0.  0.
         12    1    1    2    0    0 -0.16526053505E+02  0.21755640720E+02 -0.33722463582E+02  0.43400724621E+02  0.00000000000E+00 0. -1.
         11    1    3    3    0    0  0.33620545026E+01 -0.58009118512E+00  0.14585849774E+01  0.37104429195E+01  0.51100000000E-03 0. -1.
        -11    1    3    3    0    0  0.16521593550E+02 -0.12784884232E+02  0.20809788285E+02  0.29486668292E+02  0.51100000000E-03 0.  1.
        -12    1    3    3    0    0 -0.33575945471E+01 -0.83906653032E+01  0.11454090320E+02  0.14590164167E+02  0.00000000000E+00 0.  1.
</event>
<event>
 7    1  0.2751796E-010  0.4778727E+02  0.7816164E-02  0.1312668E+00
        -11   -1    0    0    0    0  0.00000000000E+00  0.00000000000E+00  0.45593999997E+02  0.45594000000E+02  0.51100000000E-03 0. -1.
         11   -1    0    0    0    0 -0.00000000000E+00 -0.00000000000E+00 -0.45593999997E+02  0.45594000000E+02  0.51100000000E-03 0.  1.
    9900012    2    1    2    0    0  0.38901904198E+02  0.13744809075E+02 -0.13466452619E+02  0.47787271055E+02  0.20000000050E+02 0.  0.
         12    1    1    2    0    0 -0.38901904198E+02 -0.13744809075E+02  0.13466452619E+02  0.43400728945E+02  0.00000000000E+00 0. -1.
         11    1    3    3    0    0  0.41097952767E+01 -0.24478075961E-01  0.81793005790E+00  0.41904684981E+01  0.51100000000E-03 0. -1.
        -11    1    3    3    0    0  0.80129218847E+00  0.52980392102E+01  0.87068906276E+00  0.54285714833E+01  0.51100000000E-03 0.  1.
        -12    1    3    3    0    0  0.33990816733E+02  0.84712479411E+01 -0.15155071740E+02  0.38168231074E+02  0.00000000000E+00 0.  1.
</event>
<event>
 7    1  0.2751796E-010  0.4778727E+02  0.7816164E-02  0.1312668E+00
        -11   -1    0    0    0    0  0.00000000000E+00  0.00000000000E+00  0.45593999997E+02  0.45594000000E+02  0.51100000000E-03 0.  1.
         11   -1    0    0    0    0 -0.00000000000E+00 -0.00000000000E+00 -0.45593999997E+02  0.45594000000E+02  0.51100000000E-03 0. -1.
    9900012    2    1    2    0    0 -0.30263810071E+02  0.31082807014E+02  0.12587491122E+01  0.47787267964E+02  0.19999985956E+02 0.  0.
         12    1    1    2    0    0  0.30263810071E+02 -0.31082807014E+02 -0.12587491122E+01  0.43400732036E+02  0.00000000000E+00 0. -1.
         11    1    3    3    0    0 -0.60943112384E+01  0.55260298550E+01 -0.48781638369E+01  0.95642102711E+01  0.51100000000E-03 0. -1.
        -11    1    3    3    0    0 -0.24641127943E+02  0.19098001372E+02  0.59874050727E+01  0.31745359700E+02  0.51100000000E-03 0.  1.
        -12    1    3    3    0    0  0.47162911013E+00  0.64587757871E+01  0.14950787634E+00  0.64776979932E+01  0.00000000000E+00 0.  1.
</event>
<event>
 7    1  0.2751796E-010  0.4778727E+02  0.7816164E-02  0.1312668E+00
        -11   -1    0    0    0    0  0.00000000000E+00  0.00000000000E+00  0.45593999997E+02  0.45594000000E+02  0.51100000000E-03 0. -1.
         11   -1    0    0    0    0 -0.00000000000E+00 -0.00000000000E+00 -0.45593999997E+02  0.45594000000E+02  0.51100000000E-03 0.  1.
    9900012    2    1    2    0    0 -0.24824400816E+02 -0.33942309119E+02 -0.10737412791E+02  0.47787271231E+02  0.20000000852E+02 0.  0.
         12    1    1    2    0    0  0.24824400816E+02  0.33942309119E+02  0.10737412791E+02  0.43400728769E+02  0.00000000000E+00 0. -1.
         11    1    3    3    0    0 -0.58308141740E+01 -0.30388828352E+00 -0.30447420762E+01  0.65849219124E+01  0.51100000000E-03 0. -1.
        -11    1    3    3    0    0 -0.11346617523E+02 -0.27915376412E+02 -0.22692500832E+01  0.30218594700E+02  0.51100000000E-03 0.  1.
        -12    1    3    3    0    0 -0.76469691192E+01 -0.57230444237E+01 -0.54234206317E+01  0.10983754619E+02  0.00000000000E+00 0.  1.
</event>
<event>
 7    1  0.2751796E-010  0.4778727E+02  0.7816164E-02  0.1312668E+00
        -11   -1    0    0    0    0  0.00000000000E+00  0.00000000000E+00  0.45593999997E+02  0.45594000000E+02  0.51100000000E-03 0.  1.
         11   -1    0    0    0    0 -0.00000000000E+00 -0.00000000000E+00 -0.45593999997E+02  0.45594000000E+02  0.51100000000E-03 0. -1.
    9900012    2    1    2    0    0 -0.92746176674E+01  0.56771093697E+01  0.42016369150E+02  0.47787269819E+02  0.19999994413E+02 0.  0.
         12    1    1    2    0    0  0.92746176674E+01 -0.56771093697E+01 -0.42016369150E+02  0.43400730181E+02  0.00000000000E+00 0. -1.
         11    1    3    3    0    0 -0.92571644869E+01 -0.28252153845E+01  0.21719803161E+02  0.23778704462E+02  0.51100000000E-03 0. -1.
        -11    1    3    3    0    0  0.47451788510E+01  0.42316018381E+01  0.88713578875E+01  0.10914401838E+02  0.51100000000E-03 0.  1.
        -12    1    3    3    0    0 -0.47626320315E+01  0.42707229161E+01  0.11425208102E+02  0.13094163519E+02  0.00000000000E+00 0.  1.
</event>
<event>
 7    1  0.2751796E-010  0.4778728E+02  0.7816164E-02  0.1312668E+00
        -11   -1    0    0    0    0  0.00000000000E+00  0.00000000000E+00  0.45593999997E+02  0.45594000000E+02  0.51100000000E-03 0.  1.
         11   -1    0    0    0    0 -0.00000000000E+00 -0.00000000000E+00 -0.45593999997E+02  0.45594000000E+02  0.51100000000E-03 0. -1.
    9900012    2    1    2    0    0  0.35942017885E+02  0.22914458430E+02  0.81683272746E+01  0.47787278517E+02  0.20000034069E+02 0.  0.
         12    1    1    2    0    0 -0.35942017885E+02 -0.22914458430E+02 -0.81683272746E+01  0.43400721483E+02  0.00000000000E+00 0. -1.
         11    1    3    3    0    0  0.64199309979E+01  0.19708924080E+01 -0.43541558595E+01  0.80036619376E+01  0.51100000000E-03 0. -1.
        -11    1    3    3    0    0  0.28769832534E+02  0.17490763596E+02  0.13237528389E+02  0.36178201079E+02  0.51100000000E-03 0.  1.
         12    1    3    3    0    0  0.75225435292E+00  0.34528024267E+01 -0.71504525493E+00  0.36054154998E+01  0.00000000000E+00 0. -1.
</event>
<event>
 7    1  0.2751796E-010  0.4778727E+02  0.7816164E-02  0.1312668E+00
        -11   -1    0    0    0    0  0.00000000000E+00  0.00000000000E+00  0.45593999997E+02  0.45594000000E+02  0.51100000000E-03 0.  1.
         11   -1    0    0    0    0 -0.00000000000E+00 -0.00000000000E+00 -0.45593999997E+02  0.45594000000E+02  0.51100000000E-03 0. -1.
    9900012    2    1    2    0    0 -0.18311349255E+02  0.83434583670E+01  0.38453931578E+02  0.47787266563E+02  0.19999979568E+02 0.  0.
         12    1    1    2    0    0  0.18311349255E+02 -0.83434583670E+01 -0.38453931578E+02  0.43400733437E+02  0.00000000000E+00 0. -1.
         11    1    3    3    0    0  0.30821487143E+00  0.78845871722E+01  0.64727336290E+01  0.10205782291E+02  0.51100000000E-03 0. -1.
        -11    1    3    3    0    0 -0.15439576005E+02 -0.11011667112E+01  0.29306237987E+02  0.33142852330E+02  0.51100000000E-03 0.  1.
         12    1    3    3    0    0 -0.31799881211E+01  0.15600379060E+01  0.26749599615E+01  0.44386319417E+01  0.00000000000E+00 0. -1.
</event>
<event>
 7    1  0.2751796E-010  0.4778727E+02  0.7816164E-02  0.1312668E+00
        -11   -1    0    0    0    0  0.00000000000E+00  0.00000000000E+00  0.45593999997E+02  0.45594000000E+02  0.51100000000E-03 0. -1.
         11   -1    0    0    0    0 -0.00000000000E+00 -0.00000000000E+00 -0.45593999997E+02  0.45594000000E+02  0.51100000000E-03 0.  1.
    9900012    2    1    2    0    0  0.31468504646E+02 -0.28986589360E+02 -0.72893060810E+01  0.47787272695E+02  0.20000007527E+02 0.  0.
         12    1    1    2    0    0 -0.31468504646E+02  0.28986589360E+02  0.72893060810E+01  0.43400727305E+02  0.00000000000E+00 0. -1.
         11    1    3    3    0    0  0.23951837996E+01  0.93755200326E+00  0.29547101451E+01  0.39174253656E+01  0.51100000000E-03 0. -1.
        -11    1    3    3    0    0  0.26388005905E+02 -0.22287968586E+02 -0.88420671812E+01  0.35654768989E+02  0.51100000000E-03 0.  1.
        -12    1    3    3    0    0  0.26853149419E+01 -0.76361727773E+01 -0.14019490449E+01  0.82150783408E+01  0.00000000000E+00 0.  1.
</event>
<event>
 7    1  0.2751796E-010  0.4778727E+02  0.7816164E-02  0.1312668E+00
        -11   -1    0    0    0    0  0.00000000000E+00  0.00000000000E+00  0.45593999997E+02  0.45594000000E+02  0.51100000000E-03 0. -1.
         11   -1    0    0    0    0 -0.00000000000E+00 -0.00000000000E+00 -0.45593999997E+02  0.45594000000E+02  0.51100000000E-03 0.  1.
    9900012    2    1    2    0    0  0.78962663796E+01 -0.22045320665E+02 -0.36541427958E+02  0.47787272550E+02  0.20000006865E+02 0.  0.
         12    1    1    2    0    0 -0.78962663796E+01  0.22045320665E+02  0.36541427958E+02  0.43400727450E+02  0.00000000000E+00 0. -1.
         11    1    3    3    0    0 -0.53605693385E+01 -0.11179508106E+01 -0.90779595270E+01  0.10601644546E+02  0.51100000000E-03 0. -1.
        -11    1    3    3    0    0  0.50922130702E+01 -0.11115928560E+02 -0.14917079882E+02  0.19287658598E+02  0.51100000000E-03 0.  1.
         12    1    3    3    0    0  0.81646226479E+01 -0.98114412943E+01 -0.12546388548E+02  0.17897969406E+02  0.00000000000E+00 0. -1.
</event>
<event>
 7    1  0.2751796E-010  0.4778728E+02  0.7816164E-02  0.1312668E+00
        -11   -1    0    0    0    0  0.00000000000E+00  0.00000000000E+00  0.45593999997E+02  0.45594000000E+02  0.51100000000E-03 0.  1.
         11   -1    0    0    0    0 -0.00000000000E+00 -0.00000000000E+00 -0.45593999997E+02  0.45594000000E+02  0.51100000000E-03 0. -1.
    9900012    2    1    2    0    0 -0.25285884080E+02  0.31397429434E+02  0.16076328443E+02  0.47787275985E+02  0.20000022528E+02 0.  0.
         12    1    1    2    0    0  0.25285884080E+02 -0.31397429434E+02 -0.16076328443E+02  0.43400724015E+02  0.00000000000E+00 0. -1.
         11    1    3    3    0    0 -0.84321960058E+01  0.42749022813E+00 -0.10731341938E+01  0.85109514530E+01  0.51100000000E-03 0. -1.
        -11    1    3    3    0    0 -0.98116994181E+01  0.15628727112E+02  0.90951982405E+01  0.20573020874E+02  0.51100000000E-03 0.  1.
         12    1    3    3    0    0 -0.70419886558E+01  0.15341212095E+02  0.80542643966E+01  0.18703303658E+02  0.00000000000E+00 0. -1.
</event>
<event>
 7    1  0.2751796E-010  0.4778725E+02  0.7816164E-02  0.1312668E+00
        -11   -1    0    0    0    0  0.00000000000E+00  0.00000000000E+00  0.45593999997E+02  0.45594000000E+02  0.51100000000E-03 0.  1.
         11   -1    0    0    0    0 -0.00000000000E+00 -0.00000000000E+00 -0.45593999997E+02  0.45594000000E+02  0.51100000000E-03 0. -1.
    9900012    2    1    2    0    0 -0.20175783242E+02 -0.12657019145E+02  0.36281709793E+02  0.47787253133E+02  0.19999918336E+02 0.  0.
         12    1    1    2    0    0  0.20175783242E+02  0.12657019145E+02 -0.36281709793E+02  0.43400746867E+02  0.00000000000E+00 0. -1.
         11    1    3    3    0    0 -0.25726448990E+01 -0.21918581467E+00 -0.19257826525E+01  0.32210531327E+01  0.51100000000E-03 0. -1.
        -11    1    3    3    0    0 -0.16159246839E+02 -0.13102148478E+02  0.32072651761E+02  0.38228818245E+02  0.51100000000E-03 0.  1.
         12    1    3    3    0    0 -0.14438915035E+01  0.66431514791E+00  0.61348406849E+01  0.63373817557E+01  0.00000000000E+00 0. -1.
</event>
<event>
 7    1  0.2751796E-010  0.4778726E+02  0.7816164E-02  0.1312668E+00
        -11   -1    0    0    0    0  0.00000000000E+00  0.00000000000E+00  0.45593999997E+02  0.45594000000E+02  0.51100000000E-03 0.  1.
         11   -1    0    0    0    0 -0.00000000000E+00 -0.00000000000E+00 -0.45593999997E+02  0.45594000000E+02  0.51100000000E-03 0. -1.
    9900012    2    1    2    0    0  0.70487309660E+01 -0.26199937970E+02  0.33874810254E+02  0.47787261209E+02  0.19999955158E+02 0.  0.
         12    1    1    2    0    0 -0.70487309660E+01  0.26199937970E+02 -0.33874810254E+02  0.43400738791E+02  0.00000000000E+00 0. -1.
         11    1    3    3    0    0 -0.15699688279E+01 -0.18643602288E+01  0.10778380347E+02  0.11050525976E+02  0.51100000000E-03 0. -1.
        -11    1    3    3    0    0  0.53988187901E+00 -0.14491661157E+02  0.66966897962E+01  0.15973270486E+02  0.51100000000E-03 0.  1.
        -12    1    3    3    0    0  0.80788179150E+01 -0.98439165837E+01  0.16399740111E+02  0.20763464747E+02  0.00000000000E+00 0.  1.
</event>
<event>
 7    1  0.2751796E-010  0.4778727E+02  0.7816164E-02  0.1312668E+00
        -11   -1    0    0    0    0  0.00000000000E+00  0.00000000000E+00  0.45593999997E+02  0.45594000000E+02  0.51100000000E-03 0.  1.
         11   -1    0    0    0    0 -0.00000000000E+00 -0.00000000000E+00 -0.45593999997E+02  0.45594000000E+02  0.51100000000E-03 0. -1.
    9900012    2    1    2    0    0  0.40692114551E+02  0.10380433549E+02  0.10955463830E+02  0.47787265271E+02  0.19999973677E+02 0.  0.
         12    1    1    2    0    0 -0.40692114551E+02 -0.10380433549E+02 -0.10955463830E+02  0.43400734729E+02  0.00000000000E+00 0. -1.
         11    1    3    3    0    0  0.23927049240E+02  0.32971555227E+01  0.61095362877E+01  0.24913878738E+02  0.51100000000E-03 0.  1.
        -11    1    3    3    0    0  0.85695105022E+00  0.39915683979E+01 -0.28040634759E+01  0.49527523273E+01  0.51100000000E-03 0. -1.
        -12    1    3    3    0    0  0.15908114261E+02  0.30917096279E+01  0.76499910179E+01  0.17920634206E+02  0.00000000000E+00 0.  1.
</event>
<event>
 7    1  0.2751796E-010  0.4778727E+02  0.7816164E-02  0.1312668E+00
        -11   -1    0    0    0    0  0.00000000000E+00  0.00000000000E+00  0.45593999997E+02  0.45594000000E+02  0.51100000000E-03 0.  1.
         11   -1    0    0    0    0 -0.00000000000E+00 -0.00000000000E+00 -0.45593999997E+02  0.45594000000E+02  0.51100000000E-03 0. -1.
    9900012    2    1    2    0    0 -0.17931706601E+02 -0.22418689678E+02  0.32549647531E+02  0.47787270710E+02  0.19999998476E+02 0.  0.
         12    1    1    2    0    0  0.17931706601E+02  0.22418689678E+02 -0.32549647531E+02  0.43400729290E+02  0.00000000000E+00 0. -1.
         11    1    3    3    0    0 -0.53716765370E+01 -0.97090351156E+01  0.23157439140E+02  0.25678536942E+02  0.51100000000E-03 0. -1.
        -11    1    3    3    0    0 -0.11123027779E+02 -0.56692266386E+01  0.39486699889E+01  0.13094039583E+02  0.51100000000E-03 0.  1.
         12    1    3    3    0    0 -0.14370022844E+01 -0.70404279240E+01  0.54435384024E+01  0.90146941854E+01  0.00000000000E+00 0. -1.
</event>
<event>
 7    1  0.2751796E-010  0.4778727E+02  0.7816164E-02  0.1312668E+00
        -11   -1    0    0    0    0  0.00000000000E+00  0.00000000000E+00  0.45593999997E+02  0.45594000000E+02  0.51100000000E-03 0. -1.
         11   -1    0    0    0    0 -0.00000000000E+00 -0.00000000000E+00 -0.45593999997E+02  0.45594000000E+02  0.51100000000E-03 0.  1.
    9900012    2    1    2    0    0 -0.12785693498E+02 -0.36102584809E+02 -0.20414529524E+02  0.47787267244E+02  0.19999982671E+02 0.  0.
         12    1    1    2    0    0  0.12785693498E+02  0.36102584809E+02  0.20414529524E+02  0.43400732756E+02  0.00000000000E+00 0. -1.
         11    1    3    3    0    0 -0.18806525268E+01 -0.26508344607E+02 -0.72427529500E+01  0.27544267249E+02  0.51100000000E-03 0. -1.
        -11    1    3    3    0    0 -0.94657071529E+01 -0.61917735090E+01 -0.11678968584E+02  0.16258412547E+02  0.51100000000E-03 0.  1.
        -12    1    3    3    0    0 -0.14393338184E+01 -0.34024666929E+01 -0.14928079894E+01  0.39845874479E+01  0.00000000000E+00 0.  1.
</event>
<event>
 7    1  0.2751796E-010  0.4778727E+02  0.7816164E-02  0.1312668E+00
        -11   -1    0    0    0    0  0.00000000000E+00  0.00000000000E+00  0.45593999997E+02  0.45594000000E+02  0.51100000000E-03 0. -1.
         11   -1    0    0    0    0 -0.00000000000E+00 -0.00000000000E+00 -0.45593999997E+02  0.45594000000E+02  0.51100000000E-03 0.  1.
    9900012    2    1    2    0    0 -0.27789643198E+02 -0.30564910595E+02  0.13309592750E+02  0.47787270883E+02  0.19999999262E+02 0.  0.
         12    1    1    2    0    0  0.27789643198E+02  0.30564910595E+02 -0.13309592750E+02  0.43400729117E+02  0.00000000000E+00 0. -1.
         11    1    3    3    0    0  0.87467758499E+00 -0.21659392677E+01 -0.33276020769E+01  0.40656229083E+01  0.51100000000E-03 0. -1.
        -11    1    3    3    0    0 -0.12180737768E+02 -0.11304337765E+02  0.80939870695E+01  0.18484346130E+02  0.51100000000E-03 0.  1.
         12    1    3    3    0    0 -0.16483583014E+02 -0.17094633562E+02  0.85432077571E+01  0.25237301845E+02  0.00000000000E+00 0. -1.
</event>
<event>
 7    1  0.2751796E-010  0.4778727E+02  0.7816164E-02  0.1312668E+00
        -11   -1    0    0    0    0  0.00000000000E+00  0.00000000000E+00  0.45593999997E+02  0.45594000000E+02  0.51100000000E-03 0.  1.
         11   -1    0    0    0    0 -0.00000000000E+00 -0.00000000000E+00 -0.45593999997E+02  0.45594000000E+02  0.51100000000E-03 0. -1.
    9900012    2    1    2    0    0  0.42685880765E+02 -0.70653845589E+01  0.34087167382E+01  0.47787269298E+02  0.19999992036E+02 0.  0.
         12    1    1    2    0    0 -0.42685880765E+02  0.70653845589E+01 -0.34087167382E+01  0.43400730702E+02  0.00000000000E+00 0. -1.
         11    1    3    3    0    0  0.81938473601E+01  0.48393799191E+01  0.19773685183E+00  0.95182893781E+01  0.51100000000E-03 0. -1.
        -11    1    3    3    0    0  0.99722234610E+01  0.12182598839E+01  0.28999869728E+01  0.10456544487E+02  0.51100000000E-03 0.  1.
         12    1    3    3    0    0  0.24519809944E+02 -0.13123024362E+02  0.31099291354E+00  0.27812435433E+02  0.00000000000E+00 0. -1.
</event>
<event>
 7    1  0.2751796E-010  0.4778727E+02  0.7816164E-02  0.1312668E+00
        -11   -1    0    0    0    0  0.00000000000E+00  0.00000000000E+00  0.45593999997E+02  0.45594000000E+02  0.51100000000E-03 0.  1.
         11   -1    0    0    0    0 -0.00000000000E+00 -0.00000000000E+00 -0.45593999997E+02  0.45594000000E+02  0.51100000000E-03 0. -1.
    9900012    2    1    2    0    0 -0.36562717338E+02 -0.49101662287E+01  0.22862229033E+02  0.47787267887E+02  0.19999985605E+02 0.  0.
         12    1    1    2    0    0  0.36562717338E+02  0.49101662287E+01 -0.22862229033E+02  0.43400732113E+02  0.00000000000E+00 0. -1.
         11    1    3    3    0    0 -0.15206594729E+02 -0.10045150615E+02  0.94708197432E+01  0.20538792589E+02  0.51100000000E-03 0. -1.
        -11    1    3    3    0    0 -0.88688557888E+01  0.29950017937E+01  0.10844243128E+02  0.14325650003E+02  0.51100000000E-03 0.  1.
        -12    1    3    3    0    0 -0.12487266820E+02  0.21399825930E+01  0.25471661623E+01  0.12922825295E+02  0.00000000000E+00 0.  1.
</event>
<event>
 7    1  0.2751796E-010  0.4778727E+02  0.7816164E-02  0.1312668E+00
        -11   -1    0    0    0    0  0.00000000000E+00  0.00000000000E+00  0.45593999997E+02  0.45594000000E+02  0.51100000000E-03 0.  1.
         11   -1    0    0    0    0 -0.00000000000E+00 -0.00000000000E+00 -0.45593999997E+02  0.45594000000E+02  0.51100000000E-03 0. -1.
    9900012    2    1    2    0    0  0.79905319224E+01 -0.69635274591E+01  0.42086624606E+02  0.47787270907E+02  0.19999999373E+02 0.  0.
         12    1    1    2    0    0 -0.79905319224E+01  0.69635274591E+01 -0.42086624606E+02  0.43400729093E+02  0.00000000000E+00 0. -1.
         11    1    3    3    0    0 -0.22434397246E+01 -0.41269192312E+01  0.28022609919E+02  0.28413573360E+02  0.51100000000E-03 0. -1.
        -11    1    3    3    0    0  0.37923997004E+01  0.26384025086E+01  0.32555757174E+01  0.56517463494E+01  0.51100000000E-03 0.  1.
         12    1    3    3    0    0  0.64415719466E+01 -0.54750107364E+01  0.10808438969E+02  0.13721951197E+02  0.00000000000E+00 0. -1.
</event>
<event>
 7    1  0.3170429E-010  0.4778727E+02  0.7816164E-02  0.1312668E+00
        -11   -1    0    0    0    0  0.00000000000E+00  0.00000000000E+00  0.45593999997E+02  0.45594000000E+02  0.51100000000E-03 0.  1.
         11   -1    0    0    0    0 -0.00000000000E+00 -0.00000000000E+00 -0.45593999997E+02  0.45594000000E+02  0.51100000000E-03 0. -1.
    9900012    2    1    2    0    0  0.14483463078E+02 -0.31618440556E+02  0.25963960164E+02  0.47787265982E+02  0.19999976917E+02 0.  0.
         12    1    1    2    0    0 -0.14483463078E+02  0.31618440556E+02 -0.25963960164E+02  0.43400734018E+02  0.00000000000E+00 0. -1.
         11    1    3    3    0    0  0.12244242798E+02 -0.89716461899E+01  0.11867235197E+02  0.19267672109E+02  0.51100000000E-03 0. -1.
        -11    1    3    3    0    0  0.44712209851E+01 -0.21549001672E+02  0.13887748900E+02  0.26023467485E+02  0.51100000000E-03 0.  1.
         12    1    3    3    0    0 -0.22320007048E+01 -0.10977926935E+01  0.20897606794E+00  0.24961263873E+01  0.00000000000E+00 0. -1.
</event>
<event>
 7    1  0.2751796E-010  0.4778727E+02  0.7816164E-02  0.1312668E+00
        -11   -1    0    0    0    0  0.00000000000E+00  0.00000000000E+00  0.45593999997E+02  0.45594000000E+02  0.51100000000E-03 0.  1.
         11   -1    0    0    0    0 -0.00000000000E+00 -0.00000000000E+00 -0.45593999997E+02  0.45594000000E+02  0.51100000000E-03 0. -1.
    9900012    2    1    2    0    0  0.22396255198E+02 -0.16401059392E+02  0.33362197983E+02  0.47787271315E+02  0.20000001234E+02 0.  0.
         12    1    1    2    0    0 -0.22396255198E+02  0.16401059392E+02 -0.33362197983E+02  0.43400728685E+02  0.00000000000E+00 0. -1.
         11    1    3    3    0    0  0.63333569351E+01 -0.12470998105E+02  0.88654788044E+01  0.16560009617E+02  0.51100000000E-03 0. -1.
        -11    1    3    3    0    0  0.16030090495E+02 -0.92211395346E+00  0.18344346386E+02  0.24378866668E+02  0.51100000000E-03 0.  1.
        -12    1    3    3    0    0  0.32807768016E-01 -0.30079473335E+01  0.61523727924E+01  0.68483950300E+01  0.00000000000E+00 0.  1.
</event>
<event>
 7    1  0.2751796E-010  0.4778727E+02  0.7816164E-02  0.1312668E+00
        -11   -1    0    0    0    0  0.00000000000E+00  0.00000000000E+00  0.45593999997E+02  0.45594000000E+02  0.51100000000E-03 0. -1.
         11   -1    0    0    0    0 -0.00000000000E+00 -0.00000000000E+00 -0.45593999997E+02  0.45594000000E+02  0.51100000000E-03 0.  1.
    9900012    2    1    2    0    0 -0.16506101310E+02 -0.28898482270E+02 -0.27857667032E+02  0.47787271084E+02  0.20000000181E+02 0.  0.
         12    1    1    2    0    0  0.16506101310E+02  0.28898482270E+02  0.27857667032E+02  0.43400728916E+02  0.00000000000E+00 0. -1.
         11    1    3    3    0    0 -0.48092327053E+01 -0.66830336711E+01  0.92820156894E+00  0.82857236664E+01  0.51100000000E-03 0. -1.
        -11    1    3    3    0    0 -0.13320678011E+02 -0.17208232251E+02 -0.23840114776E+02  0.32278704941E+02  0.51100000000E-03 0.  1.
        -12    1    3    3    0    0  0.16238094069E+01 -0.50072163480E+01 -0.49457538246E+01  0.72228424764E+01  0.00000000000E+00 0.  1.
</event>
<event>
 7    1  0.2751796E-010  0.4778727E+02  0.7816164E-02  0.1312668E+00
        -11   -1    0    0    0    0  0.00000000000E+00  0.00000000000E+00  0.45593999997E+02  0.45594000000E+02  0.51100000000E-03 0.  1.
         11   -1    0    0    0    0 -0.00000000000E+00 -0.00000000000E+00 -0.45593999997E+02  0.45594000000E+02  0.51100000000E-03 0. -1.
    9900012    2    1    2    0    0 -0.27119749139E+01  0.51856976240E+01  0.43004380292E+02  0.47787274291E+02  0.20000014801E+02 0.  0.
         12    1    1    2    0    0  0.27119749139E+01 -0.51856976240E+01 -0.43004380292E+02  0.43400725709E+02  0.00000000000E+00 0. -1.
         11    1    3    3    0    0 -0.79405662032E+00 -0.11113006433E+01 -0.17921813140E+01  0.22533151487E+01  0.51100000000E-03 0. -1.
        -11    1    3    3    0    0  0.16056554420E-02  0.15433256540E+01  0.25733862285E+01  0.30006955184E+01  0.51100000000E-03 0.  1.
         12    1    3    3    0    0 -0.19195239490E+01  0.47536726133E+01  0.42223175378E+02  0.42533263624E+02  0.00000000000E+00 0. -1.
</event>
<event>
 7    1  0.2751796E-010  0.4778728E+02  0.7816164E-02  0.1312668E+00
        -11   -1    0    0    0    0  0.00000000000E+00  0.00000000000E+00  0.45593999997E+02  0.45594000000E+02  0.51100000000E-03 0. -1.
         11   -1    0    0    0    0 -0.00000000000E+00 -0.00000000000E+00 -0.45593999997E+02  0.45594000000E+02  0.51100000000E-03 0.  1.
    9900012    2    1    2    0    0 -0.19303652170E+02  0.14974921242E+02 -0.35871200290E+02  0.47787282683E+02  0.20000053067E+02 0.  0.
         12    1    1    2    0    0  0.19303652170E+02 -0.14974921242E+02  0.35871200290E+02  0.43400717317E+02  0.00000000000E+00 0. -1.
         11    1    3    3    0    0 -0.46549295067E+01 -0.31194565742E+01 -0.11825378114E+02  0.13085829963E+02  0.51100000000E-03 0. -1.
        -11    1    3    3    0    0 -0.37413033512E+01  0.66454232929E+01 -0.26023044297E+01  0.80579768003E+01  0.51100000000E-03 0.  1.
         12    1    3    3    0    0 -0.10907419312E+02  0.11448954523E+02 -0.21443517747E+02  0.26643475920E+02  0.00000000000E+00 0. -1.
</event>
<event>
 7    1  0.2751796E-010  0.4778727E+02  0.7816164E-02  0.1312668E+00
        -11   -1    0    0    0    0  0.00000000000E+00  0.00000000000E+00  0.45593999997E+02  0.45594000000E+02  0.51100000000E-03 0. -1.
         11   -1    0    0    0    0 -0.00000000000E+00 -0.00000000000E+00 -0.45593999997E+02  0.45594000000E+02  0.51100000000E-03 0.  1.
    9900012    2    1    2    0    0  0.20980898477E+02  0.36723465083E+02  0.97371534570E+01  0.47787272517E+02  0.20000006715E+02 0.  0.
         12    1    1    2    0    0 -0.20980898477E+02 -0.36723465083E+02 -0.97371534570E+01  0.43400727483E+02  0.00000000000E+00 0. -1.
         11    1    3    3    0    0  0.11976837914E+02  0.46055406846E+01  0.24071582502E+01  0.13055652512E+02  0.51100000000E-03 0. -1.
        -11    1    3    3    0    0  0.56765354179E+01  0.22057001988E+02  0.19823974403E+01  0.22861852307E+02  0.51100000000E-03 0.  1.
        -12    1    3    3    0    0  0.33275251458E+01  0.10060922410E+02  0.53475977665E+01  0.11869767698E+02  0.00000000000E+00 0.  1.
</event>
<event>
 7    1  0.2751796E-010  0.4778731E+02  0.7816164E-02  0.1312668E+00
        -11   -1    0    0    0    0  0.00000000000E+00  0.00000000000E+00  0.45593999997E+02  0.45594000000E+02  0.51100000000E-03 0. -1.
         11   -1    0    0    0    0 -0.00000000000E+00 -0.00000000000E+00 -0.45593999997E+02  0.45594000000E+02  0.51100000000E-03 0.  1.
    9900012    2    1    2    0    0  0.27906701355E+02  0.33230355249E+02  0.76146392727E+00  0.47787305100E+02  0.20000155272E+02 0.  0.
         12    1    1    2    0    0 -0.27906701355E+02 -0.33230355249E+02 -0.76146392727E+00  0.43400694900E+02  0.00000000000E+00 0. -1.
         11    1    3    3    0    0  0.29393416146E+01  0.12877758592E+02  0.39753606137E+01  0.13794197612E+02  0.51100000000E-03 0. -1.
        -11    1    3    3    0    0  0.19006868249E+02  0.93382511424E+01 -0.52220666928E+00  0.21183405654E+02  0.51100000000E-03 0.  1.
        -12    1    3    3    0    0  0.59604914913E+01  0.11014345514E+02 -0.26916900171E+01  0.12809701834E+02  0.00000000000E+00 0.  1.
</event>
<event>
 7    1  0.2751796E-010  0.4778727E+02  0.7816164E-02  0.1312668E+00
        -11   -1    0    0    0    0  0.00000000000E+00  0.00000000000E+00  0.45593999997E+02  0.45594000000E+02  0.51100000000E-03 0.  1.
         11   -1    0    0    0    0 -0.00000000000E+00 -0.00000000000E+00 -0.45593999997E+02  0.45594000000E+02  0.51100000000E-03 0. -1.
    9900012    2    1    2    0    0  0.17237418368E+02 -0.13868827975E+02  0.37338327269E+02  0.47787266543E+02  0.19999979476E+02 0.  0.
         12    1    1    2    0    0 -0.17237418368E+02  0.13868827975E+02 -0.37338327269E+02  0.43400733457E+02  0.00000000000E+00 0. -1.
         11    1    3    3    0    0  0.27201492065E+01 -0.18612381030E+01  0.17332360536E+02  0.17642962931E+02  0.51100000000E-03 0. -1.
        -11    1    3    3    0    0  0.61278252325E+01 -0.79588125262E+01  0.25576790483E+01  0.10365069285E+02  0.51100000000E-03 0.  1.
        -12    1    3    3    0    0  0.83894439287E+01 -0.40487773461E+01  0.17448287684E+02  0.19779234327E+02  0.00000000000E+00 0.  1.
</event>
<event>
 7    1  0.2751796E-010  0.4778727E+02  0.7816164E-02  0.1312668E+00
        -11   -1    0    0    0    0  0.00000000000E+00  0.00000000000E+00  0.45593999997E+02  0.45594000000E+02  0.51100000000E-03 0.  1.
         11   -1    0    0    0    0 -0.00000000000E+00 -0.00000000000E+00 -0.45593999997E+02  0.45594000000E+02  0.51100000000E-03 0. -1.
    9900012    2    1    2    0    0 -0.40292515645E+02  0.15184989690E+02  0.54361962820E+01  0.47787274673E+02  0.20000016543E+02 0.  0.
         12    1    1    2    0    0  0.40292515645E+02 -0.15184989690E+02 -0.54361962820E+01  0.43400725327E+02  0.00000000000E+00 0. -1.
         11    1    3    3    0    0 -0.14325984462E+02  0.14368334458E+02  0.54999514618E+01  0.21022186667E+02  0.51100000000E-03 0. -1.
        -11    1    3    3    0    0 -0.42701204546E+01  0.16148759870E+01  0.19427962435E+01  0.49614726297E+01  0.51100000000E-03 0.  1.
         12    1    3    3    0    0 -0.21696410729E+02 -0.79822075477E+00 -0.20065514233E+01  0.21803615377E+02  0.00000000000E+00 0. -1.
</event>
<event>
 7    1  0.2751796E-010  0.4778728E+02  0.7816164E-02  0.1312668E+00
        -11   -1    0    0    0    0  0.00000000000E+00  0.00000000000E+00  0.45593999997E+02  0.45594000000E+02  0.51100000000E-03 0. -1.
         11   -1    0    0    0    0 -0.00000000000E+00 -0.00000000000E+00 -0.45593999997E+02  0.45594000000E+02  0.51100000000E-03 0.  1.
    9900012    2    1    2    0    0  0.83574930724E+01  0.15129379076E+02 -0.39810512741E+02  0.47787277352E+02  0.20000028757E+02 0.  0.
         12    1    1    2    0    0 -0.83574930724E+01 -0.15129379076E+02  0.39810512741E+02  0.43400722648E+02  0.00000000000E+00 0. -1.
         11    1    3    3    0    0 -0.10206245860E+01  0.12229562946E+02 -0.13121776360E+02  0.17966215503E+02  0.51100000000E-03 0.  1.
        -11    1    3    3    0    0  0.67664555113E+01 -0.24385433554E+01 -0.12223287070E+02  0.14182389113E+02  0.51100000000E-03 0. -1.
        -12    1    3    3    0    0  0.26116621471E+01  0.53383594849E+01 -0.14465449312E+02  0.15638672736E+02  0.00000000000E+00 0.  1.
</event>
<event>
 7    1  0.2751796E-010  0.4778727E+02  0.7816164E-02  0.1312668E+00
        -11   -1    0    0    0    0  0.00000000000E+00  0.00000000000E+00  0.45593999997E+02  0.45594000000E+02  0.51100000000E-03 0.  1.
         11   -1    0    0    0    0 -0.00000000000E+00 -0.00000000000E+00 -0.45593999997E+02  0.45594000000E+02  0.51100000000E-03 0. -1.
    9900012    2    1    2    0    0 -0.14731148398E+02  0.26900169888E+02  0.30708262433E+02  0.47787271264E+02  0.20000001002E+02 0.  0.
         12    1    1    2    0    0  0.14731148398E+02 -0.26900169888E+02 -0.30708262433E+02  0.43400728736E+02  0.00000000000E+00 0. -1.
         11    1    3    3    0    0 -0.13151032168E+02  0.99158346837E+01  0.85583766826E+01  0.18561229385E+02  0.51100000000E-03 0. -1.
        -11    1    3    3    0    0 -0.32475088626E+01  0.16121121832E+02  0.16597560946E+02  0.23364843516E+02  0.51100000000E-03 0.  1.
         12    1    3    3    0    0  0.16673926329E+01  0.86321337276E+00  0.55523248047E+01  0.58611983635E+01  0.00000000000E+00 0. -1.
</event>
<event>
 7    1  0.2751796E-010  0.4778727E+02  0.7816164E-02  0.1312668E+00
        -11   -1    0    0    0    0  0.00000000000E+00  0.00000000000E+00  0.45593999997E+02  0.45594000000E+02  0.51100000000E-03 0.  1.
         11   -1    0    0    0    0 -0.00000000000E+00 -0.00000000000E+00 -0.45593999997E+02  0.45594000000E+02  0.51100000000E-03 0. -1.
    9900012    2    1    2    0    0  0.24739511902E+02  0.21498126434E+02  0.28450136349E+02  0.47787272499E+02  0.20000006630E+02 0.  0.
         12    1    1    2    0    0 -0.24739511902E+02 -0.21498126434E+02 -0.28450136349E+02  0.43400727501E+02  0.00000000000E+00 0. -1.
         11    1    3    3    0    0  0.10995495926E+02  0.81471489107E+01  0.50993322406E+01  0.14604114338E+02  0.51100000000E-03 0. -1.
        -11    1    3    3    0    0  0.66739352035E+01  0.13183871138E+02  0.21103468454E+02  0.25762613422E+02  0.51100000000E-03 0.  1.
        -12    1    3    3    0    0  0.70700807725E+01  0.16710638601E+00  0.22473356549E+01  0.74205447388E+01  0.00000000000E+00 0.  1.
</event>
<event>
 7    1  0.2751796E-010  0.4778727E+02  0.7816164E-02  0.1312668E+00
        -11   -1    0    0    0    0  0.00000000000E+00  0.00000000000E+00  0.45593999997E+02  0.45594000000E+02  0.51100000000E-03 0.  1.
         11   -1    0    0    0    0 -0.00000000000E+00 -0.00000000000E+00 -0.45593999997E+02  0.45594000000E+02  0.51100000000E-03 0. -1.
    9900012    2    1    2    0    0 -0.11470187070E+02  0.15772670968E+02  0.38772171190E+02  0.47787267291E+02  0.19999982887E+02 0.  0.
         12    1    1    2    0    0  0.11470187070E+02 -0.15772670968E+02 -0.38772171190E+02  0.43400732709E+02  0.00000000000E+00 0. -1.
         11    1    3    3    0    0 -0.12990985552E+01  0.28499062139E+01  0.23648429599E+01  0.39245515630E+01  0.51100000000E-03 0. -1.
        -11    1    3    3    0    0 -0.12842563678E+02  0.14970561662E+02  0.35078964037E+02  0.40244041503E+02  0.51100000000E-03 0.  1.
        -12    1    3    3    0    0  0.26714751631E+01 -0.20477969078E+01  0.13283641930E+01  0.36186742257E+01  0.00000000000E+00 0.  1.
</event>
<event>
 7    1  0.2751796E-010  0.4778727E+02  0.7816164E-02  0.1312668E+00
        -11   -1    0    0    0    0  0.00000000000E+00  0.00000000000E+00  0.45593999997E+02  0.45594000000E+02  0.51100000000E-03 0.  1.
         11   -1    0    0    0    0 -0.00000000000E+00 -0.00000000000E+00 -0.45593999997E+02  0.45594000000E+02  0.51100000000E-03 0. -1.
    9900012    2    1    2    0    0  0.17046825519E+02  0.21811028857E+02  0.33426163033E+02  0.47787267112E+02  0.19999982071E+02 0.  0.
         12    1    1    2    0    0 -0.17046825519E+02 -0.21811028857E+02 -0.33426163033E+02  0.43400732888E+02  0.00000000000E+00 0. -1.
         11    1    3    3    0    0 -0.27544669805E+01  0.38284116461E+01  0.94208610308E+01  0.10535485129E+02  0.51100000000E-03 0. -1.
        -11    1    3    3    0    0  0.15060666123E+02  0.16112457845E+02  0.14287121105E+02  0.26278447283E+02  0.51100000000E-03 0.  1.
         12    1    3    3    0    0  0.47406263763E+01  0.18701593664E+01  0.97181808973E+01  0.10973334700E+02  0.00000000000E+00 0. -1.
</event>
<event>
 7    1  0.2751796E-010  0.4778727E+02  0.7816164E-02  0.1312668E+00
        -11   -1    0    0    0    0  0.00000000000E+00  0.00000000000E+00  0.45593999997E+02  0.45594000000E+02  0.51100000000E-03 0.  1.
         11   -1    0    0    0    0 -0.00000000000E+00 -0.00000000000E+00 -0.45593999997E+02  0.45594000000E+02  0.51100000000E-03 0. -1.
    9900012    2    1    2    0    0 -0.17993828005E+02 -0.68229270819E+01  0.38901067014E+02  0.47787271953E+02  0.20000004140E+02 0.  0.
         12    1    1    2    0    0  0.17993828005E+02  0.68229270819E+01 -0.38901067014E+02  0.43400728047E+02  0.00000000000E+00 0. -1.
         11    1    3    3    0    0 -0.13826616448E+02  0.60193483004E+00  0.13651197303E+02  0.19439465939E+02  0.51100000000E-03 0. -1.
        -11    1    3    3    0    0 -0.36448087864E-01 -0.83201237770E+01  0.13468262678E+02  0.15830978743E+02  0.51100000000E-03 0.  1.
        -12    1    3    3    0    0 -0.41307634698E+01  0.89526186504E+00  0.11781607033E+02  0.12516827271E+02  0.00000000000E+00 0.  1.
</event>
<event>
 7    1  0.2751796E-010  0.4778727E+02  0.7816164E-02  0.1312668E+00
        -11   -1    0    0    0    0  0.00000000000E+00  0.00000000000E+00  0.45593999997E+02  0.45594000000E+02  0.51100000000E-03 0.  1.
         11   -1    0    0    0    0 -0.00000000000E+00 -0.00000000000E+00 -0.45593999997E+02  0.45594000000E+02  0.51100000000E-03 0. -1.
    9900012    2    1    2    0    0  0.14055663934E+02  0.21731588240E+02  0.34839628391E+02  0.47787270485E+02  0.19999997449E+02 0.  0.
         12    1    1    2    0    0 -0.14055663934E+02 -0.21731588240E+02 -0.34839628391E+02  0.43400729515E+02  0.00000000000E+00 0. -1.
         11    1    3    3    0    0 -0.37729748278E+01  0.76079520708E+01  0.91971889869E+01  0.12518169167E+02  0.51100000000E-03 0. -1.
        -11    1    3    3    0    0  0.12147580055E+02  0.73222634105E+01  0.20784695800E+02  0.25163124258E+02  0.51100000000E-03 0.  1.
         12    1    3    3    0    0  0.56810587063E+01  0.68013727586E+01  0.48577436037E+01  0.10105977060E+02  0.00000000000E+00 0. -1.
</event>
<event>
 7    1  0.2751796E-010  0.4778727E+02  0.7816164E-02  0.1312668E+00
        -11   -1    0    0    0    0  0.00000000000E+00  0.00000000000E+00  0.45593999997E+02  0.45594000000E+02  0.51100000000E-03 0.  1.
         11   -1    0    0    0    0 -0.00000000000E+00 -0.00000000000E+00 -0.45593999997E+02  0.45594000000E+02  0.51100000000E-03 0. -1.
    9900012    2    1    2    0    0  0.27258041705E+02  0.16671458083E+02  0.29371502304E+02  0.47787268441E+02  0.19999988130E+02 0.  0.
         12    1    1    2    0    0 -0.27258041705E+02 -0.16671458083E+02 -0.29371502304E+02  0.43400731559E+02  0.00000000000E+00 0. -1.
         11    1    3    3    0    0 -0.22435427643E+01 -0.10077659580E+01  0.12050339360E+01  0.27388288390E+01  0.51100000000E-03 0. -1.
        -11    1    3    3    0    0  0.12803043653E+02  0.10650236665E+02  0.10179041006E+02  0.19518154212E+02  0.51100000000E-03 0.  1.
         12    1    3    3    0    0  0.16698540817E+02  0.70289873764E+01  0.17987427362E+02  0.25530285390E+02  0.00000000000E+00 0. -1.
</event>
<event>
 7    1  0.2751796E-010  0.4778721E+02  0.7816164E-02  0.1312668E+00
        -11   -1    0    0    0    0  0.00000000000E+00  0.00000000000E+00  0.45593999997E+02  0.45594000000E+02  0.51100000000E-03 0. -1.
         11   -1    0    0    0    0 -0.00000000000E+00 -0.00000000000E+00 -0.45593999997E+02  0.45594000000E+02  0.51100000000E-03 0.  1.
    9900012    2    1    2    0    0 -0.41880376623E+02  0.64803604631E+01 -0.93631063679E+01  0.47787207627E+02  0.19999710851E+02 0.  0.
         12    1    1    2    0    0  0.41880376623E+02 -0.64803604631E+01  0.93631063679E+01  0.43400792373E+02  0.00000000000E+00 0. -1.
         11    1    3    3    0    0  0.31956905541E+00 -0.38060196711E+00  0.29985419677E+01  0.30394467312E+01  0.51100000000E-03 0. -1.
        -11    1    3    3    0    0 -0.26369837459E+02  0.21091874950E+01 -0.68725474830E+01  0.27332195460E+02  0.51100000000E-03 0.  1.
         12    1    3    3    0    0 -0.15830108219E+02  0.47517749352E+01 -0.54891008527E+01  0.17415565435E+02  0.00000000000E+00 0. -1.
</event>
<event>
 7    1  0.2751796E-010  0.4778722E+02  0.7816164E-02  0.1312668E+00
        -11   -1    0    0    0    0  0.00000000000E+00  0.00000000000E+00  0.45593999997E+02  0.45594000000E+02  0.51100000000E-03 0.  1.
         11   -1    0    0    0    0 -0.00000000000E+00 -0.00000000000E+00 -0.45593999997E+02  0.45594000000E+02  0.51100000000E-03 0. -1.
    9900012    2    1    2    0    0  0.82329664658E+01 -0.23292270893E+02  0.35683553008E+02  0.47787221488E+02  0.19999774050E+02 0.  0.
         12    1    1    2    0    0 -0.82329664658E+01  0.23292270893E+02 -0.35683553008E+02  0.43400778512E+02  0.00000000000E+00 0. -1.
         11    1    3    3    0    0 -0.36118795214E+01 -0.48276653468E+01  0.23165431458E+01  0.64589781533E+01  0.51100000000E-03 0. -1.
        -11    1    3    3    0    0  0.88985930374E+01 -0.43811966179E+01  0.15267598391E+02  0.18206575810E+02  0.51100000000E-03 0.  1.
         12    1    3    3    0    0  0.29462529497E+01 -0.14083408928E+02  0.18099411471E+02  0.23121667524E+02  0.00000000000E+00 0. -1.
</event>
<event>
 7    1  0.2751796E-010  0.4778730E+02  0.7816164E-02  0.1312668E+00
        -11   -1    0    0    0    0  0.00000000000E+00  0.00000000000E+00  0.45593999997E+02  0.45594000000E+02  0.51100000000E-03 0. -1.
         11   -1    0    0    0    0 -0.00000000000E+00 -0.00000000000E+00 -0.45593999997E+02  0.45594000000E+02  0.51100000000E-03 0.  1.
    9900012    2    1    2    0    0  0.35637107381E+02  0.13963713619E+02 -0.20460497606E+02  0.47787300895E+02  0.20000136099E+02 0.  0.
         12    1    1    2    0    0 -0.35637107381E+02 -0.13963713619E+02  0.20460497606E+02  0.43400699105E+02  0.00000000000E+00 0. -1.
         11    1    3    3    0    0  0.19465778222E+02  0.99251738028E+01 -0.24783880836E+01  0.21990179730E+02  0.51100000000E-03 0. -1.
        -11    1    3    3    0    0  0.19896129349E+01 -0.11912840291E+00 -0.72865782834E+01  0.75542686309E+01  0.51100000000E-03 0.  1.
         12    1    3    3    0    0  0.14181716224E+02  0.41576682195E+01 -0.10695531239E+02  0.18242852534E+02  0.00000000000E+00 0. -1.
</event>
<event>
 7    1  0.2751796E-010  0.4778727E+02  0.7816164E-02  0.1312668E+00
        -11   -1    0    0    0    0  0.00000000000E+00  0.00000000000E+00  0.45593999997E+02  0.45594000000E+02  0.51100000000E-03 0.  1.
         11   -1    0    0    0    0 -0.00000000000E+00 -0.00000000000E+00 -0.45593999997E+02  0.45594000000E+02  0.51100000000E-03 0. -1.
    9900012    2    1    2    0    0  0.25855312547E+01  0.40817252139E+02  0.14522072952E+02  0.47787266748E+02  0.19999980409E+02 0.  0.
         12    1    1    2    0    0 -0.25855312547E+01 -0.40817252139E+02 -0.14522072952E+02  0.43400733252E+02  0.00000000000E+00 0. -1.
         11    1    3    3    0    0  0.41741136304E+01  0.18334963558E+02  0.13174084415E+02  0.22959760750E+02  0.51100000000E-03 0. -1.
        -11    1    3    3    0    0 -0.36774361532E+01  0.22159681507E+02  0.29170072476E+00  0.22464641344E+02  0.51100000000E-03 0.  1.
        -12    1    3    3    0    0  0.20888537774E+01  0.32260707379E+00  0.10562878120E+01  0.23628646532E+01  0.00000000000E+00 0.  1.
</event>
<event>
 7    1  0.2751796E-010  0.4778728E+02  0.7816164E-02  0.1312668E+00
        -11   -1    0    0    0    0  0.00000000000E+00  0.00000000000E+00  0.45593999997E+02  0.45594000000E+02  0.51100000000E-03 0.  1.
         11   -1    0    0    0    0 -0.00000000000E+00 -0.00000000000E+00 -0.45593999997E+02  0.45594000000E+02  0.51100000000E-03 0. -1.
    9900012    2    1    2    0    0 -0.25680601625E+02  0.20479679666E+02  0.28367448183E+02  0.47787277708E+02  0.20000030382E+02 0.  0.
         12    1    1    2    0    0  0.25680601625E+02 -0.20479679666E+02 -0.28367448183E+02  0.43400722292E+02  0.00000000000E+00 0. -1.
         11    1    3    3    0    0 -0.13876405349E+02  0.12974201945E+02  0.13806217209E+02  0.23483955702E+02  0.51100000000E-03 0. -1.
        -11    1    3    3    0    0 -0.12505236611E+02  0.66042776435E+00  0.85143107081E+01  0.15143004809E+02  0.51100000000E-03 0.  1.
        -12    1    3    3    0    0  0.70104033518E+00  0.68450499566E+01  0.60469202653E+01  0.91603171972E+01  0.00000000000E+00 0.  1.
</event>
<event>
 7    1  0.2751796E-010  0.4778728E+02  0.7816164E-02  0.1312668E+00
        -11   -1    0    0    0    0  0.00000000000E+00  0.00000000000E+00  0.45593999997E+02  0.45594000000E+02  0.51100000000E-03 0. -1.
         11   -1    0    0    0    0 -0.00000000000E+00 -0.00000000000E+00 -0.45593999997E+02  0.45594000000E+02  0.51100000000E-03 0.  1.
    9900012    2    1    2    0    0  0.42585214255E+02  0.68280763169E+01 -0.48476414971E+01  0.47787277340E+02  0.20000028703E+02 0.  0.
         12    1    1    2    0    0 -0.42585214255E+02 -0.68280763169E+01  0.48476414971E+01  0.43400722660E+02  0.00000000000E+00 0. -1.
         11    1    3    3    0    0  0.18169240673E+02 -0.59948397209E+01 -0.48799243849E+01  0.19745203777E+02  0.51100000000E-03 0. -1.
        -11    1    3    3    0    0  0.15847859203E+02  0.10642773582E+02 -0.11383216364E+01  0.19123782242E+02  0.51100000000E-03 0.  1.
         12    1    3    3    0    0  0.85681143783E+01  0.21801424559E+01  0.11706045241E+01  0.89182913206E+01  0.00000000000E+00 0. -1.
</event>
<event>
 7    1  0.2751796E-010  0.4778727E+02  0.7816164E-02  0.1312668E+00
        -11   -1    0    0    0    0  0.00000000000E+00  0.00000000000E+00  0.45593999997E+02  0.45594000000E+02  0.51100000000E-03 0. -1.
         11   -1    0    0    0    0 -0.00000000000E+00 -0.00000000000E+00 -0.45593999997E+02  0.45594000000E+02  0.51100000000E-03 0.  1.
    9900012    2    1    2    0    0 -0.33557059660E+02 -0.27386971272E+02 -0.27387221016E+01  0.47787273656E+02  0.20000011907E+02 0.  0.
         12    1    1    2    0    0  0.33557059660E+02  0.27386971272E+02  0.27387221016E+01  0.43400726344E+02  0.00000000000E+00 0. -1.
         11    1    3    3    0    0 -0.16016705944E+02 -0.10824759880E+02 -0.81649638463E+01  0.20985159771E+02  0.51100000000E-03 0. -1.
        -11    1    3    3    0    0 -0.10356548441E+02 -0.12529895747E+02 -0.10986240457E+01  0.16293046311E+02  0.51100000000E-03 0.  1.
         12    1    3    3    0    0 -0.71838052747E+01 -0.40323156450E+01  0.65248657903E+01  0.10509067574E+02  0.00000000000E+00 0. -1.
</event>
<event>
 7    1  0.2751796E-010  0.4778724E+02  0.7816164E-02  0.1312668E+00
        -11   -1    0    0    0    0  0.00000000000E+00  0.00000000000E+00  0.45593999997E+02  0.45594000000E+02  0.51100000000E-03 0.  1.
         11   -1    0    0    0    0 -0.00000000000E+00 -0.00000000000E+00 -0.45593999997E+02  0.45594000000E+02  0.51100000000E-03 0. -1.
    9900012    2    1    2    0    0  0.31770803140E+01  0.32506125356E+02  0.28581184021E+02  0.47787238428E+02  0.19999851288E+02 0.  0.
         12    1    1    2    0    0 -0.31770803140E+01 -0.32506125356E+02 -0.28581184021E+02  0.43400761572E+02  0.00000000000E+00 0. -1.
         11    1    3    3    0    0  0.10895832343E+02  0.17348138869E+02  0.13546622290E+02  0.24559887223E+02  0.51100000000E-03 0. -1.
        -11    1    3    3    0    0 -0.50251818112E+01  0.52025180298E+01  0.77482771959E+01  0.10599738009E+02  0.51100000000E-03 0.  1.
         12    1    3    3    0    0 -0.26935702177E+01  0.99554684566E+01  0.72862845352E+01  0.12627613196E+02  0.00000000000E+00 0. -1.
</event>
<event>
 7    1  0.2751796E-010  0.4778729E+02  0.7816164E-02  0.1312668E+00
        -11   -1    0    0    0    0  0.00000000000E+00  0.00000000000E+00  0.45593999997E+02  0.45594000000E+02  0.51100000000E-03 0.  1.
         11   -1    0    0    0    0 -0.00000000000E+00 -0.00000000000E+00 -0.45593999997E+02  0.45594000000E+02  0.51100000000E-03 0. -1.
    9900012    2    1    2    0    0  0.22366562216E+02  0.43937475874E+01  0.36933096202E+02  0.47787288966E+02  0.20000081709E+02 0.  0.
         12    1    1    2    0    0 -0.22366562216E+02 -0.43937475874E+01 -0.36933096202E+02  0.43400711034E+02  0.00000000000E+00 0. -1.
         11    1    3    3    0    0  0.64601530308E+01  0.51213442995E+01  0.18008318702E+02  0.19805587276E+02  0.51100000000E-03 0.  1.
        -11    1    3    3    0    0  0.41456280112E+01 -0.62652262999E+01  0.82790607062E+01  0.11179541074E+02  0.51100000000E-03 0. -1.
        -12    1    3    3    0    0  0.11760781174E+02  0.55376295878E+01  0.10645716793E+02  0.16802160615E+02  0.00000000000E+00 0.  1.
</event>
<event>
 7    1  0.2751796E-010  0.4778727E+02  0.7816164E-02  0.1312668E+00
        -11   -1    0    0    0    0  0.00000000000E+00  0.00000000000E+00  0.45593999997E+02  0.45594000000E+02  0.51100000000E-03 0.  1.
         11   -1    0    0    0    0 -0.00000000000E+00 -0.00000000000E+00 -0.45593999997E+02  0.45594000000E+02  0.51100000000E-03 0. -1.
    9900012    2    1    2    0    0  0.20862451993E+02 -0.45957113866E+01  0.37779103931E+02  0.47787272355E+02  0.20000005974E+02 0.  0.
         12    1    1    2    0    0 -0.20862451993E+02  0.45957113866E+01 -0.37779103931E+02  0.43400727645E+02  0.00000000000E+00 0. -1.
         11    1    3    3    0    0  0.33648390754E+01 -0.28785210930E+01 -0.70279877387E+00  0.44835200528E+01  0.51100000000E-03 0. -1.
        -11    1    3    3    0    0  0.92150043959E+01  0.35906236536E+01  0.16806543956E+02  0.19500482154E+02  0.51100000000E-03 0.  1.
         12    1    3    3    0    0  0.82826085216E+01 -0.53078139473E+01  0.21675358749E+02  0.23803270148E+02  0.00000000000E+00 0. -1.
</event>
<event>
 7    1  0.2751796E-010  0.4778727E+02  0.7816164E-02  0.1312668E+00
        -11   -1    0    0    0    0  0.00000000000E+00  0.00000000000E+00  0.45593999997E+02  0.45594000000E+02  0.51100000000E-03 0.  1.
         11   -1    0    0    0    0 -0.00000000000E+00 -0.00000000000E+00 -0.45593999997E+02  0.45594000000E+02  0.51100000000E-03 0. -1.
    9900012    2    1    2    0    0  0.23131539675E+02 -0.95174322609E+01 -0.35467922874E+02  0.47787271924E+02  0.20000004009E+02 0.  0.
         12    1    1    2    0    0 -0.23131539675E+02  0.95174322609E+01  0.35467922874E+02  0.43400728076E+02  0.00000000000E+00 0. -1.
         11    1    3    3    0    0  0.37477304943E+01  0.40197706169E+00 -0.18187940043E+02  0.18574397236E+02  0.51100000000E-03 0. -1.
        -11    1    3    3    0    0  0.58884811006E+01 -0.77135567176E+01 -0.54409193003E+01  0.11125500888E+02  0.51100000000E-03 0.  1.
         12    1    3    3    0    0  0.13495328080E+02 -0.22058526050E+01 -0.11839063531E+02  0.18087373800E+02  0.00000000000E+00 0. -1.
</event>
<event>
 7    1  0.2751796E-010  0.4778727E+02  0.7816164E-02  0.1312668E+00
        -11   -1    0    0    0    0  0.00000000000E+00  0.00000000000E+00  0.45593999997E+02  0.45594000000E+02  0.51100000000E-03 0. -1.
         11   -1    0    0    0    0 -0.00000000000E+00 -0.00000000000E+00 -0.45593999997E+02  0.45594000000E+02  0.51100000000E-03 0.  1.
    9900012    2    1    2    0    0  0.18432312853E+02 -0.39124386661E+02 -0.36270386253E+01  0.47787271919E+02  0.20000003989E+02 0.  0.
         12    1    1    2    0    0 -0.18432312853E+02  0.39124386661E+02  0.36270386253E+01  0.43400728081E+02  0.00000000000E+00 0. -1.
         11    1    3    3    0    0  0.56412297701E+00 -0.80588667225E+01  0.49419469038E+01  0.94702907582E+01  0.51100000000E-03 0. -1.
        -11    1    3    3    0    0  0.60305169809E+01 -0.17008728695E+02 -0.84805540421E+01  0.19939503103E+02  0.51100000000E-03 0.  1.
         12    1    3    3    0    0  0.11837672895E+02 -0.14056791244E+02 -0.88431487036E-01  0.18377478058E+02  0.00000000000E+00 0. -1.
</event>
<event>
 7    1  0.2751796E-010  0.4778725E+02  0.7816164E-02  0.1312668E+00
        -11   -1    0    0    0    0  0.00000000000E+00  0.00000000000E+00  0.45593999997E+02  0.45594000000E+02  0.51100000000E-03 0.  1.
         11   -1    0    0    0    0 -0.00000000000E+00 -0.00000000000E+00 -0.45593999997E+02  0.45594000000E+02  0.51100000000E-03 0. -1.
    9900012    2    1    2    0    0 -0.52099767505E+01 -0.33016376421E+02  0.27683931327E+02  0.47787250888E+02  0.19999908100E+02 0.  0.
         12    1    1    2    0    0  0.52099767505E+01  0.33016376421E+02 -0.27683931327E+02  0.43400749112E+02  0.00000000000E+00 0. -1.
         11    1    3    3    0    0 -0.33067719669E+01 -0.89257553916E+01  0.32370249560E+01  0.10053963446E+02  0.51100000000E-03 0. -1.
        -11    1    3    3    0    0  0.13692395395E+01 -0.51124642244E+01 -0.14245198911E+01  0.54810003233E+01  0.51100000000E-03 0.  1.
        -12    1    3    3    0    0 -0.32724443232E+01 -0.18978156805E+02  0.25871426262E+02  0.32252287119E+02  0.00000000000E+00 0.  1.
</event>
<event>
 7    1  0.2751796E-010  0.4778725E+02  0.7816164E-02  0.1312668E+00
        -11   -1    0    0    0    0  0.00000000000E+00  0.00000000000E+00  0.45593999997E+02  0.45594000000E+02  0.51100000000E-03 0.  1.
         11   -1    0    0    0    0 -0.00000000000E+00 -0.00000000000E+00 -0.45593999997E+02  0.45594000000E+02  0.51100000000E-03 0. -1.
    9900012    2    1    2    0    0 -0.31344372145E+02 -0.25855950460E+02 -0.15252051713E+02  0.47787252071E+02  0.19999913492E+02 0.  0.
         12    1    1    2    0    0  0.31344372145E+02  0.25855950460E+02  0.15252051713E+02  0.43400747929E+02  0.00000000000E+00 0. -1.
         11    1    3    3    0    0 -0.12021546951E+02 -0.32608122528E+01  0.91706767808E+00  0.12489655761E+02  0.51100000000E-03 0. -1.
        -11    1    3    3    0    0 -0.18526169768E+02 -0.17442098088E+02 -0.16045998648E+02  0.30081885328E+02  0.51100000000E-03 0.  1.
         12    1    3    3    0    0 -0.79665542601E+00 -0.51530401184E+01 -0.12312074263E+00  0.52157109819E+01  0.00000000000E+00 0. -1.
</event>
<event>
 7    1  0.2751796E-010  0.4778727E+02  0.7816164E-02  0.1312668E+00
        -11   -1    0    0    0    0  0.00000000000E+00  0.00000000000E+00  0.45593999997E+02  0.45594000000E+02  0.51100000000E-03 0.  1.
         11   -1    0    0    0    0 -0.00000000000E+00 -0.00000000000E+00 -0.45593999997E+02  0.45594000000E+02  0.51100000000E-03 0. -1.
    9900012    2    1    2    0    0 -0.15047452211E+02 -0.14373423488E+02  0.38086768973E+02  0.47787273144E+02  0.20000009573E+02 0.  0.
         12    1    1    2    0    0  0.15047452211E+02  0.14373423488E+02 -0.38086768973E+02  0.43400726856E+02  0.00000000000E+00 0. -1.
         11    1    3    3    0    0  0.31518417341E+01 -0.31285602596E+01  0.10589938290E+02  0.11483413641E+02  0.51100000000E-03 0. -1.
        -11    1    3    3    0    0 -0.32732567595E+00 -0.45559637867E+01  0.43814572708E+01  0.63293851361E+01  0.51100000000E-03 0.  1.
         12    1    3    3    0    0 -0.17871968269E+02 -0.66888994414E+01  0.23115373413E+02  0.29974474366E+02  0.00000000000E+00 0. -1.
</event>
<event>
 7    1  0.2751796E-010  0.4778724E+02  0.7816164E-02  0.1312668E+00
        -11   -1    0    0    0    0  0.00000000000E+00  0.00000000000E+00  0.45593999997E+02  0.45594000000E+02  0.51100000000E-03 0.  1.
         11   -1    0    0    0    0 -0.00000000000E+00 -0.00000000000E+00 -0.45593999997E+02  0.45594000000E+02  0.51100000000E-03 0. -1.
    9900012    2    1    2    0    0 -0.17253088063E+02  0.37061344269E+02  0.14574417200E+02  0.47787240520E+02  0.19999860825E+02 0.  0.
         12    1    1    2    0    0  0.17253088063E+02 -0.37061344269E+02 -0.14574417200E+02  0.43400759480E+02  0.00000000000E+00 0. -1.
         11    1    3    3    0    0 -0.34263560933E+01  0.57077053913E+01  0.60445212831E+01  0.89918882731E+01  0.51100000000E-03 0. -1.
        -11    1    3    3    0    0  0.14029784624E+01  0.11123943601E+02  0.74287676374E+01  0.13449797719E+02  0.51100000000E-03 0.  1.
        -12    1    3    3    0    0 -0.15229710432E+02  0.20229695277E+02  0.11011282796E+01  0.25345554528E+02  0.00000000000E+00 0.  1.
</event>
<event>
 7    1  0.2751796E-010  0.4778727E+02  0.7816164E-02  0.1312668E+00
        -11   -1    0    0    0    0  0.00000000000E+00  0.00000000000E+00  0.45593999997E+02  0.45594000000E+02  0.51100000000E-03 0.  1.
         11   -1    0    0    0    0 -0.00000000000E+00 -0.00000000000E+00 -0.45593999997E+02  0.45594000000E+02  0.51100000000E-03 0. -1.
    9900012    2    1    2    0    0 -0.16298065452E+02  0.15622767664E+02  0.37066497456E+02  0.47787273732E+02  0.20000012252E+02 0.  0.
         12    1    1    2    0    0  0.16298065452E+02 -0.15622767664E+02 -0.37066497456E+02  0.43400726268E+02  0.00000000000E+00 0. -1.
         11    1    3    3    0    0 -0.12034870852E+02  0.15859789019E+02  0.29028305002E+02  0.35199623800E+02  0.51100000000E-03 0.  1.
        -11    1    3    3    0    0 -0.32687195378E+01 -0.16917503554E+01 -0.63701344698E+00  0.37352821947E+01  0.51100000000E-03 0. -1.
        -12    1    3    3    0    0 -0.99447506199E+00  0.14547290003E+01  0.86752059013E+01  0.88523677366E+01  0.00000000000E+00 0.  1.
</event>
<event>
 7    1  0.2751796E-010  0.4778726E+02  0.7816164E-02  0.1312668E+00
        -11   -1    0    0    0    0  0.00000000000E+00  0.00000000000E+00  0.45593999997E+02  0.45594000000E+02  0.51100000000E-03 0. -1.
         11   -1    0    0    0    0 -0.00000000000E+00 -0.00000000000E+00 -0.45593999997E+02  0.45594000000E+02  0.51100000000E-03 0.  1.
    9900012    2    1    2    0    0 -0.42100241603E+02  0.71801024426E+01 -0.77226890310E+01  0.47787261066E+02  0.19999954505E+02 0.  0.
         12    1    1    2    0    0  0.42100241603E+02 -0.71801024426E+01  0.77226890310E+01  0.43400738934E+02  0.00000000000E+00 0. -1.
         11    1    3    3    0    0 -0.33284817417E+02 -0.27723613668E+01 -0.69945972629E+01  0.34124616469E+02  0.51100000000E-03 0.  1.
        -11    1    3    3    0    0 -0.58462205681E+01  0.73966579171E+01  0.78995317824E+00  0.94611241170E+01  0.51100000000E-03 0. -1.
        -12    1    3    3    0    0 -0.29692036185E+01  0.25558058923E+01 -0.15180449462E+01  0.42015204803E+01  0.00000000000E+00 0.  1.
</event>
<event>
 7    1  0.2751796E-010  0.4778728E+02  0.7816164E-02  0.1312668E+00
        -11   -1    0    0    0    0  0.00000000000E+00  0.00000000000E+00  0.45593999997E+02  0.45594000000E+02  0.51100000000E-03 0.  1.
         11   -1    0    0    0    0 -0.00000000000E+00 -0.00000000000E+00 -0.45593999997E+02  0.45594000000E+02  0.51100000000E-03 0. -1.
    9900012    2    1    2    0    0  0.25475436921E+02 -0.12006720485E+02  0.33022162424E+02  0.47787280717E+02  0.20000044102E+02 0.  0.
         12    1    1    2    0    0 -0.25475436921E+02  0.12006720485E+02 -0.33022162424E+02  0.43400719283E+02  0.00000000000E+00 0. -1.
         11    1    3    3    0    0  0.67188153670E+01 -0.10258309786E+02  0.17349125708E+02  0.21245412745E+02  0.51100000000E-03 0. -1.
        -11    1    3    3    0    0  0.13070471052E+02  0.11127013258E+01  0.48497878858E+01  0.13985555425E+02  0.51100000000E-03 0.  1.
        -12    1    3    3    0    0  0.56861505027E+01 -0.28611120239E+01  0.10823248830E+02  0.12556312547E+02  0.00000000000E+00 0.  1.
</event>
<event>
 7    1  0.2751796E-010  0.4778727E+02  0.7816164E-02  0.1312668E+00
        -11   -1    0    0    0    0  0.00000000000E+00  0.00000000000E+00  0.45593999997E+02  0.45594000000E+02  0.51100000000E-03 0.  1.
         11   -1    0    0    0    0 -0.00000000000E+00 -0.00000000000E+00 -0.45593999997E+02  0.45594000000E+02  0.51100000000E-03 0. -1.
    9900012    2    1    2    0    0 -0.13686108558E+01  0.14550974965E+02  0.40865871791E+02  0.47787269069E+02  0.19999990992E+02 0.  0.
         12    1    1    2    0    0  0.13686108558E+01 -0.14550974965E+02 -0.40865871791E+02  0.43400730931E+02  0.00000000000E+00 0. -1.
         11    1    3    3    0    0  0.41923002928E+01  0.40609290637E+01  0.20559720136E+02  0.21372145867E+02  0.51100000000E-03 0. -1.
        -11    1    3    3    0    0 -0.79632217596E+01  0.43829604726E+01  0.66456021570E+01  0.11259985417E+02  0.51100000000E-03 0.  1.
        -12    1    3    3    0    0  0.24023106110E+01  0.61070854286E+01  0.13660549498E+02  0.15155137785E+02  0.00000000000E+00 0.  1.
</event>
<event>
 7    1  0.2751796E-010  0.4778727E+02  0.7816164E-02  0.1312668E+00
        -11   -1    0    0    0    0  0.00000000000E+00  0.00000000000E+00  0.45593999997E+02  0.45594000000E+02  0.51100000000E-03 0. -1.
         11   -1    0    0    0    0 -0.00000000000E+00 -0.00000000000E+00 -0.45593999997E+02  0.45594000000E+02  0.51100000000E-03 0.  1.
    9900012    2    1    2    0    0  0.34861684687E+02  0.15736974938E+02 -0.20509358707E+02  0.47787271504E+02  0.20000002093E+02 0.  0.
         12    1    1    2    0    0 -0.34861684687E+02 -0.15736974938E+02  0.20509358707E+02  0.43400728496E+02  0.00000000000E+00 0. -1.
         11    1    3    3    0    0  0.10675266192E+02 -0.75647794240E+00 -0.25751477320E+01  0.11007495322E+02  0.51100000000E-03 0. -1.
        -11    1    3    3    0    0  0.19500116092E+02  0.17722821406E+02 -0.18039195874E+02  0.31933767617E+02  0.51100000000E-03 0.  1.
        -12    1    3    3    0    0  0.46863024026E+01 -0.12293685251E+01  0.10498489879E+00  0.48460085646E+01  0.00000000000E+00 0.  1.
</event>
<event>
 7    1  0.2751796E-010  0.4778725E+02  0.7816164E-02  0.1312668E+00
        -11   -1    0    0    0    0  0.00000000000E+00  0.00000000000E+00  0.45593999997E+02  0.45594000000E+02  0.51100000000E-03 0.  1.
         11   -1    0    0    0    0 -0.00000000000E+00 -0.00000000000E+00 -0.45593999997E+02  0.45594000000E+02  0.51100000000E-03 0. -1.
    9900012    2    1    2    0    0 -0.22483415362E+02 -0.52098989479E+00  0.37119397061E+02  0.47787250755E+02  0.19999907494E+02 0.  0.
         12    1    1    2    0    0  0.22483415362E+02  0.52098989479E+00 -0.37119397061E+02  0.43400749245E+02  0.00000000000E+00 0. -1.
         11    1    3    3    0    0 -0.96825173473E+01  0.60438012340E+01  0.21770768729E+02  0.24581396357E+02  0.51100000000E-03 0. -1.
        -11    1    3    3    0    0 -0.87802402242E+01  0.71651963481E+00  0.99518332610E+01  0.13290786444E+02  0.51100000000E-03 0.  1.
         12    1    3    3    0    0 -0.40206577910E+01 -0.72813107636E+01  0.53967950704E+01  0.99150679544E+01  0.00000000000E+00 0. -1.
</event>
<event>
 7    1  0.2751796E-010  0.4778726E+02  0.7816164E-02  0.1312668E+00
        -11   -1    0    0    0    0  0.00000000000E+00  0.00000000000E+00  0.45593999997E+02  0.45594000000E+02  0.51100000000E-03 0. -1.
         11   -1    0    0    0    0 -0.00000000000E+00 -0.00000000000E+00 -0.45593999997E+02  0.45594000000E+02  0.51100000000E-03 0.  1.
    9900012    2    1    2    0    0  0.24967060912E+02  0.27515005291E+02 -0.22431990222E+02  0.47787264614E+02  0.19999970679E+02 0.  0.
         12    1    1    2    0    0 -0.24967060912E+02 -0.27515005291E+02  0.22431990222E+02  0.43400735386E+02  0.00000000000E+00 0. -1.
         11    1    3    3    0    0  0.51574277656E+01  0.16595568884E+02 -0.92885198745E+01  0.19705039190E+02  0.51100000000E-03 0.  1.
        -11    1    3    3    0    0  0.48079981812E+01 -0.62538922396E+00  0.31060636824E+00  0.48584395405E+01  0.51100000000E-03 0. -1.
         12    1    3    3    0    0  0.15001634966E+02  0.11544825631E+02 -0.13454076716E+02  0.23223785883E+02  0.00000000000E+00 0. -1.
</event>
<event>
 7    1  0.2751796E-010  0.4778727E+02  0.7816164E-02  0.1312668E+00
        -11   -1    0    0    0    0  0.00000000000E+00  0.00000000000E+00  0.45593999997E+02  0.45594000000E+02  0.51100000000E-03 0.  1.
         11   -1    0    0    0    0 -0.00000000000E+00 -0.00000000000E+00 -0.45593999997E+02  0.45594000000E+02  0.51100000000E-03 0. -1.
    9900012    2    1    2    0    0 -0.32384304340E+02  0.26506903769E+02  0.11500627644E+02  0.47787267850E+02  0.19999985433E+02 0.  0.
         12    1    1    2    0    0  0.32384304340E+02 -0.26506903769E+02 -0.11500627644E+02  0.43400732150E+02  0.00000000000E+00 0. -1.
         11    1    3    3    0    0 -0.65307679649E+01 -0.24949895269E+01  0.36879691338E+01  0.79042406052E+01  0.51100000000E-03 0. -1.
        -11    1    3    3    0    0 -0.17427257583E+02  0.16275344036E+02  0.45759654007E+01  0.24280353992E+02  0.51100000000E-03 0.  1.
        -12    1    3    3    0    0 -0.84262787914E+01  0.12726549260E+02  0.32366931091E+01  0.15602673253E+02  0.00000000000E+00 0.  1.
</event>
<event>
 7    1  0.2751796E-010  0.4778727E+02  0.7816164E-02  0.1312668E+00
        -11   -1    0    0    0    0  0.00000000000E+00  0.00000000000E+00  0.45593999997E+02  0.45594000000E+02  0.51100000000E-03 0.  1.
         11   -1    0    0    0    0 -0.00000000000E+00 -0.00000000000E+00 -0.45593999997E+02  0.45594000000E+02  0.51100000000E-03 0. -1.
    9900012    2    1    2    0    0  0.72531700282E+01  0.42528965708E+02 -0.47224845602E+01  0.47787271204E+02  0.20000000727E+02 0.  0.
         12    1    1    2    0    0 -0.72531700282E+01 -0.42528965708E+02  0.47224845602E+01  0.43400728796E+02  0.00000000000E+00 0. -1.
         11    1    3    3    0    0  0.72720093245E+00 -0.24082377630E+00 -0.83164679758E+00  0.11306873770E+01  0.51100000000E-03 0. -1.
        -11    1    3    3    0    0  0.91383100802E+01  0.11568258455E+02  0.17367268396E+01  0.14844175126E+02  0.51100000000E-03 0.  1.
        -12    1    3    3    0    0 -0.26123409845E+01  0.31201531029E+02 -0.56275646022E+01  0.31812408701E+02  0.00000000000E+00 0.  1.
</event>
<event>
 7    1  0.2751796E-010  0.4778728E+02  0.7816164E-02  0.1312668E+00
        -11   -1    0    0    0    0  0.00000000000E+00  0.00000000000E+00  0.45593999997E+02  0.45594000000E+02  0.51100000000E-03 0.  1.
         11   -1    0    0    0    0 -0.00000000000E+00 -0.00000000000E+00 -0.45593999997E+02  0.45594000000E+02  0.51100000000E-03 0. -1.
    9900012    2    1    2    0    0  0.37788085354E+02  0.11146890353E+02  0.18205220225E+02  0.47787278777E+02  0.20000035254E+02 0.  0.
         12    1    1    2    0    0 -0.37788085354E+02 -0.11146890353E+02 -0.18205220225E+02  0.43400721223E+02  0.00000000000E+00 0. -1.
         11    1    3    3    0    0  0.77070007013E+01  0.82833204056E+01  0.33188693884E+01  0.11790935121E+02  0.51100000000E-03 0. -1.
        -11    1    3    3    0    0  0.27442225357E+02  0.43987877590E+01  0.16720742749E+02  0.32434677501E+02  0.51100000000E-03 0.  1.
        -12    1    3    3    0    0  0.26388592957E+01 -0.15352178112E+01 -0.18343919116E+01  0.35616661544E+01  0.00000000000E+00 0.  1.
</event>
<event>
 7    1  0.2751796E-010  0.4778727E+02  0.7816164E-02  0.1312668E+00
        -11   -1    0    0    0    0  0.00000000000E+00  0.00000000000E+00  0.45593999997E+02  0.45594000000E+02  0.51100000000E-03 0. -1.
         11   -1    0    0    0    0 -0.00000000000E+00 -0.00000000000E+00 -0.45593999997E+02  0.45594000000E+02  0.51100000000E-03 0.  1.
    9900012    2    1    2    0    0 -0.42716523838E+02 -0.73499780407E+01  0.22135380697E+01  0.47787270319E+02  0.19999996694E+02 0.  0.
         12    1    1    2    0    0  0.42716523838E+02  0.73499780407E+01 -0.22135380697E+01  0.43400729681E+02  0.00000000000E+00 0. -1.
         11    1    3    3    0    0 -0.12558229120E+02 -0.52322062804E+01  0.95810778742E+01  0.16639776281E+02  0.51100000000E-03 0.  1.
        -11    1    3    3    0    0 -0.18806036620E+02 -0.18323023686E+01 -0.41646971091E+01  0.19348618752E+02  0.51100000000E-03 0. -1.
        -12    1    3    3    0    0 -0.11352258098E+02 -0.28546939175E+00 -0.32028426955E+01  0.11798875286E+02  0.00000000000E+00 0.  1.
</event>
<event>
 7    1  0.2751796E-010  0.4778727E+02  0.7816164E-02  0.1312668E+00
        -11   -1    0    0    0    0  0.00000000000E+00  0.00000000000E+00  0.45593999997E+02  0.45594000000E+02  0.51100000000E-03 0.  1.
         11   -1    0    0    0    0 -0.00000000000E+00 -0.00000000000E+00 -0.45593999997E+02  0.45594000000E+02  0.51100000000E-03 0. -1.
    9900012    2    1    2    0    0  0.13851597568E+01  0.11301522197E+02  0.41880547952E+02  0.47787269957E+02  0.19999995041E+02 0.  0.
         12    1    1    2    0    0 -0.13851597568E+01 -0.11301522197E+02 -0.41880547952E+02  0.43400730043E+02  0.00000000000E+00 0. -1.
         11    1    3    3    0    0  0.35594148776E-01  0.38640491133E+00 -0.67302507120E+00  0.77687753637E+00  0.51100000000E-03 0. -1.
        -11    1    3    3    0    0  0.90123044025E+01  0.58756072781E+01  0.21315871367E+02  0.23876992355E+02  0.51100000000E-03 0.  1.
        -12    1    3    3    0    0 -0.76627387945E+01  0.50395100074E+01  0.21237701657E+02  0.23133400066E+02  0.00000000000E+00 0.  1.
</event>
<event>
 7    1  0.2751796E-010  0.4778727E+02  0.7816164E-02  0.1312668E+00
        -11   -1    0    0    0    0  0.00000000000E+00  0.00000000000E+00  0.45593999997E+02  0.45594000000E+02  0.51100000000E-03 0.  1.
         11   -1    0    0    0    0 -0.00000000000E+00 -0.00000000000E+00 -0.45593999997E+02  0.45594000000E+02  0.51100000000E-03 0. -1.
    9900012    2    1    2    0    0  0.35426136069E+02  0.24044892336E+02 -0.71032228526E+01  0.47787265684E+02  0.19999975559E+02 0.  0.
         12    1    1    2    0    0 -0.35426136069E+02 -0.24044892336E+02  0.71032228526E+01  0.43400734316E+02  0.00000000000E+00 0. -1.
         11    1    3    3    0    0  0.55109221548E+01  0.11040848761E+02  0.26078807269E+01  0.12612360862E+02  0.51100000000E-03 0. -1.
        -11    1    3    3    0    0  0.21526990420E+02  0.69358373965E+01 -0.29466719907E+01  0.22807894095E+02  0.51100000000E-03 0.  1.
         12    1    3    3    0    0  0.83882234943E+01  0.60682061790E+01 -0.67644315889E+01  0.12367010728E+02  0.00000000000E+00 0. -1.
</event>
<event>
 7    1  0.2751796E-010  0.4778727E+02  0.7816164E-02  0.1312668E+00
        -11   -1    0    0    0    0  0.00000000000E+00  0.00000000000E+00  0.45593999997E+02  0.45594000000E+02  0.51100000000E-03 0. -1.
         11   -1    0    0    0    0 -0.00000000000E+00 -0.00000000000E+00 -0.45593999997E+02  0.45594000000E+02  0.51100000000E-03 0.  1.
    9900012    2    1    2    0    0 -0.36158895514E+02  0.21637770030E+02 -0.10390600801E+02  0.47787269572E+02  0.19999993285E+02 0.  0.
         12    1    1    2    0    0  0.36158895514E+02 -0.21637770030E+02  0.10390600801E+02  0.43400730428E+02  0.00000000000E+00 0. -1.
         11    1    3    3    0    0 -0.17519344352E+02  0.16320419015E+02 -0.14466513611E+02  0.27974336805E+02  0.51100000000E-03 0. -1.
        -11    1    3    3    0    0 -0.15983316185E+02  0.47278235561E+01  0.35474756420E+01  0.17041223417E+02  0.51100000000E-03 0.  1.
         12    1    3    3    0    0 -0.26562349774E+01  0.58952745903E+00  0.52843716815E+00  0.27717093500E+01  0.00000000000E+00 0. -1.
</event>
<event>
 7    1  0.2751796E-010  0.4778727E+02  0.7816164E-02  0.1312668E+00
        -11   -1    0    0    0    0  0.00000000000E+00  0.00000000000E+00  0.45593999997E+02  0.45594000000E+02  0.51100000000E-03 0.  1.
         11   -1    0    0    0    0 -0.00000000000E+00 -0.00000000000E+00 -0.45593999997E+02  0.45594000000E+02  0.51100000000E-03 0. -1.
    9900012    2    1    2    0    0 -0.10743754260E+01 -0.41157468907E+02  0.13730687316E+02  0.47787270702E+02  0.19999998441E+02 0.  0.
         12    1    1    2    0    0  0.10743754260E+01  0.41157468907E+02 -0.13730687316E+02  0.43400729298E+02  0.00000000000E+00 0. -1.
         11    1    3    3    0    0  0.82231524951E+01 -0.25710874819E+02  0.59001666609E+01  0.27631165154E+02  0.51100000000E-03 0. -1.
        -11    1    3    3    0    0 -0.85106283921E+01 -0.15080468057E+02  0.82627051635E+01  0.19186547613E+02  0.51100000000E-03 0.  1.
         12    1    3    3    0    0 -0.78689952902E+00 -0.36612603114E+00 -0.43218450796E+00  0.96955793451E+00  0.00000000000E+00 0. -1.
</event>
<event>
 7    1  0.2751796E-010  0.4778727E+02  0.7816164E-02  0.1312668E+00
        -11   -1    0    0    0    0  0.00000000000E+00  0.00000000000E+00  0.45593999997E+02  0.45594000000E+02  0.51100000000E-03 0.  1.
         11   -1    0    0    0    0 -0.00000000000E+00 -0.00000000000E+00 -0.45593999997E+02  0.45594000000E+02  0.51100000000E-03 0. -1.
    9900012    2    1    2    0    0  0.36325511620E+02 -0.19817033225E+02  0.13090669756E+02  0.47787271493E+02  0.20000002043E+02 0.  0.
         12    1    1    2    0    0 -0.36325511620E+02  0.19817033225E+02 -0.13090669756E+02  0.43400728507E+02  0.00000000000E+00 0. -1.
         11    1    3    3    0    0  0.22736764896E+02 -0.16248154656E+02  0.12030224004E+02  0.30425142523E+02  0.51100000000E-03 0.  1.
        -11    1    3    3    0    0  0.78114998578E+01  0.31524839248E+01 -0.94476892904E-01  0.84241682717E+01  0.51100000000E-03 0. -1.
        -12    1    3    3    0    0  0.57772468662E+01 -0.67213624939E+01  0.11549226445E+01  0.89379606982E+01  0.00000000000E+00 0.  1.
</event>
<event>
 7    1  0.2751796E-010  0.4778727E+02  0.7816164E-02  0.1312668E+00
        -11   -1    0    0    0    0  0.00000000000E+00  0.00000000000E+00  0.45593999997E+02  0.45594000000E+02  0.51100000000E-03 0. -1.
         11   -1    0    0    0    0 -0.00000000000E+00 -0.00000000000E+00 -0.45593999997E+02  0.45594000000E+02  0.51100000000E-03 0.  1.
    9900012    2    1    2    0    0 -0.17616306092E+02  0.39662590689E+02 -0.40977611758E+00  0.47787271239E+02  0.20000000888E+02 0.  0.
         12    1    1    2    0    0  0.17616306092E+02 -0.39662590689E+02  0.40977611758E+00  0.43400728761E+02  0.00000000000E+00 0. -1.
         11    1    3    3    0    0 -0.26154999701E+01  0.16053625598E+02  0.79840403196E+01  0.18119178652E+02  0.51100000000E-03 0. -1.
        -11    1    3    3    0    0 -0.14368067811E+02  0.20177682182E+02 -0.61595192573E+01  0.25524888023E+02  0.51100000000E-03 0.  1.
         12    1    3    3    0    0 -0.63273831116E+00  0.34312829089E+01 -0.22342971799E+01  0.41432045641E+01  0.00000000000E+00 0. -1.
</event>
<event>
 7    1  0.2751796E-010  0.4778726E+02  0.7816164E-02  0.1312668E+00
        -11   -1    0    0    0    0  0.00000000000E+00  0.00000000000E+00  0.45593999997E+02  0.45594000000E+02  0.51100000000E-03 0. -1.
         11   -1    0    0    0    0 -0.00000000000E+00 -0.00000000000E+00 -0.45593999997E+02  0.45594000000E+02  0.51100000000E-03 0.  1.
    9900012    2    1    2    0    0  0.18790665428E+02 -0.35949030754E+02 -0.15433800019E+02  0.47787261499E+02  0.19999956479E+02 0.  0.
         12    1    1    2    0    0 -0.18790665428E+02  0.35949030754E+02  0.15433800019E+02  0.43400738501E+02  0.00000000000E+00 0. -1.
         11    1    3    3    0    0  0.25903296357E+01 -0.89162714716E+01  0.26234998748E+01  0.96484432128E+01  0.51100000000E-03 0. -1.
        -11    1    3    3    0    0  0.75829722827E+01 -0.11317698239E+02 -0.14420277573E+01  0.13699314084E+02  0.51100000000E-03 0.  1.
         12    1    3    3    0    0  0.86173635100E+01 -0.15715061044E+02 -0.16615272137E+02  0.24439504202E+02  0.00000000000E+00 0. -1.
</event>
<event>
 7    1  0.2751796E-010  0.4778727E+02  0.7816164E-02  0.1312668E+00
        -11   -1    0    0    0    0  0.00000000000E+00  0.00000000000E+00  0.45593999997E+02  0.45594000000E+02  0.51100000000E-03 0. -1.
         11   -1    0    0    0    0 -0.00000000000E+00 -0.00000000000E+00 -0.45593999997E+02  0.45594000000E+02  0.51100000000E-03 0.  1.
    9900012    2    1    2    0    0  0.37109971387E+02  0.88683427213E+01 -0.20683950717E+02  0.47787270787E+02  0.19999998825E+02 0.  0.
         12    1    1    2    0    0 -0.37109971387E+02 -0.88683427213E+01  0.20683950717E+02  0.43400729213E+02  0.00000000000E+00 0. -1.
         11    1    3    3    0    0 -0.17807172151E+01 -0.89594798568E+00 -0.31111820643E+01  0.36950143019E+01  0.51100000000E-03 0. -1.
        -11    1    3    3    0    0  0.35674429137E+02  0.10248407799E+02 -0.16837077424E+02  0.40757599698E+02  0.51100000000E-03 0.  1.
         12    1    3    3    0    0  0.32162594652E+01 -0.48411709167E+00 -0.73569122838E+00  0.33346567874E+01  0.00000000000E+00 0. -1.
</event>
<event>
 7    1  0.2751796E-010  0.4778726E+02  0.7816164E-02  0.1312668E+00
        -11   -1    0    0    0    0  0.00000000000E+00  0.00000000000E+00  0.45593999997E+02  0.45594000000E+02  0.51100000000E-03 0.  1.
         11   -1    0    0    0    0 -0.00000000000E+00 -0.00000000000E+00 -0.45593999997E+02  0.45594000000E+02  0.51100000000E-03 0. -1.
    9900012    2    1    2    0    0 -0.41417938905E+02 -0.55545377136E+01  0.11718598390E+02  0.47787261520E+02  0.19999956575E+02 0.  0.
         12    1    1    2    0    0  0.41417938905E+02  0.55545377136E+01 -0.11718598390E+02  0.43400738480E+02  0.00000000000E+00 0. -1.
         11    1    3    3    0    0 -0.45432743063E+01 -0.85924657031E+00 -0.49356141855E+01  0.67631304690E+01  0.51100000000E-03 0. -1.
        -11    1    3    3    0    0 -0.31873169072E+02 -0.49569909672E+01  0.12794745913E+02  0.34701241900E+02  0.51100000000E-03 0.  1.
         12    1    3    3    0    0 -0.50014955273E+01  0.26169982395E+00  0.38594666620E+01  0.63228891516E+01  0.00000000000E+00 0. -1.
</event>
<event>
 7    1  0.2751796E-010  0.4778727E+02  0.7816164E-02  0.1312668E+00
        -11   -1    0    0    0    0  0.00000000000E+00  0.00000000000E+00  0.45593999997E+02  0.45594000000E+02  0.51100000000E-03 0.  1.
         11   -1    0    0    0    0 -0.00000000000E+00 -0.00000000000E+00 -0.45593999997E+02  0.45594000000E+02  0.51100000000E-03 0. -1.
    9900012    2    1    2    0    0  0.29353879551E+02  0.92359080913E+01  0.30605086395E+02  0.47787267792E+02  0.19999985170E+02 0.  0.
         12    1    1    2    0    0 -0.29353879551E+02 -0.92359080913E+01 -0.30605086395E+02  0.43400732208E+02  0.00000000000E+00 0. -1.
         11    1    3    3    0    0  0.13361909803E+02 -0.29085357042E+01  0.15680949151E+02  0.20806065944E+02  0.51100000000E-03 0. -1.
        -11    1    3    3    0    0  0.37547924018E+01  0.89231507559E+01  0.49761249443E+01  0.10884985306E+02  0.51100000000E-03 0.  1.
        -12    1    3    3    0    0  0.12237177346E+02  0.32212930396E+01  0.99480122997E+01  0.16096216542E+02  0.00000000000E+00 0.  1.
</event>
<event>
 7    1  0.2751796E-010  0.4778727E+02  0.7816164E-02  0.1312668E+00
        -11   -1    0    0    0    0  0.00000000000E+00  0.00000000000E+00  0.45593999997E+02  0.45594000000E+02  0.51100000000E-03 0.  1.
         11   -1    0    0    0    0 -0.00000000000E+00 -0.00000000000E+00 -0.45593999997E+02  0.45594000000E+02  0.51100000000E-03 0. -1.
    9900012    2    1    2    0    0 -0.14805370304E+02 -0.30824225313E+01  0.40680740806E+02  0.47787274303E+02  0.20000014856E+02 0.  0.
         12    1    1    2    0    0  0.14805370304E+02  0.30824225313E+01 -0.40680740806E+02  0.43400725697E+02  0.00000000000E+00 0. -1.
         11    1    3    3    0    0 -0.32724068460E+01 -0.43346912112E+01  0.25990435335E+02  0.26551853488E+02  0.51100000000E-03 0. -1.
        -11    1    3    3    0    0 -0.95619039690E+01 -0.26885575460E+01  0.13330511866E+02  0.16624105872E+02  0.51100000000E-03 0.  1.
         12    1    3    3    0    0 -0.19710594891E+01  0.39408262260E+01  0.13597936053E+01  0.46113149428E+01  0.00000000000E+00 0. -1.
</event>
<event>
 7    1  0.2751796E-010  0.4778728E+02  0.7816164E-02  0.1312668E+00
        -11   -1    0    0    0    0  0.00000000000E+00  0.00000000000E+00  0.45593999997E+02  0.45594000000E+02  0.51100000000E-03 0. -1.
         11   -1    0    0    0    0 -0.00000000000E+00 -0.00000000000E+00 -0.45593999997E+02  0.45594000000E+02  0.51100000000E-03 0.  1.
    9900012    2    1    2    0    0 -0.19705095989E+02 -0.10345215515E+00 -0.38669384468E+02  0.47787276441E+02  0.20000024606E+02 0.  0.
         12    1    1    2    0    0  0.19705095989E+02  0.10345215515E+00  0.38669384468E+02  0.43400723559E+02  0.00000000000E+00 0. -1.
         11    1    3    3    0    0 -0.13993148038E+02  0.44675120994E+00 -0.10026318436E+02  0.17220187000E+02  0.51100000000E-03 0. -1.
        -11    1    3    3    0    0  0.21630949612E+01 -0.16317430705E+01 -0.65974138168E+01  0.71321409542E+01  0.51100000000E-03 0.  1.
         12    1    3    3    0    0 -0.78750429115E+01  0.10815397054E+01 -0.22045652216E+02  0.23434948488E+02  0.00000000000E+00 0. -1.
</event>
<event>
 7    1  0.2751796E-010  0.4778725E+02  0.7816164E-02  0.1312668E+00
        -11   -1    0    0    0    0  0.00000000000E+00  0.00000000000E+00  0.45593999997E+02  0.45594000000E+02  0.51100000000E-03 0. -1.
         11   -1    0    0    0    0 -0.00000000000E+00 -0.00000000000E+00 -0.45593999997E+02  0.45594000000E+02  0.51100000000E-03 0.  1.
    9900012    2    1    2    0    0  0.39921769793E+02  0.54924897710E+01 -0.16115528942E+02  0.47787246316E+02  0.19999887251E+02 0.  0.
         12    1    1    2    0    0 -0.39921769793E+02 -0.54924897710E+01  0.16115528942E+02  0.43400753684E+02  0.00000000000E+00 0. -1.
         11    1    3    3    0    0  0.51234089063E+00 -0.17978211519E-01  0.10860434318E+01  0.12009608658E+01  0.51100000000E-03 0. -1.
        -11    1    3    3    0    0  0.21575284813E+01  0.11305310038E+01 -0.74396985319E+01  0.78282912570E+01  0.51100000000E-03 0.  1.
        -12    1    3    3    0    0  0.37251900421E+02  0.43799369787E+01 -0.97618738414E+01  0.38757994193E+02  0.00000000000E+00 0.  1.
</event>
<event>
 7    1  0.2751796E-010  0.4778727E+02  0.7816164E-02  0.1312668E+00
        -11   -1    0    0    0    0  0.00000000000E+00  0.00000000000E+00  0.45593999997E+02  0.45594000000E+02  0.51100000000E-03 0.  1.
         11   -1    0    0    0    0 -0.00000000000E+00 -0.00000000000E+00 -0.45593999997E+02  0.45594000000E+02  0.51100000000E-03 0. -1.
    9900012    2    1    2    0    0  0.24314904427E+02 -0.16787749480E+01  0.35910872566E+02  0.47787266930E+02  0.19999981240E+02 0.  0.
         12    1    1    2    0    0 -0.24314904427E+02  0.16787749480E+01 -0.35910872566E+02  0.43400733070E+02  0.00000000000E+00 0. -1.
         11    1    3    3    0    0  0.29458931464E+01  0.39711760421E+01  0.44704999496E+01  0.66658754600E+01  0.51100000000E-03 0. -1.
        -11    1    3    3    0    0  0.14754236848E+02 -0.98162071040E+01  0.26480718110E+02  0.31863362327E+02  0.51100000000E-03 0.  1.
        -12    1    3    3    0    0  0.66147744319E+01  0.41662561139E+01  0.49596545060E+01  0.92580291428E+01  0.00000000000E+00 0.  1.
</event>
<event>
 7    1  0.2751796E-010  0.4778724E+02  0.7816164E-02  0.1312668E+00
        -11   -1    0    0    0    0  0.00000000000E+00  0.00000000000E+00  0.45593999997E+02  0.45594000000E+02  0.51100000000E-03 0.  1.
         11   -1    0    0    0    0 -0.00000000000E+00 -0.00000000000E+00 -0.45593999997E+02  0.45594000000E+02  0.51100000000E-03 0. -1.
    9900012    2    1    2    0    0 -0.24781677226E+02 -0.40404130863E+00  0.35627670416E+02  0.47787243385E+02  0.19999873890E+02 0.  0.
         12    1    1    2    0    0  0.24781677226E+02  0.40404130863E+00 -0.35627670416E+02  0.43400756615E+02  0.00000000000E+00 0. -1.
         11    1    3    3    0    0 -0.32025040211E+01  0.11430934840E+01 -0.16887439247E+01  0.37966499737E+01  0.51100000000E-03 0. -1.
        -11    1    3    3    0    0 -0.86711189246E+01  0.59690632719E+00  0.23039857321E+02  0.24624776673E+02  0.51100000000E-03 0.  1.
        -12    1    3    3    0    0 -0.12908054280E+02 -0.21440411198E+01  0.14276557019E+02  0.19365816738E+02  0.00000000000E+00 0.  1.
</event>
<event>
 7    1  0.2751796E-010  0.4778727E+02  0.7816164E-02  0.1312668E+00
        -11   -1    0    0    0    0  0.00000000000E+00  0.00000000000E+00  0.45593999997E+02  0.45594000000E+02  0.51100000000E-03 0.  1.
         11   -1    0    0    0    0 -0.00000000000E+00 -0.00000000000E+00 -0.45593999997E+02  0.45594000000E+02  0.51100000000E-03 0. -1.
    9900012    2    1    2    0    0  0.20669353487E+02  0.29308311139E+02  0.24442255134E+02  0.47787272916E+02  0.20000008532E+02 0.  0.
         12    1    1    2    0    0 -0.20669353487E+02 -0.29308311139E+02 -0.24442255134E+02  0.43400727084E+02  0.00000000000E+00 0. -1.
         11    1    3    3    0    0  0.14478880036E+02  0.24647910037E+02  0.87882678924E+01  0.29906372048E+02  0.51100000000E-03 0.  1.
        -11    1    3    3    0    0  0.27957618367E+01  0.34608573869E+01  0.11780068127E+02  0.12592212810E+02  0.51100000000E-03 0. -1.
        -12    1    3    3    0    0  0.33947116138E+01  0.11995437159E+01  0.38739191147E+01  0.52886880580E+01  0.00000000000E+00 0.  1.
</event>
<event>
 7    1  0.2751796E-010  0.4778727E+02  0.7816164E-02  0.1312668E+00
        -11   -1    0    0    0    0  0.00000000000E+00  0.00000000000E+00  0.45593999997E+02  0.45594000000E+02  0.51100000000E-03 0.  1.
         11   -1    0    0    0    0 -0.00000000000E+00 -0.00000000000E+00 -0.45593999997E+02  0.45594000000E+02  0.51100000000E-03 0. -1.
    9900012    2    1    2    0    0 -0.36975031609E+02 -0.45189214563E+01  0.22272167051E+02  0.47787273753E+02  0.20000012349E+02 0.  0.
         12    1    1    2    0    0  0.36975031609E+02  0.45189214563E+01 -0.22272167051E+02  0.43400726247E+02  0.00000000000E+00 0. -1.
         11    1    3    3    0    0 -0.15027692203E+02  0.43738765473E+01  0.89113233608E+01  0.18010386262E+02  0.51100000000E-03 0. -1.
        -11    1    3    3    0    0 -0.20941955377E+02 -0.99702031092E+01  0.85082652558E+01  0.24705485686E+02  0.51100000000E-03 0.  1.
        -12    1    3    3    0    0 -0.10053840294E+01  0.10774051056E+01  0.48525784344E+01  0.50714018053E+01  0.00000000000E+00 0.  1.
</event>
<event>
 7    1  0.2751796E-010  0.4778728E+02  0.7816164E-02  0.1312668E+00
        -11   -1    0    0    0    0  0.00000000000E+00  0.00000000000E+00  0.45593999997E+02  0.45594000000E+02  0.51100000000E-03 0.  1.
         11   -1    0    0    0    0 -0.00000000000E+00 -0.00000000000E+00 -0.45593999997E+02  0.45594000000E+02  0.51100000000E-03 0. -1.
    9900012    2    1    2    0    0  0.17637590489E+02 -0.37560543126E+02  0.12717845382E+02  0.47787278931E+02  0.20000035956E+02 0.  0.
         12    1    1    2    0    0 -0.17637590489E+02  0.37560543126E+02 -0.12717845382E+02  0.43400721069E+02  0.00000000000E+00 0. -1.
         11    1    3    3    0    0  0.94712493408E+00 -0.75016361180E+00 -0.32000414256E+01  0.34205345301E+01  0.51100000000E-03 0. -1.
        -11    1    3    3    0    0  0.13582184119E+02 -0.30105835845E+02  0.89717336182E+01  0.34224685269E+02  0.51100000000E-03 0.  1.
         12    1    3    3    0    0  0.31082814357E+01 -0.67045436694E+01  0.69461531894E+01  0.10142059132E+02  0.00000000000E+00 0. -1.
</event>
<event>
 7    1  0.2751796E-010  0.4778727E+02  0.7816164E-02  0.1312668E+00
        -11   -1    0    0    0    0  0.00000000000E+00  0.00000000000E+00  0.45593999997E+02  0.45594000000E+02  0.51100000000E-03 0. -1.
         11   -1    0    0    0    0 -0.00000000000E+00 -0.00000000000E+00 -0.45593999997E+02  0.45594000000E+02  0.51100000000E-03 0.  1.
    9900012    2    1    2    0    0  0.26577814419E+02  0.22182164092E+02 -0.26176226531E+02  0.47787268917E+02  0.19999990302E+02 0.  0.
         12    1    1    2    0    0 -0.26577814419E+02 -0.22182164092E+02  0.26176226531E+02  0.43400731083E+02  0.00000000000E+00 0. -1.
         11    1    3    3    0    0  0.12638540064E+01  0.66353879658E+00  0.26143131256E+01  0.29786312400E+01  0.51100000000E-03 0. -1.
        -11    1    3    3    0    0  0.32199375201E+01  0.45738106196E+00 -0.55937851336E+01  0.64705198748E+01  0.51100000000E-03 0.  1.
         12    1    3    3    0    0  0.22094022893E+02  0.21061244233E+02 -0.23196754523E+02  0.38338117803E+02  0.00000000000E+00 0. -1.
</event>
<event>
 7    1  0.2751796E-010  0.4778724E+02  0.7816164E-02  0.1312668E+00
        -11   -1    0    0    0    0  0.00000000000E+00  0.00000000000E+00  0.45593999997E+02  0.45594000000E+02  0.51100000000E-03 0. -1.
         11   -1    0    0    0    0 -0.00000000000E+00 -0.00000000000E+00 -0.45593999997E+02  0.45594000000E+02  0.51100000000E-03 0.  1.
    9900012    2    1    2    0    0  0.34613958467E+02 -0.24382828961E+02  0.95382344334E+01  0.47787235202E+02  0.19999836581E+02 0.  0.
         12    1    1    2    0    0 -0.34613958467E+02  0.24382828961E+02 -0.95382344334E+01  0.43400764798E+02  0.00000000000E+00 0. -1.
         11    1    3    3    0    0  0.84430462148E+01 -0.13289259951E+02 -0.18136941416E+01  0.15848626001E+02  0.51100000000E-03 0.  1.
        -11    1    3    3    0    0  0.16046014932E+02 -0.10834848560E+02  0.50478351357E+01  0.20008727554E+02  0.51100000000E-03 0. -1.
         12    1    3    3    0    0  0.10124897321E+02 -0.25872044978E+00  0.63040934393E+01  0.11929881648E+02  0.00000000000E+00 0. -1.
</event>
<event>
 7    1  0.2751796E-010  0.4778726E+02  0.7816164E-02  0.1312668E+00
        -11   -1    0    0    0    0  0.00000000000E+00  0.00000000000E+00  0.45593999997E+02  0.45594000000E+02  0.51100000000E-03 0.  1.
         11   -1    0    0    0    0 -0.00000000000E+00 -0.00000000000E+00 -0.45593999997E+02  0.45594000000E+02  0.51100000000E-03 0. -1.
    9900012    2    1    2    0    0  0.34360694059E+02 -0.19366203435E+02  0.18108480292E+02  0.47787260488E+02  0.19999951869E+02 0.  0.
         12    1    1    2    0    0 -0.34360694059E+02  0.19366203435E+02 -0.18108480292E+02  0.43400739512E+02  0.00000000000E+00 0. -1.
         11    1    3    3    0    0  0.19393027960E+02 -0.14584120429E+02  0.39112058671E+01  0.24578112901E+02  0.51100000000E-03 0. -1.
        -11    1    3    3    0    0  0.14658820148E+02 -0.34613698739E+01  0.83807231493E+01  0.17236548677E+02  0.51100000000E-03 0.  1.
         12    1    3    3    0    0  0.30884595057E+00 -0.13207131320E+01  0.58165512756E+01  0.59725989100E+01  0.00000000000E+00 0. -1.
</event>
<event>
 7    1  0.2751796E-010  0.4778727E+02  0.7816164E-02  0.1312668E+00
        -11   -1    0    0    0    0  0.00000000000E+00  0.00000000000E+00  0.45593999997E+02  0.45594000000E+02  0.51100000000E-03 0. -1.
         11   -1    0    0    0    0 -0.00000000000E+00 -0.00000000000E+00 -0.45593999997E+02  0.45594000000E+02  0.51100000000E-03 0.  1.
    9900012    2    1    2    0    0 -0.14223624352E+02  0.38377870433E+02 -0.14437829956E+02  0.47787270023E+02  0.19999995345E+02 0.  0.
         12    1    1    2    0    0  0.14223624352E+02 -0.38377870433E+02  0.14437829956E+02  0.43400729977E+02  0.00000000000E+00 0. -1.
         11    1    3    3    0    0 -0.19165872269E+01  0.85269995833E+00  0.17966564430E+01  0.27619519280E+01  0.51100000000E-03 0. -1.
        -11    1    3    3    0    0 -0.48018449865E+01  0.32666964127E+02 -0.13554514673E+02  0.35691919657E+02  0.51100000000E-03 0.  1.
        -12    1    3    3    0    0 -0.75051921385E+01  0.48582063472E+01 -0.26799717268E+01  0.93333984381E+01  0.00000000000E+00 0.  1.
</event>
<event>
 7    1  0.2751796E-010  0.4778727E+02  0.7816164E-02  0.1312668E+00
        -11   -1    0    0    0    0  0.00000000000E+00  0.00000000000E+00  0.45593999997E+02  0.45594000000E+02  0.51100000000E-03 0. -1.
         11   -1    0    0    0    0 -0.00000000000E+00 -0.00000000000E+00 -0.45593999997E+02  0.45594000000E+02  0.51100000000E-03 0.  1.
    9900012    2    1    2    0    0 -0.16242143501E+02  0.38444324533E+02 -0.11910075281E+02  0.47787271809E+02  0.20000003485E+02 0.  0.
         12    1    1    2    0    0  0.16242143501E+02 -0.38444324533E+02  0.11910075281E+02  0.43400728191E+02  0.00000000000E+00 0. -1.
         11    1    3    3    0    0 -0.30424620609E-01 -0.17334908893E+01  0.53655003750E+00  0.18148836119E+01  0.51100000000E-03 0. -1.
        -11    1    3    3    0    0 -0.14043423717E+02  0.37430060193E+02 -0.13691514629E+02  0.42257363014E+02  0.51100000000E-03 0.  1.
         12    1    3    3    0    0 -0.21682951634E+01  0.27477552293E+01  0.12448893107E+01  0.37150251832E+01  0.00000000000E+00 0. -1.
</event>
<event>
 7    1  0.2751796E-010  0.4778728E+02  0.7816164E-02  0.1312668E+00
        -11   -1    0    0    0    0  0.00000000000E+00  0.00000000000E+00  0.45593999997E+02  0.45594000000E+02  0.51100000000E-03 0.  1.
         11   -1    0    0    0    0 -0.00000000000E+00 -0.00000000000E+00 -0.45593999997E+02  0.45594000000E+02  0.51100000000E-03 0. -1.
    9900012    2    1    2    0    0  0.29185077060E+02  0.26043148829E+02  0.18804476269E+02  0.47787278213E+02  0.20000032685E+02 0.  0.
         12    1    1    2    0    0 -0.29185077060E+02 -0.26043148829E+02 -0.18804476269E+02  0.43400721787E+02  0.00000000000E+00 0. -1.
         11    1    3    3    0    0  0.39192105883E-01 -0.12936693540E+00  0.57488067404E+01  0.57503957277E+01  0.51100000000E-03 0. -1.
        -11    1    3    3    0    0  0.24413055112E+02  0.19143410572E+02  0.75426158270E+01  0.31927393912E+02  0.51100000000E-03 0.  1.
         12    1    3    3    0    0  0.47328298421E+01  0.70291051918E+01  0.55130537013E+01  0.10109488574E+02  0.00000000000E+00 0. -1.
</event>
<event>
 7    1  0.2751796E-010  0.4778727E+02  0.7816164E-02  0.1312668E+00
        -11   -1    0    0    0    0  0.00000000000E+00  0.00000000000E+00  0.45593999997E+02  0.45594000000E+02  0.51100000000E-03 0.  1.
         11   -1    0    0    0    0 -0.00000000000E+00 -0.00000000000E+00 -0.45593999997E+02  0.45594000000E+02  0.51100000000E-03 0. -1.
    9900012    2    1    2    0    0 -0.26221298699E+02  0.76632662037E+01  0.33724490862E+02  0.47787269151E+02  0.19999991366E+02 0.  0.
         12    1    1    2    0    0  0.26221298699E+02 -0.76632662037E+01 -0.33724490862E+02  0.43400730849E+02  0.00000000000E+00 0. -1.
         11    1    3    3    0    0  0.20533822963E+00  0.36227599883E+01  0.61855210628E+01  0.71712777662E+01  0.51100000000E-03 0. -1.
        -11    1    3    3    0    0 -0.20263929644E+02  0.10211977252E+01  0.26942041776E+02  0.33727485894E+02  0.51100000000E-03 0.  1.
        -12    1    3    3    0    0 -0.61627072839E+01  0.30193084901E+01  0.59692802328E+00  0.68885054904E+01  0.00000000000E+00 0.  1.
</event>
<event>
 7    1  0.2751796E-010  0.4778727E+02  0.7816164E-02  0.1312668E+00
        -11   -1    0    0    0    0  0.00000000000E+00  0.00000000000E+00  0.45593999997E+02  0.45594000000E+02  0.51100000000E-03 0. -1.
         11   -1    0    0    0    0 -0.00000000000E+00 -0.00000000000E+00 -0.45593999997E+02  0.45594000000E+02  0.51100000000E-03 0.  1.
    9900012    2    1    2    0    0 -0.33036973726E+02 -0.28114990373E+02 -0.13149002513E+01  0.47787270982E+02  0.19999999715E+02 0.  0.
         12    1    1    2    0    0  0.33036973726E+02  0.28114990373E+02  0.13149002513E+01  0.43400729018E+02  0.00000000000E+00 0. -1.
         11    1    3    3    0    0 -0.77177726181E+01 -0.21341259833E+01 -0.23314665640E+01  0.83399187345E+01  0.51100000000E-03 0. -1.
        -11    1    3    3    0    0 -0.14406708212E+02 -0.18412217528E+02 -0.63967387097E+01  0.24238012753E+02  0.51100000000E-03 0.  1.
        -12    1    3    3    0    0 -0.10912492895E+02 -0.75686468616E+01  0.74133050225E+01  0.15209339495E+02  0.00000000000E+00 0.  1.
</event>
<event>
 7    1  0.2751796E-010  0.4778727E+02  0.7816164E-02  0.1312668E+00
        -11   -1    0    0    0    0  0.00000000000E+00  0.00000000000E+00  0.45593999997E+02  0.45594000000E+02  0.51100000000E-03 0.  1.
         11   -1    0    0    0    0 -0.00000000000E+00 -0.00000000000E+00 -0.45593999997E+02  0.45594000000E+02  0.51100000000E-03 0. -1.
    9900012    2    1    2    0    0  0.30875948814E+01 -0.28157288263E+02  0.32882474769E+02  0.47787271073E+02  0.20000000132E+02 0.  0.
         12    1    1    2    0    0 -0.30875948814E+01  0.28157288263E+02 -0.32882474769E+02  0.43400728927E+02  0.00000000000E+00 0. -1.
         11    1    3    3    0    0  0.65280833312E+01 -0.22556911178E+01  0.96868437454E+01  0.11897014601E+02  0.51100000000E-03 0. -1.
        -11    1    3    3    0    0  0.12179540556E+01 -0.16268322046E+02  0.16831822141E+02  0.23440391446E+02  0.51100000000E-03 0.  1.
         12    1    3    3    0    0 -0.46584425054E+01 -0.96332750982E+01  0.63638088822E+01  0.12449865027E+02  0.00000000000E+00 0. -1.
</event>
<event>
 7    1  0.2751796E-010  0.4778727E+02  0.7816164E-02  0.1312668E+00
        -11   -1    0    0    0    0  0.00000000000E+00  0.00000000000E+00  0.45593999997E+02  0.45594000000E+02  0.51100000000E-03 0.  1.
         11   -1    0    0    0    0 -0.00000000000E+00 -0.00000000000E+00 -0.45593999997E+02  0.45594000000E+02  0.51100000000E-03 0. -1.
    9900012    2    1    2    0    0  0.13476659761E+02  0.32225312184E+02  0.25759123773E+02  0.47787267734E+02  0.19999984905E+02 0.  0.
         12    1    1    2    0    0 -0.13476659761E+02 -0.32225312184E+02 -0.25759123773E+02  0.43400732266E+02  0.00000000000E+00 0. -1.
         11    1    3    3    0    0 -0.34742173773E+01  0.10771767339E+02  0.49229313364E+01  0.12342463741E+02  0.51100000000E-03 0. -1.
        -11    1    3    3    0    0  0.92956308285E+01  0.86633330692E+01  0.14410682579E+02  0.19212752666E+02  0.51100000000E-03 0.  1.
        -12    1    3    3    0    0  0.76552463098E+01  0.12790211776E+02  0.64255098580E+01  0.16232051327E+02  0.00000000000E+00 0.  1.
</event>
<event>
 7    1  0.2751796E-010  0.4778727E+02  0.7816164E-02  0.1312668E+00
        -11   -1    0    0    0    0  0.00000000000E+00  0.00000000000E+00  0.45593999997E+02  0.45594000000E+02  0.51100000000E-03 0.  1.
         11   -1    0    0    0    0 -0.00000000000E+00 -0.00000000000E+00 -0.45593999997E+02  0.45594000000E+02  0.51100000000E-03 0. -1.
    9900012    2    1    2    0    0  0.25301559539E+01 -0.17760653252E+01  0.43290496667E+02  0.47787271908E+02  0.20000003939E+02 0.  0.
         12    1    1    2    0    0 -0.25301559539E+01  0.17760653252E+01 -0.43290496667E+02  0.43400728092E+02  0.00000000000E+00 0. -1.
         11    1    3    3    0    0  0.12446710663E+01 -0.56929820616E+01  0.35852697462E+01  0.68420326096E+01  0.51100000000E-03 0. -1.
        -11    1    3    3    0    0  0.71659787304E+00  0.24649716463E+00  0.34721064373E+02  0.34729333204E+02  0.51100000000E-03 0.  1.
        -12    1    3    3    0    0  0.56888701453E+00  0.36704195717E+01  0.49841625480E+01  0.62159060943E+01  0.00000000000E+00 0.  1.
</event>
<event>
 7    1  0.2751796E-010  0.4778728E+02  0.7816164E-02  0.1312668E+00
        -11   -1    0    0    0    0  0.00000000000E+00  0.00000000000E+00  0.45593999997E+02  0.45594000000E+02  0.51100000000E-03 0.  1.
         11   -1    0    0    0    0 -0.00000000000E+00 -0.00000000000E+00 -0.45593999997E+02  0.45594000000E+02  0.51100000000E-03 0. -1.
    9900012    2    1    2    0    0 -0.19697679172E+02  0.49421831511E+01  0.38356208251E+02  0.47787280531E+02  0.20000043253E+02 0.  0.
         12    1    1    2    0    0  0.19697679172E+02 -0.49421831511E+01 -0.38356208251E+02  0.43400719469E+02  0.00000000000E+00 0. -1.
         11    1    3    3    0    0  0.30622349874E+01 -0.53168638718E-01  0.79801092408E+01  0.85476460957E+01  0.51100000000E-03 0. -1.
        -11    1    3    3    0    0 -0.93954913852E+01  0.34493101246E+01  0.68167024950E+01  0.12109518235E+02  0.51100000000E-03 0.  1.
         12    1    3    3    0    0 -0.13364422774E+02  0.15460416651E+01  0.23559396515E+02  0.27130116201E+02  0.00000000000E+00 0. -1.
</event>
<event>
 7    1  0.2751796E-010  0.4778728E+02  0.7816164E-02  0.1312668E+00
        -11   -1    0    0    0    0  0.00000000000E+00  0.00000000000E+00  0.45593999997E+02  0.45594000000E+02  0.51100000000E-03 0.  1.
         11   -1    0    0    0    0 -0.00000000000E+00 -0.00000000000E+00 -0.45593999997E+02  0.45594000000E+02  0.51100000000E-03 0. -1.
    9900012    2    1    2    0    0 -0.11324933928E+02  0.11792302110E+02  0.40203359901E+02  0.47787278060E+02  0.20000031989E+02 0.  0.
         12    1    1    2    0    0  0.11324933928E+02 -0.11792302110E+02 -0.40203359901E+02  0.43400721940E+02  0.00000000000E+00 0. -1.
         11    1    3    3    0    0  0.43098448503E+01  0.31883250050E+01  0.23766670063E+01  0.58641900797E+01  0.51100000000E-03 0. -1.
        -11    1    3    3    0    0 -0.92668271497E+01  0.66728236149E+01  0.24092913908E+02  0.26662129721E+02  0.51100000000E-03 0.  1.
         12    1    3    3    0    0 -0.63679516290E+01  0.19311534901E+01  0.13733778987E+02  0.15260958260E+02  0.00000000000E+00 0. -1.
</event>
<event>
 7    1  0.2751796E-010  0.4778728E+02  0.7816164E-02  0.1312668E+00
        -11   -1    0    0    0    0  0.00000000000E+00  0.00000000000E+00  0.45593999997E+02  0.45594000000E+02  0.51100000000E-03 0.  1.
         11   -1    0    0    0    0 -0.00000000000E+00 -0.00000000000E+00 -0.45593999997E+02  0.45594000000E+02  0.51100000000E-03 0. -1.
    9900012    2    1    2    0    0  0.10719611153E+02  0.41135513900E+02 -0.87511305276E+01  0.47787275898E+02  0.20000022130E+02 0.  0.
         12    1    1    2    0    0 -0.10719611153E+02 -0.41135513900E+02  0.87511305276E+01  0.43400724102E+02  0.00000000000E+00 0. -1.
         11    1    3    3    0    0 -0.32769380549E+01  0.42995975775E+00 -0.15772547718E+01  0.36620924736E+01  0.51100000000E-03 0. -1.
        -11    1    3    3    0    0  0.79570275607E+01  0.31762870213E+02 -0.51850235807E+01  0.33152355596E+02  0.51100000000E-03 0.  1.
        -12    1    3    3    0    0  0.60395216471E+01  0.89426839288E+01 -0.19888521752E+01  0.10972827828E+02  0.00000000000E+00 0.  1.
</event>
<event>
 7    1  0.2751796E-010  0.4778727E+02  0.7816164E-02  0.1312668E+00
        -11   -1    0    0    0    0  0.00000000000E+00  0.00000000000E+00  0.45593999997E+02  0.45594000000E+02  0.51100000000E-03 0. -1.
         11   -1    0    0    0    0 -0.00000000000E+00 -0.00000000000E+00 -0.45593999997E+02  0.45594000000E+02  0.51100000000E-03 0.  1.
    9900012    2    1    2    0    0 -0.28785737858E+02  0.18182286489E+00 -0.32480324342E+02  0.47787271516E+02  0.20000002150E+02 0.  0.
         12    1    1    2    0    0  0.28785737858E+02 -0.18182286489E+00  0.32480324342E+02  0.43400728484E+02  0.00000000000E+00 0. -1.
         11    1    3    3    0    0 -0.88800192315E-01  0.32303827593E+00  0.64596654880E+00  0.72767592042E+00  0.51100000000E-03 0. -1.
        -11    1    3    3    0    0  0.49775566374E+00  0.27908339735E+01 -0.78009539552E+01  0.83000842069E+01  0.51100000000E-03 0.  1.
        -12    1    3    3    0    0 -0.29194693330E+02 -0.29320493846E+01 -0.25325336935E+02  0.38759511389E+02  0.00000000000E+00 0.  1.
</event>
<event>
 7    1  0.2751796E-010  0.4778727E+02  0.7816164E-02  0.1312668E+00
        -11   -1    0    0    0    0  0.00000000000E+00  0.00000000000E+00  0.45593999997E+02  0.45594000000E+02  0.51100000000E-03 0.  1.
         11   -1    0    0    0    0 -0.00000000000E+00 -0.00000000000E+00 -0.45593999997E+02  0.45594000000E+02  0.51100000000E-03 0. -1.
    9900012    2    1    2    0    0  0.27945103119E+02  0.24292987983E+02  0.22639460947E+02  0.47787271373E+02  0.20000001496E+02 0.  0.
         12    1    1    2    0    0 -0.27945103119E+02 -0.24292987983E+02 -0.22639460947E+02  0.43400728627E+02  0.00000000000E+00 0. -1.
         11    1    3    3    0    0  0.27077598906E+02  0.14327611779E+02  0.17158036664E+02  0.35112320406E+02  0.51100000000E-03 0.  1.
        -11    1    3    3    0    0 -0.13441739945E+01  0.43523879047E+01  0.47385996173E-01  0.45554725215E+01  0.51100000000E-03 0. -1.
        -12    1    3    3    0    0  0.22116782069E+01  0.56129882988E+01  0.54340382859E+01  0.81194784454E+01  0.00000000000E+00 0.  1.
</event>
<event>
 7    1  0.2751796E-010  0.4778726E+02  0.7816164E-02  0.1312668E+00
        -11   -1    0    0    0    0  0.00000000000E+00  0.00000000000E+00  0.45593999997E+02  0.45594000000E+02  0.51100000000E-03 0.  1.
         11   -1    0    0    0    0 -0.00000000000E+00 -0.00000000000E+00 -0.45593999997E+02  0.45594000000E+02  0.51100000000E-03 0. -1.
    9900012    2    1    2    0    0 -0.35569123683E+02  0.11403715247E+02  0.22100149661E+02  0.47787263877E+02  0.19999967321E+02 0.  0.
         12    1    1    2    0    0  0.35569123683E+02 -0.11403715247E+02 -0.22100149661E+02  0.43400736123E+02  0.00000000000E+00 0. -1.
         11    1    3    3    0    0 -0.34802827174E-01 -0.16943402932E+01 -0.13598307007E+01  0.21728184603E+01  0.51100000000E-03 0. -1.
        -11    1    3    3    0    0 -0.79351485826E+01 -0.93097390946E+00  0.31555434438E+01  0.85901542556E+01  0.51100000000E-03 0.  1.
         12    1    3    3    0    0 -0.27599172273E+02  0.14029029450E+02  0.20304436917E+02  0.37024291161E+02  0.00000000000E+00 0. -1.
</event>
<event>
 7    1  0.2751796E-010  0.4778727E+02  0.7816164E-02  0.1312668E+00
        -11   -1    0    0    0    0  0.00000000000E+00  0.00000000000E+00  0.45593999997E+02  0.45594000000E+02  0.51100000000E-03 0.  1.
         11   -1    0    0    0    0 -0.00000000000E+00 -0.00000000000E+00 -0.45593999997E+02  0.45594000000E+02  0.51100000000E-03 0. -1.
    9900012    2    1    2    0    0  0.20152977635E+02  0.67881600052E+01  0.37833870473E+02  0.47787269836E+02  0.19999994490E+02 0.  0.
         12    1    1    2    0    0 -0.20152977635E+02 -0.67881600052E+01 -0.37833870473E+02  0.43400730164E+02  0.00000000000E+00 0. -1.
         11    1    3    3    0    0  0.75192125694E+01  0.80434473023E+01  0.72972702544E+01  0.13209305644E+02  0.51100000000E-03 0. -1.
        -11    1    3    3    0    0  0.10467871227E+02 -0.35180207911E+01  0.14436235096E+02  0.18175744340E+02  0.51100000000E-03 0.  1.
        -12    1    3    3    0    0  0.21658938387E+01  0.22627334939E+01  0.16100365123E+02  0.16402219852E+02  0.00000000000E+00 0.  1.
</event>
<event>
 7    1  0.2751796E-010  0.4778727E+02  0.7816164E-02  0.1312668E+00
        -11   -1    0    0    0    0  0.00000000000E+00  0.00000000000E+00  0.45593999997E+02  0.45594000000E+02  0.51100000000E-03 0.  1.
         11   -1    0    0    0    0 -0.00000000000E+00 -0.00000000000E+00 -0.45593999997E+02  0.45594000000E+02  0.51100000000E-03 0. -1.
    9900012    2    1    2    0    0 -0.27490115465E+02 -0.25749215046E+02  0.21561424912E+02  0.47787267656E+02  0.19999984550E+02 0.  0.
         12    1    1    2    0    0  0.27490115465E+02  0.25749215046E+02 -0.21561424912E+02  0.43400732344E+02  0.00000000000E+00 0. -1.
         11    1    3    3    0    0 -0.52745438546E+01 -0.13298648844E+02  0.38000835333E+01  0.14802550762E+02  0.51100000000E-03 0. -1.
        -11    1    3    3    0    0 -0.15740585189E+02 -0.36469993988E+01  0.14142781989E+02  0.21472887774E+02  0.51100000000E-03 0.  1.
        -12    1    3    3    0    0 -0.64749864217E+01 -0.88035668034E+01  0.36185593900E+01  0.11511829120E+02  0.00000000000E+00 0.  1.
</event>
<event>
 7    1  0.2751796E-010  0.4778729E+02  0.7816164E-02  0.1312668E+00
        -11   -1    0    0    0    0  0.00000000000E+00  0.00000000000E+00  0.45593999997E+02  0.45594000000E+02  0.51100000000E-03 0.  1.
         11   -1    0    0    0    0 -0.00000000000E+00 -0.00000000000E+00 -0.45593999997E+02  0.45594000000E+02  0.51100000000E-03 0. -1.
    9900012    2    1    2    0    0 -0.26456242271E+01  0.15670262721E+02  0.40386450601E+02  0.47787287409E+02  0.20000074613E+02 0.  0.
         12    1    1    2    0    0  0.26456242271E+01 -0.15670262721E+02 -0.40386450601E+02  0.43400712591E+02  0.00000000000E+00 0. -1.
         11    1    3    3    0    0  0.29691967713E+01  0.88042098936E+01  0.61680034171E+01  0.11152331941E+02  0.51100000000E-03 0. -1.
        -11    1    3    3    0    0 -0.63295986307E+01  0.23263452450E+01  0.28560187059E+02  0.29345527532E+02  0.51100000000E-03 0.  1.
        -12    1    3    3    0    0  0.71477763228E+00  0.45397075820E+01  0.56582601240E+01  0.72894279353E+01  0.00000000000E+00 0.  1.
</event>
<event>
 7    1  0.2751796E-010  0.4778727E+02  0.7816164E-02  0.1312668E+00
        -11   -1    0    0    0    0  0.00000000000E+00  0.00000000000E+00  0.45593999997E+02  0.45594000000E+02  0.51100000000E-03 0.  1.
         11   -1    0    0    0    0 -0.00000000000E+00 -0.00000000000E+00 -0.45593999997E+02  0.45594000000E+02  0.51100000000E-03 0. -1.
    9900012    2    1    2    0    0 -0.25152979250E+01  0.17684016265E+02  0.39554673833E+02  0.47787269857E+02  0.19999994585E+02 0.  0.
         12    1    1    2    0    0  0.25152979250E+01 -0.17684016265E+02 -0.39554673833E+02  0.43400730143E+02  0.00000000000E+00 0. -1.
         11    1    3    3    0    0  0.57764750509E+01  0.18295510547E+01  0.34416121279E+01  0.69684729587E+01  0.51100000000E-03 0. -1.
        -11    1    3    3    0    0 -0.37430291485E+01  0.13013717496E+02  0.23679116998E+02  0.27277604227E+02  0.51100000000E-03 0.  1.
         12    1    3    3    0    0 -0.45487438275E+01  0.28407477144E+01  0.12433944707E+02  0.13541192671E+02  0.00000000000E+00 0. -1.
</event>
<event>
 7    1  0.2751796E-010  0.4778727E+02  0.7816164E-02  0.1312668E+00
        -11   -1    0    0    0    0  0.00000000000E+00  0.00000000000E+00  0.45593999997E+02  0.45594000000E+02  0.51100000000E-03 0.  1.
         11   -1    0    0    0    0 -0.00000000000E+00 -0.00000000000E+00 -0.45593999997E+02  0.45594000000E+02  0.51100000000E-03 0. -1.
    9900012    2    1    2    0    0  0.17674485575E+02 -0.32169435909E+02  0.23159519116E+02  0.47787269906E+02  0.19999994808E+02 0.  0.
         12    1    1    2    0    0 -0.17674485575E+02  0.32169435909E+02 -0.23159519116E+02  0.43400730094E+02  0.00000000000E+00 0. -1.
         11    1    3    3    0    0 -0.23281664766E+01 -0.44031333268E+01 -0.20164909963E+00  0.49848374955E+01  0.51100000000E-03 0. -1.
        -11    1    3    3    0    0  0.15514740570E+02 -0.21986860273E+02  0.12414369742E+02  0.29635211759E+02  0.51100000000E-03 0.  1.
        -12    1    3    3    0    0  0.44879114817E+01 -0.57794423087E+01  0.10946798473E+02  0.13167220651E+02  0.00000000000E+00 0.  1.
</event>
<event>
 7    1  0.2751796E-010  0.4778728E+02  0.7816164E-02  0.1312668E+00
        -11   -1    0    0    0    0  0.00000000000E+00  0.00000000000E+00  0.45593999997E+02  0.45594000000E+02  0.51100000000E-03 0.  1.
         11   -1    0    0    0    0 -0.00000000000E+00 -0.00000000000E+00 -0.45593999997E+02  0.45594000000E+02  0.51100000000E-03 0. -1.
    9900012    2    1    2    0    0 -0.11624207410E+02  0.23468309082E+02  0.34608368193E+02  0.47787275605E+02  0.20000020792E+02 0.  0.
         12    1    1    2    0    0  0.11624207410E+02 -0.23468309082E+02 -0.34608368193E+02  0.43400724395E+02  0.00000000000E+00 0. -1.
         11    1    3    3    0    0  0.19294932754E+00  0.16575142268E+02  0.15506967034E+02  0.22698867758E+02  0.51100000000E-03 0. -1.
        -11    1    3    3    0    0 -0.96498966956E+01  0.89884968309E+01  0.16363409113E+02  0.21016059087E+02  0.51100000000E-03 0.  1.
         12    1    3    3    0    0 -0.21672600421E+01 -0.20953300171E+01  0.27379920465E+01  0.40723487593E+01  0.00000000000E+00 0. -1.
</event>
<event>
 7    1  0.2751796E-010  0.4778727E+02  0.7816164E-02  0.1312668E+00
        -11   -1    0    0    0    0  0.00000000000E+00  0.00000000000E+00  0.45593999997E+02  0.45594000000E+02  0.51100000000E-03 0.  1.
         11   -1    0    0    0    0 -0.00000000000E+00 -0.00000000000E+00 -0.45593999997E+02  0.45594000000E+02  0.51100000000E-03 0. -1.
    9900012    2    1    2    0    0 -0.78983611446E+01 -0.39052493290E+02  0.17208776873E+02  0.47787270255E+02  0.19999996400E+02 0.  0.
         12    1    1    2    0    0  0.78983611446E+01  0.39052493290E+02 -0.17208776873E+02  0.43400729745E+02  0.00000000000E+00 0. -1.
         11    1    3    3    0    0 -0.63570798479E+01 -0.68611489430E+01 -0.21801440497E+01  0.96042103969E+01  0.51100000000E-03 0. -1.
        -11    1    3    3    0    0 -0.38293126025E+01 -0.23973904407E+02  0.15535944330E+02  0.28823207559E+02  0.51100000000E-03 0.  1.
         12    1    3    3    0    0  0.22880313058E+01 -0.82174399401E+01  0.38529765926E+01  0.93598522985E+01  0.00000000000E+00 0. -1.
</event>
<event>
 7    1  0.2751796E-010  0.4778727E+02  0.7816164E-02  0.1312668E+00
        -11   -1    0    0    0    0  0.00000000000E+00  0.00000000000E+00  0.45593999997E+02  0.45594000000E+02  0.51100000000E-03 0. -1.
         11   -1    0    0    0    0 -0.00000000000E+00 -0.00000000000E+00 -0.45593999997E+02  0.45594000000E+02  0.51100000000E-03 0.  1.
    9900012    2    1    2    0    0 -0.22143294660E+01 -0.31439917302E+02 -0.29837089915E+02  0.47787267408E+02  0.19999983421E+02 0.  0.
         12    1    1    2    0    0  0.22143294660E+01  0.31439917302E+02  0.29837089915E+02  0.43400732592E+02  0.00000000000E+00 0. -1.
         11    1    3    3    0    0 -0.80816505373E+01 -0.99122373476E+01 -0.12749491495E+02  0.18058656049E+02  0.51100000000E-03 0. -1.
        -11    1    3    3    0    0  0.74455741986E+01 -0.10249188894E+02 -0.11195614587E+02  0.16906337107E+02  0.51100000000E-03 0.  1.
        -12    1    3    3    0    0 -0.15782531273E+01 -0.11278491060E+02 -0.58919838325E+01  0.12822274252E+02  0.00000000000E+00 0.  1.
</event>
<event>
 7    1  0.2751796E-010  0.4778727E+02  0.7816164E-02  0.1312668E+00
        -11   -1    0    0    0    0  0.00000000000E+00  0.00000000000E+00  0.45593999997E+02  0.45594000000E+02  0.51100000000E-03 0.  1.
         11   -1    0    0    0    0 -0.00000000000E+00 -0.00000000000E+00 -0.45593999997E+02  0.45594000000E+02  0.51100000000E-03 0. -1.
    9900012    2    1    2    0    0  0.27302439991E+02 -0.33135556952E+01  0.33574105575E+02  0.47787269062E+02  0.19999990963E+02 0.  0.
         12    1    1    2    0    0 -0.27302439991E+02  0.33135556952E+01 -0.33574105575E+02  0.43400730938E+02  0.00000000000E+00 0. -1.
         11    1    3    3    0    0  0.43350238746E+01 -0.58346873746E+01  0.43496530910E+01  0.84708612918E+01  0.51100000000E-03 0. -1.
        -11    1    3    3    0    0  0.20256404829E+02  0.29908494054E+01  0.30121789720E+02  0.36422374071E+02  0.51100000000E-03 0.  1.
        -12    1    3    3    0    0  0.27110112869E+01 -0.46971772605E+00 -0.89733723622E+00  0.28940336998E+01  0.00000000000E+00 0.  1.
</event>
<event>
 7    1  0.2751796E-010  0.4778728E+02  0.7816164E-02  0.1312668E+00
        -11   -1    0    0    0    0  0.00000000000E+00  0.00000000000E+00  0.45593999997E+02  0.45594000000E+02  0.51100000000E-03 0.  1.
         11   -1    0    0    0    0 -0.00000000000E+00 -0.00000000000E+00 -0.45593999997E+02  0.45594000000E+02  0.51100000000E-03 0. -1.
    9900012    2    1    2    0    0 -0.35565075267E+02 -0.67551003582E+01  0.23939861541E+02  0.47787275004E+02  0.20000018051E+02 0.  0.
         12    1    1    2    0    0  0.35565075267E+02  0.67551003582E+01 -0.23939861541E+02  0.43400724996E+02  0.00000000000E+00 0. -1.
         11    1    3    3    0    0 -0.12425233516E+02  0.29556810263E+01  0.17325548100E+02  0.21524337283E+02  0.51100000000E-03 0. -1.
        -11    1    3    3    0    0 -0.20196544708E+02 -0.69031174471E+01  0.57459793867E+01  0.22103613460E+02  0.51100000000E-03 0.  1.
         12    1    3    3    0    0 -0.29432970440E+01 -0.28076639375E+01  0.86833405418E+00  0.41593242606E+01  0.00000000000E+00 0. -1.
</event>
<event>
 7    1  0.2751796E-010  0.4778725E+02  0.7816164E-02  0.1312668E+00
        -11   -1    0    0    0    0  0.00000000000E+00  0.00000000000E+00  0.45593999997E+02  0.45594000000E+02  0.51100000000E-03 0. -1.
         11   -1    0    0    0    0 -0.00000000000E+00 -0.00000000000E+00 -0.45593999997E+02  0.45594000000E+02  0.51100000000E-03 0.  1.
    9900012    2    1    2    0    0  0.24636133620E+02 -0.35523171514E+02  0.38457792686E+01  0.47787253320E+02  0.19999919187E+02 0.  0.
         12    1    1    2    0    0 -0.24636133620E+02  0.35523171514E+02 -0.38457792686E+01  0.43400746680E+02  0.00000000000E+00 0. -1.
         11    1    3    3    0    0  0.13652558019E+02 -0.81452013788E+01  0.10036081311E+01  0.15929340084E+02  0.51100000000E-03 0.  1.
        -11    1    3    3    0    0  0.33231734485E+01 -0.23249168324E-01  0.24086489116E+00  0.33319721562E+01  0.51100000000E-03 0. -1.
         12    1    3    3    0    0  0.76604021533E+01 -0.27354720967E+02  0.26013062464E+01  0.28525941080E+02  0.00000000000E+00 0. -1.
</event>
<event>
 7    1  0.2751796E-010  0.4778727E+02  0.7816164E-02  0.1312668E+00
        -11   -1    0    0    0    0  0.00000000000E+00  0.00000000000E+00  0.45593999997E+02  0.45594000000E+02  0.51100000000E-03 0. -1.
         11   -1    0    0    0    0 -0.00000000000E+00 -0.00000000000E+00 -0.45593999997E+02  0.45594000000E+02  0.51100000000E-03 0.  1.
    9900012    2    1    2    0    0 -0.30472183684E+02 -0.19178388179E+02 -0.24233424383E+02  0.47787269488E+02  0.19999992904E+02 0.  0.
         12    1    1    2    0    0  0.30472183684E+02  0.19178388179E+02  0.24233424383E+02  0.43400730512E+02  0.00000000000E+00 0. -1.
         11    1    3    3    0    0  0.19246658107E+01  0.12718905386E+01 -0.31003140704E-01  0.23071639475E+01  0.51100000000E-03 0. -1.
        -11    1    3    3    0    0 -0.94243126575E+01 -0.73333081298E+01 -0.59574170143E+01  0.13344882725E+02  0.51100000000E-03 0.  1.
         12    1    3    3    0    0 -0.22972536837E+02 -0.13116970588E+02 -0.18245004228E+02  0.32135222816E+02  0.00000000000E+00 0. -1.
</event>
<event>
 7    1  0.2751796E-010  0.4778727E+02  0.7816164E-02  0.1312668E+00
        -11   -1    0    0    0    0  0.00000000000E+00  0.00000000000E+00  0.45593999997E+02  0.45594000000E+02  0.51100000000E-03 0.  1.
         11   -1    0    0    0    0 -0.00000000000E+00 -0.00000000000E+00 -0.45593999997E+02  0.45594000000E+02  0.51100000000E-03 0. -1.
    9900012    2    1    2    0    0  0.79199822278E+01 -0.11613641565E+02  0.41061178884E+02  0.47787271893E+02  0.20000003869E+02 0.  0.
         12    1    1    2    0    0 -0.79199822278E+01  0.11613641565E+02 -0.41061178884E+02  0.43400728107E+02  0.00000000000E+00 0. -1.
         11    1    3    3    0    0  0.69444959020E+01 -0.13869042345E+01  0.31680269087E+02  0.32462116018E+02  0.51100000000E-03 0. -1.
        -11    1    3    3    0    0 -0.27625841185E+01 -0.44501231981E+01  0.40794614789E+01  0.66390868128E+01  0.51100000000E-03 0.  1.
        -12    1    3    3    0    0  0.37380704443E+01 -0.57766141328E+01  0.53014483183E+01  0.86860690624E+01  0.00000000000E+00 0.  1.
</event>
<event>
 7    1  0.2751796E-010  0.4778726E+02  0.7816164E-02  0.1312668E+00
        -11   -1    0    0    0    0  0.00000000000E+00  0.00000000000E+00  0.45593999997E+02  0.45594000000E+02  0.51100000000E-03 0. -1.
         11   -1    0    0    0    0 -0.00000000000E+00 -0.00000000000E+00 -0.45593999997E+02  0.45594000000E+02  0.51100000000E-03 0.  1.
    9900012    2    1    2    0    0  0.25605871150E+02  0.32916100837E+02 -0.12020550123E+02  0.47787263175E+02  0.19999964120E+02 0.  0.
         12    1    1    2    0    0 -0.25605871150E+02 -0.32916100837E+02  0.12020550123E+02  0.43400736825E+02  0.00000000000E+00 0. -1.
         11    1    3    3    0    0  0.25024570438E+02  0.22582243419E+02 -0.10631144846E+02  0.35344137908E+02  0.51100000000E-03 0. -1.
        -11    1    3    3    0    0 -0.24216829161E+01  0.15221080934E+01 -0.12785810949E+01  0.31330705500E+01  0.51100000000E-03 0.  1.
        -12    1    3    3    0    0  0.30029836280E+01  0.88117493250E+01 -0.11082418224E+00  0.93100547172E+01  0.00000000000E+00 0.  1.
</event>
<event>
 7    1  0.2751796E-010  0.4778727E+02  0.7816164E-02  0.1312668E+00
        -11   -1    0    0    0    0  0.00000000000E+00  0.00000000000E+00  0.45593999997E+02  0.45594000000E+02  0.51100000000E-03 0. -1.
         11   -1    0    0    0    0 -0.00000000000E+00 -0.00000000000E+00 -0.45593999997E+02  0.45594000000E+02  0.51100000000E-03 0.  1.
    9900012    2    1    2    0    0 -0.17210576958E+02  0.10297758964E+01 -0.39829118378E+02  0.47787273412E+02  0.20000010793E+02 0.  0.
         12    1    1    2    0    0  0.17210576958E+02 -0.10297758964E+01  0.39829118378E+02  0.43400726588E+02  0.00000000000E+00 0. -1.
         11    1    3    3    0    0 -0.48859632929E+01  0.86835153127E+01 -0.10710618311E+02  0.14628513949E+02  0.51100000000E-03 0. -1.
        -11    1    3    3    0    0 -0.36393350394E+01 -0.13945093162E+01 -0.14653771130E+02  0.15163193079E+02  0.51100000000E-03 0.  1.
         12    1    3    3    0    0 -0.86852786259E+01 -0.62592301001E+01 -0.14464728936E+02  0.17995566383E+02  0.00000000000E+00 0. -1.
</event>
<event>
 7    1  0.2751796E-010  0.4778727E+02  0.7816164E-02  0.1312668E+00
        -11   -1    0    0    0    0  0.00000000000E+00  0.00000000000E+00  0.45593999997E+02  0.45594000000E+02  0.51100000000E-03 0.  1.
         11   -1    0    0    0    0 -0.00000000000E+00 -0.00000000000E+00 -0.45593999997E+02  0.45594000000E+02  0.51100000000E-03 0. -1.
    9900012    2    1    2    0    0  0.38637968198E+02  0.18585305069E+02  0.67318062905E+01  0.47787269972E+02  0.19999995112E+02 0.  0.
         12    1    1    2    0    0 -0.38637968198E+02 -0.18585305069E+02 -0.67318062905E+01  0.43400730028E+02  0.00000000000E+00 0. -1.
         11    1    3    3    0    0  0.24203487064E+02  0.96953577908E+01 -0.18418082977E+01  0.26138114064E+02  0.51100000000E-03 0. -1.
        -11    1    3    3    0    0  0.15313645227E+02  0.92014787257E+01  0.95842029149E+01  0.20273921344E+02  0.51100000000E-03 0.  1.
         12    1    3    3    0    0 -0.87916409219E+00 -0.31153144714E+00 -0.10105883266E+01  0.13752345653E+01  0.00000000000E+00 0. -1.
</event>
<event>
 7    1  0.2751796E-010  0.4778729E+02  0.7816164E-02  0.1312668E+00
        -11   -1    0    0    0    0  0.00000000000E+00  0.00000000000E+00  0.45593999997E+02  0.45594000000E+02  0.51100000000E-03 0. -1.
         11   -1    0    0    0    0 -0.00000000000E+00 -0.00000000000E+00 -0.45593999997E+02  0.45594000000E+02  0.51100000000E-03 0.  1.
    9900012    2    1    2    0    0  0.19746982514E+02 -0.27871021284E+02 -0.26774706247E+02  0.47787285254E+02  0.20000064788E+02 0.  0.
         12    1    1    2    0    0 -0.19746982514E+02  0.27871021284E+02  0.26774706247E+02  0.43400714746E+02  0.00000000000E+00 0. -1.
         11    1    3    3    0    0  0.17383069921E+02 -0.17039769021E+02 -0.21591173041E+02  0.32537725823E+02  0.51100000000E-03 0. -1.
        -11    1    3    3    0    0  0.53052225026E+01 -0.75115608286E+01 -0.56447452733E+01  0.10790369843E+02  0.51100000000E-03 0.  1.
         12    1    3    3    0    0 -0.29413099104E+01 -0.33196914349E+01  0.46121206756E+00  0.44591895882E+01  0.00000000000E+00 0. -1.
</event>
<event>
 7    1  0.2751796E-010  0.4778727E+02  0.7816164E-02  0.1312668E+00
        -11   -1    0    0    0    0  0.00000000000E+00  0.00000000000E+00  0.45593999997E+02  0.45594000000E+02  0.51100000000E-03 0. -1.
         11   -1    0    0    0    0 -0.00000000000E+00 -0.00000000000E+00 -0.45593999997E+02  0.45594000000E+02  0.51100000000E-03 0.  1.
    9900012    2    1    2    0    0 -0.12155408226E+02  0.14680369344E+02 -0.38991740861E+02  0.47787273640E+02  0.20000011836E+02 0.  0.
         12    1    1    2    0    0  0.12155408226E+02 -0.14680369344E+02  0.38991740861E+02  0.43400726360E+02  0.00000000000E+00 0. -1.
         11    1    3    3    0    0 -0.64334440927E+01 -0.38992354072E+01 -0.98350534406E+01  0.12382306574E+02  0.51100000000E-03 0. -1.
        -11    1    3    3    0    0 -0.21978749679E+01  0.10438278442E+02 -0.19930711295E+02  0.22605786078E+02  0.51100000000E-03 0.  1.
         12    1    3    3    0    0 -0.35240891655E+01  0.81413263092E+01 -0.92259761250E+01  0.12799180989E+02  0.00000000000E+00 0. -1.
</event>
<event>
 7    1  0.2751796E-010  0.4778727E+02  0.7816164E-02  0.1312668E+00
        -11   -1    0    0    0    0  0.00000000000E+00  0.00000000000E+00  0.45593999997E+02  0.45594000000E+02  0.51100000000E-03 0. -1.
         11   -1    0    0    0    0 -0.00000000000E+00 -0.00000000000E+00 -0.45593999997E+02  0.45594000000E+02  0.51100000000E-03 0.  1.
    9900012    2    1    2    0    0  0.10755563034E+02  0.39121930036E+02  0.15408306216E+02  0.47787269058E+02  0.19999990942E+02 0.  0.
         12    1    1    2    0    0 -0.10755563034E+02 -0.39121930036E+02 -0.15408306216E+02  0.43400730942E+02  0.00000000000E+00 0. -1.
         11    1    3    3    0    0  0.46073197371E+01  0.20201989908E+02  0.52015924311E+01  0.21363622247E+02  0.51100000000E-03 0. -1.
        -11    1    3    3    0    0  0.24831392932E+01  0.16247728735E+02  0.13731840571E+01  0.16493644367E+02  0.51100000000E-03 0.  1.
         12    1    3    3    0    0  0.36651040035E+01  0.26722113920E+01  0.88335297278E+01  0.99300024437E+01  0.00000000000E+00 0. -1.
</event>
<event>
 7    1  0.2751796E-010  0.4778727E+02  0.7816164E-02  0.1312668E+00
        -11   -1    0    0    0    0  0.00000000000E+00  0.00000000000E+00  0.45593999997E+02  0.45594000000E+02  0.51100000000E-03 0.  1.
         11   -1    0    0    0    0 -0.00000000000E+00 -0.00000000000E+00 -0.45593999997E+02  0.45594000000E+02  0.51100000000E-03 0. -1.
    9900012    2    1    2    0    0 -0.41263818584E+02  0.60911180456E+01  0.11992453738E+02  0.47787269709E+02  0.19999993910E+02 0.  0.
         12    1    1    2    0    0  0.41263818584E+02 -0.60911180456E+01 -0.11992453738E+02  0.43400730291E+02  0.00000000000E+00 0. -1.
         11    1    3    3    0    0 -0.18502520159E+02  0.82329911966E+01  0.12749477539E+02  0.23930620009E+02  0.51100000000E-03 0. -1.
        -11    1    3    3    0    0 -0.92166314127E+01 -0.42282034982E+01 -0.31037982516E+00  0.10144966009E+02  0.51100000000E-03 0.  1.
         12    1    3    3    0    0 -0.13544667012E+02  0.20863303473E+01 -0.44664397589E+00  0.13711683691E+02  0.00000000000E+00 0. -1.
</event>
<event>
 7    1  0.2751796E-010  0.4778727E+02  0.7816164E-02  0.1312668E+00
        -11   -1    0    0    0    0  0.00000000000E+00  0.00000000000E+00  0.45593999997E+02  0.45594000000E+02  0.51100000000E-03 0. -1.
         11   -1    0    0    0    0 -0.00000000000E+00 -0.00000000000E+00 -0.45593999997E+02  0.45594000000E+02  0.51100000000E-03 0.  1.
    9900012    2    1    2    0    0 -0.36045267238E+02 -0.24121049259E+02  0.15927771851E+01  0.47787271357E+02  0.20000001425E+02 0.  0.
         12    1    1    2    0    0  0.36045267238E+02  0.24121049259E+02 -0.15927771851E+01  0.43400728643E+02  0.00000000000E+00 0. -1.
         11    1    3    3    0    0 -0.13383842701E+02 -0.70819281895E+01 -0.52852173425E+01  0.16037907436E+02  0.51100000000E-03 0. -1.
        -11    1    3    3    0    0 -0.15033371711E+02 -0.10534718149E+02 -0.18598762098E+01  0.18451062064E+02  0.51100000000E-03 0.  1.
         12    1    3    3    0    0 -0.76280528257E+01 -0.65044029197E+01  0.87378707375E+01  0.13298301857E+02  0.00000000000E+00 0. -1.
</event>
<event>
 7    1  0.2751796E-010  0.4778727E+02  0.7816164E-02  0.1312668E+00
        -11   -1    0    0    0    0  0.00000000000E+00  0.00000000000E+00  0.45593999997E+02  0.45594000000E+02  0.51100000000E-03 0.  1.
         11   -1    0    0    0    0 -0.00000000000E+00 -0.00000000000E+00 -0.45593999997E+02  0.45594000000E+02  0.51100000000E-03 0. -1.
    9900012    2    1    2    0    0  0.13475944485E+02 -0.68780208510E+01  0.40678194153E+02  0.47787265788E+02  0.19999976034E+02 0.  0.
         12    1    1    2    0    0 -0.13475944485E+02  0.68780208510E+01 -0.40678194153E+02  0.43400734212E+02  0.00000000000E+00 0. -1.
         11    1    3    3    0    0  0.10685701885E+01 -0.61217318058E+01  0.12336695093E+02  0.13813453175E+02  0.51100000000E-03 0. -1.
        -11    1    3    3    0    0  0.15240588239E+02 -0.23008686196E+01  0.22049555721E+02  0.26902647342E+02  0.51100000000E-03 0.  1.
        -12    1    3    3    0    0 -0.28332139417E+01  0.15445795743E+01  0.62919433394E+01  0.70711652708E+01  0.00000000000E+00 0.  1.
</event>
<event>
 7    1  0.2751796E-010  0.4778727E+02  0.7816164E-02  0.1312668E+00
        -11   -1    0    0    0    0  0.00000000000E+00  0.00000000000E+00  0.45593999997E+02  0.45594000000E+02  0.51100000000E-03 0.  1.
         11   -1    0    0    0    0 -0.00000000000E+00 -0.00000000000E+00 -0.45593999997E+02  0.45594000000E+02  0.51100000000E-03 0. -1.
    9900012    2    1    2    0    0  0.76602431067E+01  0.27399228394E+02  0.32775390157E+02  0.47787271423E+02  0.20000001727E+02 0.  0.
         12    1    1    2    0    0 -0.76602431067E+01 -0.27399228394E+02 -0.32775390157E+02  0.43400728577E+02  0.00000000000E+00 0. -1.
         11    1    3    3    0    0 -0.30376228599E+01 -0.18966364563E+01  0.33532865587E+01  0.49060078977E+01  0.51100000000E-03 0. -1.
        -11    1    3    3    0    0  0.84911859350E+01  0.22520329495E+02  0.22524976112E+02  0.32964223458E+02  0.51100000000E-03 0.  1.
         12    1    3    3    0    0  0.22066800316E+01  0.67755353557E+01  0.68971274869E+01  0.99170400669E+01  0.00000000000E+00 0. -1.
</event>
<event>
 7    1  0.2751796E-010  0.4778727E+02  0.7816164E-02  0.1312668E+00
        -11   -1    0    0    0    0  0.00000000000E+00  0.00000000000E+00  0.45593999997E+02  0.45594000000E+02  0.51100000000E-03 0. -1.
         11   -1    0    0    0    0 -0.00000000000E+00 -0.00000000000E+00 -0.45593999997E+02  0.45594000000E+02  0.51100000000E-03 0.  1.
    9900012    2    1    2    0    0 -0.20267644516E+02  0.13512245679E+02 -0.35920255846E+02  0.47787274459E+02  0.20000015567E+02 0.  0.
         12    1    1    2    0    0  0.20267644516E+02 -0.13512245679E+02  0.35920255846E+02  0.43400725541E+02  0.00000000000E+00 0. -1.
         11    1    3    3    0    0  0.16038697645E+01  0.10478898112E+01 -0.41949237947E+01  0.46117087053E+01  0.51100000000E-03 0. -1.
        -11    1    3    3    0    0 -0.13789501861E+02  0.59768106412E+00 -0.21499700820E+02  0.25548869248E+02  0.51100000000E-03 0.  1.
        -12    1    3    3    0    0 -0.80820124191E+01  0.11866674803E+02 -0.10225631231E+02  0.17626696506E+02  0.00000000000E+00 0.  1.
</event>
<event>
 7    1  0.2751796E-010  0.4778723E+02  0.7816164E-02  0.1312668E+00
        -11   -1    0    0    0    0  0.00000000000E+00  0.00000000000E+00  0.45593999997E+02  0.45594000000E+02  0.51100000000E-03 0.  1.
         11   -1    0    0    0    0 -0.00000000000E+00 -0.00000000000E+00 -0.45593999997E+02  0.45594000000E+02  0.51100000000E-03 0. -1.
    9900012    2    1    2    0    0 -0.26459115347E+02  0.28437321118E+02  0.19361332201E+02  0.47787225791E+02  0.19999793672E+02 0.  0.
         12    1    1    2    0    0  0.26459115347E+02 -0.28437321118E+02 -0.19361332201E+02  0.43400774209E+02  0.00000000000E+00 0. -1.
         11    1    3    3    0    0  0.86146502644E+00  0.80081118857E+01  0.52727528595E+01  0.96267284653E+01  0.51100000000E-03 0. -1.
        -11    1    3    3    0    0 -0.21344151177E+02  0.14673855187E+02  0.14802031787E+02  0.29832783323E+02  0.51100000000E-03 0.  1.
        -12    1    3    3    0    0 -0.59764291958E+01  0.57553540454E+01 -0.71345244527E+00  0.83277140028E+01  0.00000000000E+00 0.  1.
</event>
<event>
 7    1  0.2751796E-010  0.4778727E+02  0.7816164E-02  0.1312668E+00
        -11   -1    0    0    0    0  0.00000000000E+00  0.00000000000E+00  0.45593999997E+02  0.45594000000E+02  0.51100000000E-03 0.  1.
         11   -1    0    0    0    0 -0.00000000000E+00 -0.00000000000E+00 -0.45593999997E+02  0.45594000000E+02  0.51100000000E-03 0. -1.
    9900012    2    1    2    0    0  0.40876011173E+02  0.11827326843E+02  0.85375080879E+01  0.47787274268E+02  0.20000014698E+02 0.  0.
         12    1    1    2    0    0 -0.40876011173E+02 -0.11827326843E+02 -0.85375080879E+01  0.43400725732E+02  0.00000000000E+00 0. -1.
         11    1    3    3    0    0  0.65304607343E+01 -0.48028836591E+01  0.22123508246E+01  0.84029224248E+01  0.51100000000E-03 0. -1.
        -11    1    3    3    0    0  0.71372891965E+01  0.44338303530E+00  0.30267363370E+00  0.71574504665E+01  0.51100000000E-03 0.  1.
         12    1    3    3    0    0  0.27208261243E+02  0.16186827467E+02  0.60224836296E+01  0.32226901377E+02  0.00000000000E+00 0. -1.
</event>
<event>
 7    1  0.2751796E-010  0.4778725E+02  0.7816164E-02  0.1312668E+00
        -11   -1    0    0    0    0  0.00000000000E+00  0.00000000000E+00  0.45593999997E+02  0.45594000000E+02  0.51100000000E-03 0.  1.
         11   -1    0    0    0    0 -0.00000000000E+00 -0.00000000000E+00 -0.45593999997E+02  0.45594000000E+02  0.51100000000E-03 0. -1.
    9900012    2    1    2    0    0  0.10899023013E+02 -0.41054883554E+02  0.89068839434E+01  0.47787254063E+02  0.19999922576E+02 0.  0.
         12    1    1    2    0    0 -0.10899023013E+02  0.41054883554E+02 -0.89068839434E+01  0.43400745937E+02  0.00000000000E+00 0. -1.
         11    1    3    3    0    0 -0.29849917441E+01 -0.39096671244E+01  0.44620725170E+01  0.66412170679E+01  0.51100000000E-03 0. -1.
        -11    1    3    3    0    0  0.73801157507E+01 -0.23005690830E+02 -0.21225545819E+01  0.24253518451E+02  0.51100000000E-03 0.  1.
        -12    1    3    3    0    0  0.65038990060E+01 -0.14139525600E+02  0.65673660084E+01  0.16892518544E+02  0.00000000000E+00 0.  1.
</event>
<event>
 7    1  0.2751796E-010  0.4778727E+02  0.7816164E-02  0.1312668E+00
        -11   -1    0    0    0    0  0.00000000000E+00  0.00000000000E+00  0.45593999997E+02  0.45594000000E+02  0.51100000000E-03 0.  1.
         11   -1    0    0    0    0 -0.00000000000E+00 -0.00000000000E+00 -0.45593999997E+02  0.45594000000E+02  0.51100000000E-03 0. -1.
    9900012    2    1    2    0    0  0.16672717639E+01 -0.38069088988E+02  0.20774698283E+02  0.47787269358E+02  0.19999992312E+02 0.  0.
         12    1    1    2    0    0 -0.16672717639E+01  0.38069088988E+02 -0.20774698283E+02  0.43400730642E+02  0.00000000000E+00 0. -1.
         11    1    3    3    0    0  0.37570423148E+01 -0.34486940018E+02  0.17817253360E+02  0.38998960452E+02  0.51100000000E-03 0. -1.
        -11    1    3    3    0    0 -0.74283081636E-01 -0.54021286816E+01  0.27566728184E+01  0.60652912179E+01  0.51100000000E-03 0.  1.
         12    1    3    3    0    0 -0.20154874693E+01  0.18199797122E+01  0.20077210452E+00  0.27230176881E+01  0.00000000000E+00 0. -1.
</event>
<event>
 7    1  0.2751796E-010  0.4778732E+02  0.7816164E-02  0.1312668E+00
        -11   -1    0    0    0    0  0.00000000000E+00  0.00000000000E+00  0.45593999997E+02  0.45594000000E+02  0.51100000000E-03 0. -1.
         11   -1    0    0    0    0 -0.00000000000E+00 -0.00000000000E+00 -0.45593999997E+02  0.45594000000E+02  0.51100000000E-03 0.  1.
    9900012    2    1    2    0    0  0.21019961026E+02 -0.15693428175E+02 -0.34575954506E+02  0.47787319367E+02  0.20000220320E+02 0.  0.
         12    1    1    2    0    0 -0.21019961026E+02  0.15693428175E+02  0.34575954506E+02  0.43400680633E+02  0.00000000000E+00 0. -1.
         11    1    3    3    0    0  0.72349288249E+00  0.43021334074E+01 -0.34783306616E+01  0.55794783142E+01  0.51100000000E-03 0. -1.
        -11    1    3    3    0    0  0.15123021282E+02 -0.15152030074E+02 -0.22328725017E+02  0.30933182009E+02  0.51100000000E-03 0.  1.
         12    1    3    3    0    0  0.51734468611E+01 -0.48435315089E+01 -0.87688988272E+01  0.11274659043E+02  0.00000000000E+00 0. -1.
</event>
<event>
 7    1  0.2751796E-010  0.4778725E+02  0.7816164E-02  0.1312668E+00
        -11   -1    0    0    0    0  0.00000000000E+00  0.00000000000E+00  0.45593999997E+02  0.45594000000E+02  0.51100000000E-03 0. -1.
         11   -1    0    0    0    0 -0.00000000000E+00 -0.00000000000E+00 -0.45593999997E+02  0.45594000000E+02  0.51100000000E-03 0.  1.
    9900012    2    1    2    0    0 -0.21952573884E+00 -0.19434179896E+02 -0.38805787438E+02  0.47787254863E+02  0.19999926221E+02 0.  0.
         12    1    1    2    0    0  0.21952573884E+00  0.19434179896E+02  0.38805787438E+02  0.43400745137E+02  0.00000000000E+00 0. -1.
         11    1    3    3    0    0  0.34069475755E+01  0.20522897040E+01 -0.65074199212E+01  0.76266440263E+01  0.51100000000E-03 0. -1.
        -11    1    3    3    0    0 -0.35096604333E+01 -0.17455191642E+02 -0.31294114454E+02  0.36004486267E+02  0.51100000000E-03 0.  1.
        -12    1    3    3    0    0 -0.11681288111E+00 -0.40312779578E+01 -0.10042530623E+01  0.41561245693E+01  0.00000000000E+00 0.  1.
</event>
<event>
 7    1  0.2751796E-010  0.4778727E+02  0.7816164E-02  0.1312668E+00
        -11   -1    0    0    0    0  0.00000000000E+00  0.00000000000E+00  0.45593999997E+02  0.45594000000E+02  0.51100000000E-03 0. -1.
         11   -1    0    0    0    0 -0.00000000000E+00 -0.00000000000E+00 -0.45593999997E+02  0.45594000000E+02  0.51100000000E-03 0.  1.
    9900012    2    1    2    0    0  0.26127635779E+02  0.34503131445E+02  0.32410430977E+01  0.47787265084E+02  0.19999972822E+02 0.  0.
         12    1    1    2    0    0 -0.26127635779E+02 -0.34503131445E+02 -0.32410430977E+01  0.43400734916E+02  0.00000000000E+00 0. -1.
         11    1    3    3    0    0  0.21450822650E+02  0.23671203828E+02  0.95081730178E+01  0.33329702031E+02  0.51100000000E-03 0. -1.
        -11    1    3    3    0    0  0.16519555098E+00  0.62326835331E+01 -0.47515222009E+01  0.78390431227E+01  0.51100000000E-03 0.  1.
        -12    1    3    3    0    0  0.45116175775E+01  0.45992440839E+01 -0.15156077192E+01  0.66185199303E+01  0.00000000000E+00 0.  1.
</event>
<event>
 7    1  0.2751796E-010  0.4778727E+02  0.7816164E-02  0.1312668E+00
        -11   -1    0    0    0    0  0.00000000000E+00  0.00000000000E+00  0.45593999997E+02  0.45594000000E+02  0.51100000000E-03 0.  1.
         11   -1    0    0    0    0 -0.00000000000E+00 -0.00000000000E+00 -0.45593999997E+02  0.45594000000E+02  0.51100000000E-03 0. -1.
    9900012    2    1    2    0    0  0.14569429627E+02  0.13696089673E+01  0.40859260892E+02  0.47787270640E+02  0.19999998154E+02 0.  0.
         12    1    1    2    0    0 -0.14569429627E+02 -0.13696089673E+01 -0.40859260892E+02  0.43400729360E+02  0.00000000000E+00 0. -1.
         11    1    3    3    0    0  0.25933388978E+01 -0.40521714264E+01  0.19820438328E+02  0.20395962240E+02  0.51100000000E-03 0. -1.
        -11    1    3    3    0    0  0.21058683195E+01  0.24456596871E+01  0.15209580359E+02  0.15548223938E+02  0.51100000000E-03 0.  1.
         12    1    3    3    0    0  0.98702224095E+01  0.29761207066E+01  0.58292422051E+01  0.11843084461E+02  0.00000000000E+00 0. -1.
</event>
<event>
 7    1  0.2751796E-010  0.4778728E+02  0.7816164E-02  0.1312668E+00
        -11   -1    0    0    0    0  0.00000000000E+00  0.00000000000E+00  0.45593999997E+02  0.45594000000E+02  0.51100000000E-03 0.  1.
         11   -1    0    0    0    0 -0.00000000000E+00 -0.00000000000E+00 -0.45593999997E+02  0.45594000000E+02  0.51100000000E-03 0. -1.
    9900012    2    1    2    0    0 -0.21603211826E+02  0.10216430958E+02  0.36229112817E+02  0.47787276063E+02  0.20000022883E+02 0.  0.
         12    1    1    2    0    0  0.21603211826E+02 -0.10216430958E+02 -0.36229112817E+02  0.43400723937E+02  0.00000000000E+00 0. -1.
         11    1    3    3    0    0 -0.11208687294E+02  0.44598760066E+01  0.36874216887E+01  0.12614366564E+02  0.51100000000E-03 0. -1.
        -11    1    3    3    0    0 -0.82885800041E+01  0.69890635846E+01  0.27819676196E+02  0.29857695025E+02  0.51100000000E-03 0.  1.
         12    1    3    3    0    0 -0.21059445282E+01 -0.12325086332E+01  0.47220149322E+01  0.53152144742E+01  0.00000000000E+00 0. -1.
</event>
<event>
 7    1  0.2751796E-010  0.4778728E+02  0.7816164E-02  0.1312668E+00
        -11   -1    0    0    0    0  0.00000000000E+00  0.00000000000E+00  0.45593999997E+02  0.45594000000E+02  0.51100000000E-03 0.  1.
         11   -1    0    0    0    0 -0.00000000000E+00 -0.00000000000E+00 -0.45593999997E+02  0.45594000000E+02  0.51100000000E-03 0. -1.
    9900012    2    1    2    0    0  0.32955068842E+02  0.27079333055E+02  0.80184771805E+01  0.47787276303E+02  0.20000023976E+02 0.  0.
         12    1    1    2    0    0 -0.32955068842E+02 -0.27079333055E+02 -0.80184771805E+01  0.43400723697E+02  0.00000000000E+00 0. -1.
         11    1    3    3    0    0  0.52237520071E+01  0.44086852613E+01 -0.70049564979E+00  0.68713015638E+01  0.51100000000E-03 0. -1.
        -11    1    3    3    0    0  0.60195646108E+01  0.78909031627E+01 -0.51853913410E+01  0.11197758456E+02  0.51100000000E-03 0.  1.
        -12    1    3    3    0    0  0.21711752224E+02  0.14779744631E+02  0.13904364171E+02  0.29718216283E+02  0.00000000000E+00 0.  1.
</event>
<event>
 7    1  0.2751796E-010  0.4778727E+02  0.7816164E-02  0.1312668E+00
        -11   -1    0    0    0    0  0.00000000000E+00  0.00000000000E+00  0.45593999997E+02  0.45594000000E+02  0.51100000000E-03 0.  1.
         11   -1    0    0    0    0 -0.00000000000E+00 -0.00000000000E+00 -0.45593999997E+02  0.45594000000E+02  0.51100000000E-03 0. -1.
    9900012    2    1    2    0    0 -0.39397855231E+02  0.72271678757E+01 -0.16709283401E+02  0.47787273001E+02  0.20000008920E+02 0.  0.
         12    1    1    2    0    0  0.39397855231E+02 -0.72271678757E+01  0.16709283401E+02  0.43400726999E+02  0.00000000000E+00 0. -1.
         11    1    3    3    0    0 -0.18097490994E+01 -0.50761118750E+00 -0.38485732045E+01  0.42830336085E+01  0.51100000000E-03 0. -1.
        -11    1    3    3    0    0 -0.26984136377E+02  0.98041810511E+01 -0.15147402714E+02  0.32460890181E+02  0.51100000000E-03 0.  1.
        -12    1    3    3    0    0 -0.10603969754E+02 -0.20694019879E+01  0.22866925173E+01  0.11043349211E+02  0.00000000000E+00 0.  1.
</event>
<event>
 7    1  0.2751796E-010  0.4778727E+02  0.7816164E-02  0.1312668E+00
        -11   -1    0    0    0    0  0.00000000000E+00  0.00000000000E+00  0.45593999997E+02  0.45594000000E+02  0.51100000000E-03 0. -1.
         11   -1    0    0    0    0 -0.00000000000E+00 -0.00000000000E+00 -0.45593999997E+02  0.45594000000E+02  0.51100000000E-03 0.  1.
    9900012    2    1    2    0    0 -0.33944350165E+01  0.13944039351E+02 -0.40959305714E+02  0.47787272506E+02  0.20000006662E+02 0.  0.
         12    1    1    2    0    0  0.33944350165E+01 -0.13944039351E+02  0.40959305714E+02  0.43400727494E+02  0.00000000000E+00 0. -1.
         11    1    3    3    0    0  0.20730021853E+01  0.17333395407E+02 -0.24886750297E+02  0.30398918978E+02  0.51100000000E-03 0. -1.
        -11    1    3    3    0    0 -0.44785951929E+01 -0.19789791296E+01 -0.12408968671E+02  0.13340040368E+02  0.51100000000E-03 0.  1.
         12    1    3    3    0    0 -0.98884200896E+00 -0.14103769267E+01 -0.36635867456E+01  0.40483131594E+01  0.00000000000E+00 0. -1.
</event>
<event>
 7    1  0.2751796E-010  0.4778727E+02  0.7816164E-02  0.1312668E+00
        -11   -1    0    0    0    0  0.00000000000E+00  0.00000000000E+00  0.45593999997E+02  0.45594000000E+02  0.51100000000E-03 0. -1.
         11   -1    0    0    0    0 -0.00000000000E+00 -0.00000000000E+00 -0.45593999997E+02  0.45594000000E+02  0.51100000000E-03 0.  1.
    9900012    2    1    2    0    0 -0.17484068402E+02 -0.18289964470E+02 -0.35261988119E+02  0.47787271270E+02  0.20000001029E+02 0.  0.
         12    1    1    2    0    0  0.17484068402E+02  0.18289964470E+02  0.35261988119E+02  0.43400728730E+02  0.00000000000E+00 0. -1.
         11    1    3    3    0    0 -0.17781287942E+01 -0.11435035710E+02 -0.63929803882E+01  0.13220891884E+02  0.51100000000E-03 0. -1.
        -11    1    3    3    0    0 -0.10882664349E+02 -0.43585953095E+00 -0.18260750943E+02  0.21262111422E+02  0.51100000000E-03 0.  1.
        -12    1    3    3    0    0 -0.48232752588E+01 -0.64190692285E+01 -0.10608256788E+02  0.13304267964E+02  0.00000000000E+00 0.  1.
</event>
<event>
 7    1  0.2751796E-010  0.4778727E+02  0.7816164E-02  0.1312668E+00
        -11   -1    0    0    0    0  0.00000000000E+00  0.00000000000E+00  0.45593999997E+02  0.45594000000E+02  0.51100000000E-03 0. -1.
         11   -1    0    0    0    0 -0.00000000000E+00 -0.00000000000E+00 -0.45593999997E+02  0.45594000000E+02  0.51100000000E-03 0.  1.
    9900012    2    1    2    0    0  0.32676634159E+02  0.22465712230E+02 -0.17639524996E+02  0.47787268577E+02  0.19999988748E+02 0.  0.
         12    1    1    2    0    0 -0.32676634159E+02 -0.22465712230E+02  0.17639524996E+02  0.43400731423E+02  0.00000000000E+00 0. -1.
         11    1    3    3    0    0  0.26370982048E+01  0.15702551882E+01 -0.34041180079E+00  0.30880201996E+01  0.51100000000E-03 0. -1.
        -11    1    3    3    0    0  0.94266479295E+01 -0.25717254441E+01 -0.22432201163E+01  0.10025342872E+02  0.51100000000E-03 0.  1.
        -12    1    3    3    0    0  0.20612888025E+02  0.23467182486E+02 -0.15055893079E+02  0.34673905505E+02  0.00000000000E+00 0.  1.
</event>
<event>
 7    1  0.2751796E-010  0.4778727E+02  0.7816164E-02  0.1312668E+00
        -11   -1    0    0    0    0  0.00000000000E+00  0.00000000000E+00  0.45593999997E+02  0.45594000000E+02  0.51100000000E-03 0.  1.
         11   -1    0    0    0    0 -0.00000000000E+00 -0.00000000000E+00 -0.45593999997E+02  0.45594000000E+02  0.51100000000E-03 0. -1.
    9900012    2    1    2    0    0 -0.21218899952E+01 -0.29138258565E+02  0.32094901128E+02  0.47787271806E+02  0.20000003470E+02 0.  0.
         12    1    1    2    0    0  0.21218899952E+01  0.29138258565E+02 -0.32094901128E+02  0.43400728194E+02  0.00000000000E+00 0. -1.
         11    1    3    3    0    0 -0.14781959316E+01 -0.92949425066E+01  0.21961577838E+02  0.23893344697E+02  0.51100000000E-03 0. -1.
        -11    1    3    3    0    0 -0.22281975465E+01 -0.31795393244E+01  0.51096527432E+01  0.64173893476E+01  0.51100000000E-03 0.  1.
         12    1    3    3    0    0  0.15845034829E+01 -0.16663776734E+02  0.50236705468E+01  0.17476537761E+02  0.00000000000E+00 0. -1.
</event>
<event>
 7    1  0.2751796E-010  0.4778728E+02  0.7816164E-02  0.1312668E+00
        -11   -1    0    0    0    0  0.00000000000E+00  0.00000000000E+00  0.45593999997E+02  0.45594000000E+02  0.51100000000E-03 0. -1.
         11   -1    0    0    0    0 -0.00000000000E+00 -0.00000000000E+00 -0.45593999997E+02  0.45594000000E+02  0.51100000000E-03 0.  1.
    9900012    2    1    2    0    0 -0.70068076101E+01 -0.31484622734E+02 -0.29038694935E+02  0.47787278518E+02  0.20000034076E+02 0.  0.
         12    1    1    2    0    0  0.70068076101E+01  0.31484622734E+02  0.29038694935E+02  0.43400721482E+02  0.00000000000E+00 0. -1.
         11    1    3    3    0    0 -0.17790250831E+01 -0.14503238756E+01  0.19074622793E+01  0.29844232606E+01  0.51100000000E-03 0. -1.
        -11    1    3    3    0    0 -0.55435473273E+01 -0.11042099029E+02 -0.17935519800E+02  0.21779387932E+02  0.51100000000E-03 0.  1.
         12    1    3    3    0    0  0.31576480031E+00 -0.18992199829E+02 -0.13010637415E+02  0.23023467326E+02  0.00000000000E+00 0. -1.
</event>
<event>
 7    1  0.2751796E-010  0.4778731E+02  0.7816164E-02  0.1312668E+00
        -11   -1    0    0    0    0  0.00000000000E+00  0.00000000000E+00  0.45593999997E+02  0.45594000000E+02  0.51100000000E-03 0.  1.
         11   -1    0    0    0    0 -0.00000000000E+00 -0.00000000000E+00 -0.45593999997E+02  0.45594000000E+02  0.51100000000E-03 0. -1.
    9900012    2    1    2    0    0 -0.33755676590E+01  0.32818411282E+02  0.28198889546E+02  0.47787309363E+02  0.20000174709E+02 0.  0.
         12    1    1    2    0    0  0.33755676590E+01 -0.32818411282E+02 -0.28198889546E+02  0.43400690637E+02  0.00000000000E+00 0. -1.
         11    1    3    3    0    0  0.21608185122E+01  0.88530028402E+01  0.38363287774E+01  0.98874776703E+01  0.51100000000E-03 0. -1.
        -11    1    3    3    0    0  0.34879063053E+01  0.40116177794E+01  0.11074152341E+02  0.12283949606E+02  0.51100000000E-03 0.  1.
        -12    1    3    3    0    0 -0.90242924765E+01  0.19953790663E+02  0.13288408428E+02  0.25615882086E+02  0.00000000000E+00 0.  1.
</event>
<event>
 7    1  0.2751796E-010  0.4778727E+02  0.7816164E-02  0.1312668E+00
        -11   -1    0    0    0    0  0.00000000000E+00  0.00000000000E+00  0.45593999997E+02  0.45594000000E+02  0.51100000000E-03 0.  1.
         11   -1    0    0    0    0 -0.00000000000E+00 -0.00000000000E+00 -0.45593999997E+02  0.45594000000E+02  0.51100000000E-03 0. -1.
    9900012    2    1    2    0    0 -0.14086494681E+02 -0.45631422421E+01 -0.40796710198E+02  0.47787272327E+02  0.20000005849E+02 0.  0.
         12    1    1    2    0    0  0.14086494681E+02  0.45631422421E+01  0.40796710198E+02  0.43400727673E+02  0.00000000000E+00 0. -1.
         11    1    3    3    0    0  0.40940216768E+00 -0.88401094524E+00 -0.28222973321E+01  0.29857072827E+01  0.51100000000E-03 0. -1.
        -11    1    3    3    0    0  0.22300292099E+01 -0.19724811751E+00 -0.19539766370E+02  0.19667597900E+02  0.51100000000E-03 0.  1.
        -12    1    3    3    0    0 -0.16725926059E+02 -0.34818831794E+01 -0.18434646496E+02  0.25133967145E+02  0.00000000000E+00 0.  1.
</event>
<event>
 7    1  0.2751796E-010  0.4778727E+02  0.7816164E-02  0.1312668E+00
        -11   -1    0    0    0    0  0.00000000000E+00  0.00000000000E+00  0.45593999997E+02  0.45594000000E+02  0.51100000000E-03 0.  1.
         11   -1    0    0    0    0 -0.00000000000E+00 -0.00000000000E+00 -0.45593999997E+02  0.45594000000E+02  0.51100000000E-03 0. -1.
    9900012    2    1    2    0    0 -0.23910350560E+02 -0.13082930141E+02  0.33775072672E+02  0.47787268912E+02  0.19999990278E+02 0.  0.
         12    1    1    2    0    0  0.23910350560E+02  0.13082930141E+02 -0.33775072672E+02  0.43400731088E+02  0.00000000000E+00 0. -1.
         11    1    3    3    0    0 -0.40451084746E+01 -0.87061411493E+01  0.22539348913E+01  0.98610353939E+01  0.51100000000E-03 0. -1.
        -11    1    3    3    0    0 -0.10023780813E+02  0.18389213041E+00  0.17872801940E+02  0.20492609583E+02  0.51100000000E-03 0.  1.
        -12    1    3    3    0    0 -0.98414612723E+01 -0.45606811221E+01  0.13648335841E+02  0.17433623935E+02  0.00000000000E+00 0.  1.
</event>
<event>
 7    1  0.2751796E-010  0.4778727E+02  0.7816164E-02  0.1312668E+00
        -11   -1    0    0    0    0  0.00000000000E+00  0.00000000000E+00  0.45593999997E+02  0.45594000000E+02  0.51100000000E-03 0. -1.
         11   -1    0    0    0    0 -0.00000000000E+00 -0.00000000000E+00 -0.45593999997E+02  0.45594000000E+02  0.51100000000E-03 0.  1.
    9900012    2    1    2    0    0  0.33285320081E+02 -0.27418949009E+02 -0.48899965928E+01  0.47787270003E+02  0.19999995250E+02 0.  0.
         12    1    1    2    0    0 -0.33285320081E+02  0.27418949009E+02  0.48899965928E+01  0.43400729997E+02  0.00000000000E+00 0. -1.
         11    1    3    3    0    0 -0.61625294556E+00  0.82779726729E-01  0.27635660510E+01  0.28326520710E+01  0.51100000000E-03 0. -1.
        -11    1    3    3    0    0  0.31871696475E+01 -0.22470046475E+00 -0.94840829975E+00  0.33328695181E+01  0.51100000000E-03 0.  1.
         12    1    3    3    0    0  0.30714403379E+02 -0.27277028271E+02 -0.67051543441E+01  0.41621748413E+02  0.00000000000E+00 0. -1.
</event>
<event>
 7    1  0.2751796E-010  0.4778727E+02  0.7816164E-02  0.1312668E+00
        -11   -1    0    0    0    0  0.00000000000E+00  0.00000000000E+00  0.45593999997E+02  0.45594000000E+02  0.51100000000E-03 0.  1.
         11   -1    0    0    0    0 -0.00000000000E+00 -0.00000000000E+00 -0.45593999997E+02  0.45594000000E+02  0.51100000000E-03 0. -1.
    9900012    2    1    2    0    0 -0.29931787828E+02 -0.31422836729E+02 -0.56280169037E+00  0.47787270324E+02  0.19999996714E+02 0.  0.
         12    1    1    2    0    0  0.29931787828E+02  0.31422836729E+02  0.56280169037E+00  0.43400729676E+02  0.00000000000E+00 0. -1.
         11    1    3    3    0    0 -0.59648151315E+01 -0.36360225444E+01 -0.59037335913E+01  0.91462424019E+01  0.51100000000E-03 0. -1.
        -11    1    3    3    0    0 -0.85073261456E+01 -0.16593167278E+02  0.58640819398E+01  0.19547256987E+02  0.51100000000E-03 0.  1.
        -12    1    3    3    0    0 -0.15459646551E+02 -0.11193646907E+02 -0.52315003885E+00  0.19093770935E+02  0.00000000000E+00 0.  1.
</event>
<event>
 7    1  0.2751796E-010  0.4778728E+02  0.7816164E-02  0.1312668E+00
        -11   -1    0    0    0    0  0.00000000000E+00  0.00000000000E+00  0.45593999997E+02  0.45594000000E+02  0.51100000000E-03 0. -1.
         11   -1    0    0    0    0 -0.00000000000E+00 -0.00000000000E+00 -0.45593999997E+02  0.45594000000E+02  0.51100000000E-03 0.  1.
    9900012    2    1    2    0    0 -0.14245822605E+02 -0.40925602640E+02  0.24029857335E+01  0.47787277038E+02  0.20000027328E+02 0.  0.
         12    1    1    2    0    0  0.14245822605E+02  0.40925602640E+02 -0.24029857335E+01  0.43400722962E+02  0.00000000000E+00 0. -1.
         11    1    3    3    0    0 -0.10375543431E+02 -0.24444037679E+02  0.97759024881E+01  0.28297193311E+02  0.51100000000E-03 0. -1.
        -11    1    3    3    0    0 -0.44034107703E+01 -0.16700148064E+02 -0.65197225949E+01  0.18460545896E+02  0.51100000000E-03 0.  1.
         12    1    3    3    0    0  0.53313159654E+00  0.21858310351E+00 -0.85319415968E+00  0.10295378315E+01  0.00000000000E+00 0. -1.
</event>
<event>
 7    1  0.2751796E-010  0.4778728E+02  0.7816164E-02  0.1312668E+00
        -11   -1    0    0    0    0  0.00000000000E+00  0.00000000000E+00  0.45593999997E+02  0.45594000000E+02  0.51100000000E-03 0. -1.
         11   -1    0    0    0    0 -0.00000000000E+00 -0.00000000000E+00 -0.45593999997E+02  0.45594000000E+02  0.51100000000E-03 0.  1.
    9900012    2    1    2    0    0 -0.15869294711E+01  0.96359086051E+01 -0.42287750435E+02  0.47787275160E+02  0.20000018765E+02 0.  0.
         12    1    1    2    0    0  0.15869294711E+01 -0.96359086051E+01  0.42287750435E+02  0.43400724840E+02  0.00000000000E+00 0. -1.
         11    1    3    3    0    0  0.39761927846E+01  0.45089771895E+01 -0.28655397774E+02  0.29279221407E+02  0.51100000000E-03 0. -1.
        -11    1    3    3    0    0 -0.51542457766E+01  0.80258411497E+01 -0.96830908154E+01  0.13592005874E+02  0.51100000000E-03 0.  1.
         12    1    3    3    0    0 -0.40887647903E+00 -0.28989097341E+01 -0.39492618454E+01  0.49160478786E+01  0.00000000000E+00 0. -1.
</event>
<event>
 7    1  0.2751796E-010  0.4778727E+02  0.7816164E-02  0.1312668E+00
        -11   -1    0    0    0    0  0.00000000000E+00  0.00000000000E+00  0.45593999997E+02  0.45594000000E+02  0.51100000000E-03 0.  1.
         11   -1    0    0    0    0 -0.00000000000E+00 -0.00000000000E+00 -0.45593999997E+02  0.45594000000E+02  0.51100000000E-03 0. -1.
    9900012    2    1    2    0    0 -0.23985740397E+02 -0.25328766549E+02  0.25821716930E+02  0.47787271636E+02  0.20000002698E+02 0.  0.
         12    1    1    2    0    0  0.23985740397E+02  0.25328766549E+02 -0.25821716930E+02  0.43400728364E+02  0.00000000000E+00 0. -1.
         11    1    3    3    0    0 -0.19205831758E+00  0.11292232858E+00 -0.12167857467E+01  0.12370148197E+01  0.51100000000E-03 0. -1.
        -11    1    3    3    0    0 -0.15082195650E+02 -0.24930958705E+02  0.20041596712E+02  0.35365108887E+02  0.51100000000E-03 0.  1.
        -12    1    3    3    0    0 -0.87114864298E+01 -0.51073017288E+00  0.69969059639E+01  0.11185147929E+02  0.00000000000E+00 0.  1.
</event>
<event>
 7    1  0.2751796E-010  0.4778728E+02  0.7816164E-02  0.1312668E+00
        -11   -1    0    0    0    0  0.00000000000E+00  0.00000000000E+00  0.45593999997E+02  0.45594000000E+02  0.51100000000E-03 0.  1.
         11   -1    0    0    0    0 -0.00000000000E+00 -0.00000000000E+00 -0.45593999997E+02  0.45594000000E+02  0.51100000000E-03 0. -1.
    9900012    2    1    2    0    0 -0.36223267545E+02 -0.20034109713E+01  0.23821921551E+02  0.47787277499E+02  0.20000029431E+02 0.  0.
         12    1    1    2    0    0  0.36223267545E+02  0.20034109713E+01 -0.23821921551E+02  0.43400722501E+02  0.00000000000E+00 0. -1.
         11    1    3    3    0    0  0.19530132808E+01  0.24923529519E+00 -0.33768700266E+00  0.19976015319E+01  0.51100000000E-03 0. -1.
        -11    1    3    3    0    0 -0.25866892286E+02 -0.14379590407E+01  0.20142069393E+02  0.32815648743E+02  0.51100000000E-03 0.  1.
         12    1    3    3    0    0 -0.12309388540E+02 -0.81468722582E+00  0.40175391610E+01  0.12974027225E+02  0.00000000000E+00 0. -1.
</event>
<event>
 7    1  0.2751796E-010  0.4778727E+02  0.7816164E-02  0.1312668E+00
        -11   -1    0    0    0    0  0.00000000000E+00  0.00000000000E+00  0.45593999997E+02  0.45594000000E+02  0.51100000000E-03 0.  1.
         11   -1    0    0    0    0 -0.00000000000E+00 -0.00000000000E+00 -0.45593999997E+02  0.45594000000E+02  0.51100000000E-03 0. -1.
    9900012    2    1    2    0    0 -0.27647551702E+02  0.24283595309E+02  0.23011804682E+02  0.47787271078E+02  0.20000000155E+02 0.  0.
         12    1    1    2    0    0  0.27647551702E+02 -0.24283595309E+02 -0.23011804682E+02  0.43400728922E+02  0.00000000000E+00 0. -1.
         11    1    3    3    0    0 -0.20067603125E+02  0.49952796821E+01  0.10882732765E+02  0.23368683895E+02  0.51100000000E-03 0. -1.
        -11    1    3    3    0    0 -0.60065956220E+01  0.10790581018E+02  0.54623334034E+01  0.13503811171E+02  0.51100000000E-03 0.  1.
         12    1    3    3    0    0 -0.15733529547E+01  0.84977346091E+01  0.66667385127E+01  0.10914776013E+02  0.00000000000E+00 0. -1.
</event>
<event>
 7    1  0.2751796E-010  0.4778731E+02  0.7816164E-02  0.1312668E+00
        -11   -1    0    0    0    0  0.00000000000E+00  0.00000000000E+00  0.45593999997E+02  0.45594000000E+02  0.51100000000E-03 0. -1.
         11   -1    0    0    0    0 -0.00000000000E+00 -0.00000000000E+00 -0.45593999997E+02  0.45594000000E+02  0.51100000000E-03 0.  1.
    9900012    2    1    2    0    0  0.34379768517E+02 -0.24958504541E+02 -0.88726825900E+01  0.47787309585E+02  0.20000175719E+02 0.  0.
         12    1    1    2    0    0 -0.34379768517E+02  0.24958504541E+02  0.88726825900E+01  0.43400690415E+02  0.00000000000E+00 0. -1.
         11    1    3    3    0    0  0.83599412617E+01  0.17225691284E+01  0.43573438853E+00  0.85466792979E+01  0.51100000000E-03 0. -1.
        -11    1    3    3    0    0  0.22497662381E+02 -0.24813871503E+02 -0.10462567717E+02  0.35090431104E+02  0.51100000000E-03 0.  1.
        -12    1    3    3    0    0  0.35221648739E+01 -0.18672021659E+01  0.11541507383E+01  0.41501991825E+01  0.00000000000E+00 0.  1.
</event>
<event>
 7    1  0.2751796E-010  0.4778727E+02  0.7816164E-02  0.1312668E+00
        -11   -1    0    0    0    0  0.00000000000E+00  0.00000000000E+00  0.45593999997E+02  0.45594000000E+02  0.51100000000E-03 0.  1.
         11   -1    0    0    0    0 -0.00000000000E+00 -0.00000000000E+00 -0.45593999997E+02  0.45594000000E+02  0.51100000000E-03 0. -1.
    9900012    2    1    2    0    0  0.51467824376E+01  0.41554367536E+02  0.11417910613E+02  0.47787268283E+02  0.19999987410E+02 0.  0.
         12    1    1    2    0    0 -0.51467824376E+01 -0.41554367536E+02 -0.11417910613E+02  0.43400731717E+02  0.00000000000E+00 0. -1.
         11    1    3    3    0    0 -0.31215399616E+01 -0.53435713621E+00  0.24298239115E+00  0.31762540806E+01  0.51100000000E-03 0. -1.
        -11    1    3    3    0    0  0.66619219929E+01  0.33396567562E+02  0.67150845528E+01  0.34710290843E+02  0.51100000000E-03 0.  1.
         12    1    3    3    0    0  0.16064004063E+01  0.86921571104E+01  0.44598436689E+01  0.99007233599E+01  0.00000000000E+00 0. -1.
</event>
<event>
 7    1  0.2751796E-010  0.4778727E+02  0.7816164E-02  0.1312668E+00
        -11   -1    0    0    0    0  0.00000000000E+00  0.00000000000E+00  0.45593999997E+02  0.45594000000E+02  0.51100000000E-03 0.  1.
         11   -1    0    0    0    0 -0.00000000000E+00 -0.00000000000E+00 -0.45593999997E+02  0.45594000000E+02  0.51100000000E-03 0. -1.
    9900012    2    1    2    0    0  0.20214349362E+02  0.10331524658E+02  0.36990041977E+02  0.47787268124E+02  0.19999986686E+02 0.  0.
         12    1    1    2    0    0 -0.20214349362E+02 -0.10331524658E+02 -0.36990041977E+02  0.43400731876E+02  0.00000000000E+00 0. -1.
         11    1    3    3    0    0 -0.18740707064E+01  0.13093315441E+01  0.80444078269E+01  0.83629532852E+01  0.51100000000E-03 0. -1.
        -11    1    3    3    0    0  0.23561903698E+02  0.91623921020E+01  0.27519561294E+02  0.37368957558E+02  0.51100000000E-03 0.  1.
         12    1    3    3    0    0 -0.14734836291E+01 -0.14019898860E+00  0.14260728559E+01  0.20553572808E+01  0.00000000000E+00 0. -1.
</event>
<event>
 7    1  0.2751796E-010  0.4778727E+02  0.7816164E-02  0.1312668E+00
        -11   -1    0    0    0    0  0.00000000000E+00  0.00000000000E+00  0.45593999997E+02  0.45594000000E+02  0.51100000000E-03 0.  1.
         11   -1    0    0    0    0 -0.00000000000E+00 -0.00000000000E+00 -0.45593999997E+02  0.45594000000E+02  0.51100000000E-03 0. -1.
    9900012    2    1    2    0    0 -0.41031627921E+02  0.69731545828E+01  0.12304649520E+02  0.47787265277E+02  0.19999973705E+02 0.  0.
         12    1    1    2    0    0  0.41031627921E+02 -0.69731545828E+01 -0.12304649520E+02  0.43400734723E+02  0.00000000000E+00 0. -1.
         11    1    3    3    0    0 -0.15954805630E+01 -0.83934273013E+00 -0.18418000577E+01  0.25772625321E+01  0.51100000000E-03 0. -1.
        -11    1    3    3    0    0 -0.24141297774E+02  0.11319494833E+02  0.12450054303E+02  0.29426808761E+02  0.51100000000E-03 0.  1.
        -12    1    3    3    0    0 -0.15294849584E+02 -0.35069975198E+01  0.16963952750E+01  0.15783193984E+02  0.00000000000E+00 0.  1.
</event>
<event>
 7    1  0.2751796E-010  0.4778726E+02  0.7816164E-02  0.1312668E+00
        -11   -1    0    0    0    0  0.00000000000E+00  0.00000000000E+00  0.45593999997E+02  0.45594000000E+02  0.51100000000E-03 0.  1.
         11   -1    0    0    0    0 -0.00000000000E+00 -0.00000000000E+00 -0.45593999997E+02  0.45594000000E+02  0.51100000000E-03 0. -1.
    9900012    2    1    2    0    0  0.24424876383E+02 -0.32026185597E+02  0.16167029918E+02  0.47787262604E+02  0.19999961516E+02 0.  0.
         12    1    1    2    0    0 -0.24424876383E+02  0.32026185597E+02 -0.16167029918E+02  0.43400737396E+02  0.00000000000E+00 0. -1.
         11    1    3    3    0    0 -0.28330132325E+01 -0.43140671417E+01 -0.25744325061E+00  0.51675348636E+01  0.51100000000E-03 0. -1.
        -11    1    3    3    0    0  0.19968660239E+02 -0.16374701602E+02  0.11514729092E+02  0.28274851558E+02  0.51100000000E-03 0.  1.
        -12    1    3    3    0    0  0.72892293764E+01 -0.11337416853E+02  0.49097440761E+01  0.14344876182E+02  0.00000000000E+00 0.  1.
</event>
<event>
 7    1  0.2751796E-010  0.4778727E+02  0.7816164E-02  0.1312668E+00
        -11   -1    0    0    0    0  0.00000000000E+00  0.00000000000E+00  0.45593999997E+02  0.45594000000E+02  0.51100000000E-03 0.  1.
         11   -1    0    0    0    0 -0.00000000000E+00 -0.00000000000E+00 -0.45593999997E+02  0.45594000000E+02  0.51100000000E-03 0. -1.
    9900012    2    1    2    0    0  0.13582882598E+02 -0.40266435586E+00  0.41218522074E+02  0.47787269589E+02  0.19999993363E+02 0.  0.
         12    1    1    2    0    0 -0.13582882598E+02  0.40266435586E+00 -0.41218522074E+02  0.43400730411E+02  0.00000000000E+00 0. -1.
         11    1    3    3    0    0  0.12961454051E+02 -0.41482795004E+01  0.15528292927E+02  0.20647890823E+02  0.51100000000E-03 0. -1.
        -11    1    3    3    0    0  0.21400068239E+01  0.55183371507E+01  0.13697028348E+02  0.14921134674E+02  0.51100000000E-03 0.  1.
         12    1    3    3    0    0 -0.15185782777E+01 -0.17727220061E+01  0.11993200799E+02  0.12218244092E+02  0.00000000000E+00 0. -1.
</event>
<event>
 7    1  0.2751796E-010  0.4778727E+02  0.7816164E-02  0.1312668E+00
        -11   -1    0    0    0    0  0.00000000000E+00  0.00000000000E+00  0.45593999997E+02  0.45594000000E+02  0.51100000000E-03 0. -1.
         11   -1    0    0    0    0 -0.00000000000E+00 -0.00000000000E+00 -0.45593999997E+02  0.45594000000E+02  0.51100000000E-03 0.  1.
    9900012    2    1    2    0    0  0.26576863788E+01  0.39978550409E+02 -0.16681589189E+02  0.47787271808E+02  0.20000003482E+02 0.  0.
         12    1    1    2    0    0 -0.26576863788E+01 -0.39978550409E+02  0.16681589189E+02  0.43400728192E+02  0.00000000000E+00 0. -1.
         11    1    3    3    0    0  0.41988048037E+01  0.30183814129E+02 -0.15983123405E+02  0.34411521780E+02  0.51100000000E-03 0.  1.
        -11    1    3    3    0    0  0.28483447593E+01  0.76717164769E+01 -0.17951961498E+01  0.83780087757E+01  0.51100000000E-03 0. -1.
         12    1    3    3    0    0 -0.43894631842E+01  0.21230198030E+01  0.10967303660E+01  0.49977412523E+01  0.00000000000E+00 0. -1.
</event>
<event>
 7    1  0.2751796E-010  0.4778727E+02  0.7816164E-02  0.1312668E+00
        -11   -1    0    0    0    0  0.00000000000E+00  0.00000000000E+00  0.45593999997E+02  0.45594000000E+02  0.51100000000E-03 0.  1.
         11   -1    0    0    0    0 -0.00000000000E+00 -0.00000000000E+00 -0.45593999997E+02  0.45594000000E+02  0.51100000000E-03 0. -1.
    9900012    2    1    2    0    0 -0.65426224330E+00  0.31170617475E+02  0.30192513701E+02  0.47787270324E+02  0.19999996714E+02 0.  0.
         12    1    1    2    0    0  0.65426224330E+00 -0.31170617475E+02 -0.30192513701E+02  0.43400729676E+02  0.00000000000E+00 0. -1.
         11    1    3    3    0    0 -0.59717119792E+01  0.38641492813E+01  0.52712272302E+01  0.88531819367E+01  0.51100000000E-03 0. -1.
        -11    1    3    3    0    0  0.84248653634E+01  0.20587046571E+02  0.20835830495E+02  0.30478462487E+02  0.51100000000E-03 0.  1.
         12    1    3    3    0    0 -0.31074156275E+01  0.67194216234E+01  0.40854559750E+01  0.84556258999E+01  0.00000000000E+00 0. -1.
</event>
<event>
 7    1  0.2751796E-010  0.4778727E+02  0.7816164E-02  0.1312668E+00
        -11   -1    0    0    0    0  0.00000000000E+00  0.00000000000E+00  0.45593999997E+02  0.45594000000E+02  0.51100000000E-03 0. -1.
         11   -1    0    0    0    0 -0.00000000000E+00 -0.00000000000E+00 -0.45593999997E+02  0.45594000000E+02  0.51100000000E-03 0.  1.
    9900012    2    1    2    0    0 -0.33312508762E+02  0.22535608950E+02  0.16310927040E+02  0.47787271301E+02  0.20000001168E+02 0.  0.
         12    1    1    2    0    0  0.33312508762E+02 -0.22535608950E+02 -0.16310927040E+02  0.43400728699E+02  0.00000000000E+00 0. -1.
         11    1    3    3    0    0 -0.20520411546E+02  0.20051713879E+02  0.13799442020E+02  0.31836820190E+02  0.51100000000E-03 0. -1.
        -11    1    3    3    0    0 -0.15702149621E+01 -0.61607960184E+00 -0.27091348496E+01  0.31913227661E+01  0.51100000000E-03 0.  1.
         12    1    3    3    0    0 -0.11221882253E+02  0.30999746730E+01  0.52206198692E+01  0.12759128344E+02  0.00000000000E+00 0. -1.
</event>
<event>
 7    1  0.2751796E-010  0.4778726E+02  0.7816164E-02  0.1312668E+00
        -11   -1    0    0    0    0  0.00000000000E+00  0.00000000000E+00  0.45593999997E+02  0.45594000000E+02  0.51100000000E-03 0.  1.
         11   -1    0    0    0    0 -0.00000000000E+00 -0.00000000000E+00 -0.45593999997E+02  0.45594000000E+02  0.51100000000E-03 0. -1.
    9900012    2    1    2    0    0  0.13593566914E+02  0.37419762987E+02  0.17280072984E+02  0.47787255239E+02  0.19999927937E+02 0.  0.
         12    1    1    2    0    0 -0.13593566914E+02 -0.37419762987E+02 -0.17280072984E+02  0.43400744761E+02  0.00000000000E+00 0. -1.
         11    1    3    3    0    0 -0.31201218131E+01 -0.24084823850E+00  0.11458331743E+01  0.33325818710E+01  0.51100000000E-03 0. -1.
        -11    1    3    3    0    0  0.91063935373E+01  0.22952198186E+02  0.76631821762E+01  0.25854480581E+02  0.51100000000E-03 0.  1.
         12    1    3    3    0    0  0.76072951895E+01  0.14708413040E+02  0.84710576337E+01  0.18600192787E+02  0.00000000000E+00 0. -1.
</event>
<event>
 7    1  0.2751796E-010  0.4778729E+02  0.7816164E-02  0.1312668E+00
        -11   -1    0    0    0    0  0.00000000000E+00  0.00000000000E+00  0.45593999997E+02  0.45594000000E+02  0.51100000000E-03 0. -1.
         11   -1    0    0    0    0 -0.00000000000E+00 -0.00000000000E+00 -0.45593999997E+02  0.45594000000E+02  0.51100000000E-03 0.  1.
    9900012    2    1    2    0    0 -0.22424516889E+02  0.49037053456E+00 -0.37155381966E+02  0.47787287678E+02  0.20000075840E+02 0.  0.
         12    1    1    2    0    0  0.22424516889E+02 -0.49037053456E+00  0.37155381966E+02  0.43400712322E+02  0.00000000000E+00 0. -1.
         11    1    3    3    0    0 -0.67909120081E+01 -0.45332571649E+01 -0.44268170657E+01  0.92878208434E+01  0.51100000000E-03 0. -1.
        -11    1    3    3    0    0 -0.17395396066E+02  0.41853265587E+01 -0.31397805200E+02  0.36137777108E+02  0.51100000000E-03 0.  1.
        -12    1    3    3    0    0  0.17617911851E+01  0.83830114074E+00 -0.13307597007E+01  0.23616897263E+01  0.00000000000E+00 0.  1.
</event>
<event>
 7    1  0.2751796E-010  0.4778727E+02  0.7816164E-02  0.1312668E+00
        -11   -1    0    0    0    0  0.00000000000E+00  0.00000000000E+00  0.45593999997E+02  0.45594000000E+02  0.51100000000E-03 0.  1.
         11   -1    0    0    0    0 -0.00000000000E+00 -0.00000000000E+00 -0.45593999997E+02  0.45594000000E+02  0.51100000000E-03 0. -1.
    9900012    2    1    2    0    0 -0.34771531660E+02  0.33173996106E+01  0.25759629279E+02  0.47787273569E+02  0.20000011509E+02 0.  0.
         12    1    1    2    0    0  0.34771531660E+02 -0.33173996106E+01 -0.25759629279E+02  0.43400726431E+02  0.00000000000E+00 0. -1.
         11    1    3    3    0    0 -0.27285794057E+00 -0.56908052375E+00 -0.22816606779E+01  0.23673360151E+01  0.51100000000E-03 0. -1.
        -11    1    3    3    0    0 -0.13192158926E+02 -0.22291649872E+01  0.83571045460E+01  0.15774771958E+02  0.51100000000E-03 0.  1.
         12    1    3    3    0    0 -0.21306514794E+02  0.61156451215E+01  0.19684185411E+02  0.29645165596E+02  0.00000000000E+00 0. -1.
</event>
<event>
 7    1  0.2751796E-010  0.4778725E+02  0.7816164E-02  0.1312668E+00
        -11   -1    0    0    0    0  0.00000000000E+00  0.00000000000E+00  0.45593999997E+02  0.45594000000E+02  0.51100000000E-03 0.  1.
         11   -1    0    0    0    0 -0.00000000000E+00 -0.00000000000E+00 -0.45593999997E+02  0.45594000000E+02  0.51100000000E-03 0. -1.
    9900012    2    1    2    0    0  0.15673154463E+01  0.22208656351E+02  0.37255127897E+02  0.47787245983E+02  0.19999885733E+02 0.  0.
         12    1    1    2    0    0 -0.15673154463E+01 -0.22208656351E+02 -0.37255127897E+02  0.43400754017E+02  0.00000000000E+00 0. -1.
         11    1    3    3    0    0  0.30567807510E+01  0.56169444416E+01  0.59490236211E+00  0.64224514402E+01  0.51100000000E-03 0. -1.
        -11    1    3    3    0    0 -0.40028760221E+01  0.60538137006E+01  0.21789334953E+02  0.22966209847E+02  0.51100000000E-03 0.  1.
         12    1    3    3    0    0  0.25134107174E+01  0.10537898209E+02  0.14870890582E+02  0.18398584696E+02  0.00000000000E+00 0. -1.
</event>
<event>
 7    1  0.2751796E-010  0.4778726E+02  0.7816164E-02  0.1312668E+00
        -11   -1    0    0    0    0  0.00000000000E+00  0.00000000000E+00  0.45593999997E+02  0.45594000000E+02  0.51100000000E-03 0. -1.
         11   -1    0    0    0    0 -0.00000000000E+00 -0.00000000000E+00 -0.45593999997E+02  0.45594000000E+02  0.51100000000E-03 0.  1.
    9900012    2    1    2    0    0  0.38100856195E+02  0.19819007804E+02  0.62574973663E+01  0.47787255924E+02  0.19999931058E+02 0.  0.
         12    1    1    2    0    0 -0.38100856195E+02 -0.19819007804E+02 -0.62574973663E+01  0.43400744076E+02  0.00000000000E+00 0. -1.
         11    1    3    3    0    0  0.18156188117E+02  0.13300026328E+02  0.54142383773E+01  0.23148473918E+02  0.51100000000E-03 0. -1.
        -11    1    3    3    0    0  0.89766678686E+01  0.37448127907E+01 -0.59889524280E+01  0.11422422699E+02  0.51100000000E-03 0.  1.
        -12    1    3    3    0    0  0.10968000209E+02  0.27741686850E+01  0.68322114171E+01  0.13216359307E+02  0.00000000000E+00 0.  1.
</event>
<event>
 7    1  0.2751796E-010  0.4778727E+02  0.7816164E-02  0.1312668E+00
        -11   -1    0    0    0    0  0.00000000000E+00  0.00000000000E+00  0.45593999997E+02  0.45594000000E+02  0.51100000000E-03 0.  1.
         11   -1    0    0    0    0 -0.00000000000E+00 -0.00000000000E+00 -0.45593999997E+02  0.45594000000E+02  0.51100000000E-03 0. -1.
    9900012    2    1    2    0    0  0.28492817182E+02 -0.23376617955E+02  0.22919779443E+02  0.47787272037E+02  0.20000004528E+02 0.  0.
         12    1    1    2    0    0 -0.28492817182E+02  0.23376617955E+02 -0.22919779443E+02  0.43400727963E+02  0.00000000000E+00 0. -1.
         11    1    3    3    0    0  0.65118855149E+01 -0.72973820872E+01  0.58391970815E+00  0.97978263289E+01  0.51100000000E-03 0. -1.
        -11    1    3    3    0    0  0.14881866371E+02 -0.15328585681E+02  0.22255532901E+02  0.30850352196E+02  0.51100000000E-03 0.  1.
        -12    1    3    3    0    0  0.70990652962E+01 -0.75065018729E+00  0.80326833790E-01  0.71390935127E+01  0.00000000000E+00 0.  1.
</event>
<event>
 7    1  0.2751796E-010  0.4778727E+02  0.7816164E-02  0.1312668E+00
        -11   -1    0    0    0    0  0.00000000000E+00  0.00000000000E+00  0.45593999997E+02  0.45594000000E+02  0.51100000000E-03 0.  1.
         11   -1    0    0    0    0 -0.00000000000E+00 -0.00000000000E+00 -0.45593999997E+02  0.45594000000E+02  0.51100000000E-03 0. -1.
    9900012    2    1    2    0    0  0.32840830864E+02 -0.27164746291E+02  0.81963216088E+01  0.47787270734E+02  0.19999998586E+02 0.  0.
         12    1    1    2    0    0 -0.32840830864E+02  0.27164746291E+02 -0.81963216088E+01  0.43400729266E+02  0.00000000000E+00 0. -1.
         11    1    3    3    0    0  0.12655583393E+02 -0.12761154788E+02  0.10630833748E+02  0.20881223359E+02  0.51100000000E-03 0. -1.
        -11    1    3    3    0    0  0.89090286105E+01 -0.70081939737E+01  0.39266473749E+01  0.11996004894E+02  0.51100000000E-03 0.  1.
         12    1    3    3    0    0  0.11276218860E+02 -0.73953975294E+01 -0.63611595145E+01  0.14910042481E+02  0.00000000000E+00 0. -1.
</event>
<event>
 7    1  0.2751796E-010  0.4778727E+02  0.7816164E-02  0.1312668E+00
        -11   -1    0    0    0    0  0.00000000000E+00  0.00000000000E+00  0.45593999997E+02  0.45594000000E+02  0.51100000000E-03 0. -1.
         11   -1    0    0    0    0 -0.00000000000E+00 -0.00000000000E+00 -0.45593999997E+02  0.45594000000E+02  0.51100000000E-03 0.  1.
    9900012    2    1    2    0    0  0.36034343313E+02  0.22980280369E+02 -0.75535568171E+01  0.47787269541E+02  0.19999993144E+02 0.  0.
         12    1    1    2    0    0 -0.36034343313E+02 -0.22980280369E+02  0.75535568171E+01  0.43400730459E+02  0.00000000000E+00 0. -1.
         11    1    3    3    0    0  0.28813581829E+02  0.17582586938E+02  0.16996055645E+01  0.33797315287E+02  0.51100000000E-03 0. -1.
        -11    1    3    3    0    0  0.70298333045E+01  0.60100878201E+01 -0.68677452827E+01  0.11519793289E+02  0.51100000000E-03 0.  1.
         12    1    3    3    0    0  0.19092817921E+00 -0.61239438904E+00 -0.23854170988E+01  0.24701609649E+01  0.00000000000E+00 0. -1.
</event>
<event>
 7    1  0.2751796E-010  0.4778727E+02  0.7816164E-02  0.1312668E+00
        -11   -1    0    0    0    0  0.00000000000E+00  0.00000000000E+00  0.45593999997E+02  0.45594000000E+02  0.51100000000E-03 0.  1.
         11   -1    0    0    0    0 -0.00000000000E+00 -0.00000000000E+00 -0.45593999997E+02  0.45594000000E+02  0.51100000000E-03 0. -1.
    9900012    2    1    2    0    0  0.28619302482E+02 -0.47955617509E+01  0.32273237229E+02  0.47787265809E+02  0.19999976129E+02 0.  0.
         12    1    1    2    0    0 -0.28619302482E+02  0.47955617509E+01 -0.32273237229E+02  0.43400734191E+02  0.00000000000E+00 0. -1.
         11    1    3    3    0    0  0.85845081651E+01 -0.83508477113E+01  0.82723392402E+01  0.14555481260E+02  0.51100000000E-03 0. -1.
        -11    1    3    3    0    0  0.13710230745E+02  0.71457406384E+01  0.18519748870E+02  0.24124948390E+02  0.51100000000E-03 0.  1.
        -12    1    3    3    0    0  0.63245635716E+01 -0.35904546779E+01  0.54811491195E+01  0.91068361595E+01  0.00000000000E+00 0.  1.
</event>
<event>
 7    1  0.2751796E-010  0.4778727E+02  0.7816164E-02  0.1312668E+00
        -11   -1    0    0    0    0  0.00000000000E+00  0.00000000000E+00  0.45593999997E+02  0.45594000000E+02  0.51100000000E-03 0. -1.
         11   -1    0    0    0    0 -0.00000000000E+00 -0.00000000000E+00 -0.45593999997E+02  0.45594000000E+02  0.51100000000E-03 0.  1.
    9900012    2    1    2    0    0 -0.39932665965E+02 -0.16748401872E+02  0.29148900399E+01  0.47787270049E+02  0.19999995461E+02 0.  0.
         12    1    1    2    0    0  0.39932665965E+02  0.16748401872E+02 -0.29148900399E+01  0.43400729951E+02  0.00000000000E+00 0. -1.
         11    1    3    3    0    0 -0.93983962890E+00  0.63796154184E+00 -0.37652818694E+01  0.39328922276E+01  0.51100000000E-03 0. -1.
        -11    1    3    3    0    0 -0.21292894955E+02 -0.98615669603E+01 -0.86115697563E-01  0.23465832494E+02  0.51100000000E-03 0.  1.
         12    1    3    3    0    0 -0.17699931381E+02 -0.75247964538E+01  0.67662876069E+01  0.20388545327E+02  0.00000000000E+00 0. -1.
</event>
<event>
 7    1  0.2751796E-010  0.4778728E+02  0.7816164E-02  0.1312668E+00
        -11   -1    0    0    0    0  0.00000000000E+00  0.00000000000E+00  0.45593999997E+02  0.45594000000E+02  0.51100000000E-03 0.  1.
         11   -1    0    0    0    0 -0.00000000000E+00 -0.00000000000E+00 -0.45593999997E+02  0.45594000000E+02  0.51100000000E-03 0. -1.
    9900012    2    1    2    0    0  0.29863725085E+02 -0.31293085360E+02  0.35388657725E+01  0.47787276064E+02  0.20000022884E+02 0.  0.
         12    1    1    2    0    0 -0.29863725085E+02  0.31293085360E+02 -0.35388657725E+01  0.43400723936E+02  0.00000000000E+00 0. -1.
         11    1    3    3    0    0  0.18863767115E+02 -0.11452438601E+02 -0.39029792520E+01  0.22410562398E+02  0.51100000000E-03 0. -1.
        -11    1    3    3    0    0  0.76711636432E+01 -0.11583826333E+02  0.86894482272E+01  0.16387138094E+02  0.51100000000E-03 0.  1.
         12    1    3    3    0    0  0.33287943258E+01 -0.82568204256E+01 -0.12476032028E+01  0.89895755715E+01  0.00000000000E+00 0. -1.
</event>
<event>
 7    1  0.2751796E-010  0.4778727E+02  0.7816164E-02  0.1312668E+00
        -11   -1    0    0    0    0  0.00000000000E+00  0.00000000000E+00  0.45593999997E+02  0.45594000000E+02  0.51100000000E-03 0.  1.
         11   -1    0    0    0    0 -0.00000000000E+00 -0.00000000000E+00 -0.45593999997E+02  0.45594000000E+02  0.51100000000E-03 0. -1.
    9900012    2    1    2    0    0  0.42339588476E+02 -0.49755319740E+01  0.81379871147E+01  0.47787268382E+02  0.19999987861E+02 0.  0.
         12    1    1    2    0    0 -0.42339588476E+02  0.49755319740E+01 -0.81379871147E+01  0.43400731618E+02  0.00000000000E+00 0. -1.
         11    1    3    3    0    0  0.15291119872E+01  0.31240601588E+01 -0.11629489627E+01  0.36674767752E+01  0.51100000000E-03 0. -1.
        -11    1    3    3    0    0  0.86930210740E+01  0.24824436812E+01  0.40202922342E+01  0.98941342184E+01  0.51100000000E-03 0.  1.
         12    1    3    3    0    0  0.32117455414E+02 -0.10582035814E+02  0.52806438432E+01  0.34225657388E+02  0.00000000000E+00 0. -1.
</event>
<event>
 7    1  0.2751796E-010  0.4778727E+02  0.7816164E-02  0.1312668E+00
        -11   -1    0    0    0    0  0.00000000000E+00  0.00000000000E+00  0.45593999997E+02  0.45594000000E+02  0.51100000000E-03 0.  1.
         11   -1    0    0    0    0 -0.00000000000E+00 -0.00000000000E+00 -0.45593999997E+02  0.45594000000E+02  0.51100000000E-03 0. -1.
    9900012    2    1    2    0    0 -0.90393850276E+01  0.41162578126E+02  0.10370876479E+02  0.47787269607E+02  0.19999993447E+02 0.  0.
         12    1    1    2    0    0  0.90393850276E+01 -0.41162578126E+02 -0.10370876479E+02  0.43400730393E+02  0.00000000000E+00 0. -1.
         11    1    3    3    0    0 -0.93801802239E+01  0.16475578002E+02 -0.33340994359E+01  0.19249640798E+02  0.51100000000E-03 0.  1.
        -11    1    3    3    0    0 -0.77440253232E+00  0.22770168956E+02  0.12074803701E+02  0.25785289959E+02  0.51100000000E-03 0. -1.
        -12    1    3    3    0    0  0.11151977286E+01  0.19168311681E+01  0.16301722138E+01  0.27523388504E+01  0.00000000000E+00 0.  1.
</event>
