<event>
 7    1  0.7357971E-011  0.4778727E+02  0.7816164E-02  0.1312668E+00
        -11   -1    0    0    0    0  0.00000000000E+00  0.00000000000E+00  0.45593999997E+02  0.45594000000E+02  0.51100000000E-03 0. -1.
         11   -1    0    0    0    0 -0.00000000000E+00 -0.00000000000E+00 -0.45593999997E+02  0.45594000000E+02  0.51100000000E-03 0.  1.
    9900012    2    1    2    0    0  0.26368563090E+02  0.31258534793E+02 -0.14533621784E+02  0.47787270985E+02  0.19999999730E+02 0.  0.
         12    1    1    2    0    0 -0.26368563090E+02 -0.31258534793E+02  0.14533621784E+02  0.43400729015E+02  0.00000000000E+00 0. -1.
         11    1    3    3    0    0  0.33377556647E+01 -0.22645485286E+00  0.35520892568E+00  0.33642336898E+01  0.51100000000E-03 0. -1.
        -11    1    3    3    0    0  0.17791424620E+02  0.13771053142E+02 -0.36286363064E+01  0.22789113549E+02  0.51100000000E-03 0.  1.
        -12    1    3    3    0    0  0.52393828051E+01  0.17713936504E+02 -0.11260194404E+02  0.21633923746E+02  0.00000000000E+00 0.  1.
</event>
<event>
 7    1  0.7357971E-011  0.4778727E+02  0.7816164E-02  0.1312668E+00
        -11   -1    0    0    0    0  0.00000000000E+00  0.00000000000E+00  0.45593999997E+02  0.45594000000E+02  0.51100000000E-03 0. -1.
         11   -1    0    0    0    0 -0.00000000000E+00 -0.00000000000E+00 -0.45593999997E+02  0.45594000000E+02  0.51100000000E-03 0.  1.
    9900012    2    1    2    0    0 -0.34801421053E+02 -0.28064989770E+01  0.25779991633E+02  0.47787270600E+02  0.19999997974E+02 0.  0.
        -12    1    1    2    0    0  0.34801421053E+02  0.28064989770E+01 -0.25779991633E+02  0.43400729400E+02  0.00000000000E+00 0.  1.
         11    1    3    3    0    0 -0.32139845271E+02 -0.29007949352E+01  0.27112675445E+02  0.42148326602E+02  0.51100000000E-03 0. -1.
        -11    1    3    3    0    0  0.48015764169E+00  0.14789410241E+01  0.63744011060E+00  0.16805201782E+01  0.51100000000E-03 0.  1.
         12    1    3    3    0    0 -0.31417334240E+01 -0.13846450659E+01 -0.19701239228E+01  0.39584238197E+01  0.00000000000E+00 0. -1.
</event>
<event>
 7    1  0.8142826E-011  0.4778728E+02  0.7816164E-02  0.1312668E+00
        -11   -1    0    0    0    0  0.00000000000E+00  0.00000000000E+00  0.45593999997E+02  0.45594000000E+02  0.51100000000E-03 0. -1.
         11   -1    0    0    0    0 -0.00000000000E+00 -0.00000000000E+00 -0.45593999997E+02  0.45594000000E+02  0.51100000000E-03 0.  1.
    9900012    2    1    2    0    0  0.33928885900E+02  0.17199390653E+02  0.20895788932E+02  0.47787281892E+02  0.20000049457E+02 0.  0.
        -12    1    1    2    0    0 -0.33928885900E+02 -0.17199390653E+02 -0.20895788932E+02  0.43400718108E+02  0.00000000000E+00 0.  1.
         11    1    3    3    0    0  0.20735191622E+02  0.10566136368E+02  0.20815706612E+02  0.31223149287E+02  0.51100000000E-03 0. -1.
        -11    1    3    3    0    0  0.43583767762E+01  0.63016305152E+01 -0.66773438156E+00  0.76910249472E+01  0.51100000000E-03 0.  1.
         12    1    3    3    0    0  0.88353175023E+01  0.33162376909E+00  0.74781670067E+00  0.88731076579E+01  0.00000000000E+00 0. -1.
</event>
<event>
 7    1  0.7357971E-011  0.4778727E+02  0.7816164E-02  0.1312668E+00
        -11   -1    0    0    0    0  0.00000000000E+00  0.00000000000E+00  0.45593999997E+02  0.45594000000E+02  0.51100000000E-03 0. -1.
         11   -1    0    0    0    0 -0.00000000000E+00 -0.00000000000E+00 -0.45593999997E+02  0.45594000000E+02  0.51100000000E-03 0.  1.
    9900012    2    1    2    0    0 -0.70859222667E+01 -0.83899783888E+01  0.41988347388E+02  0.47787270189E+02  0.19999996100E+02 0.  0.
        -12    1    1    2    0    0  0.70859222667E+01  0.83899783888E+01 -0.41988347388E+02  0.43400729811E+02  0.00000000000E+00 0.  1.
         11    1    3    3    0    0 -0.90306670601E+01 -0.56812908090E+01  0.19917565295E+02  0.22595119392E+02  0.51100000000E-03 0. -1.
        -11    1    3    3    0    0  0.49786594932E+01 -0.56111890967E+01  0.17179852924E+02  0.18746195352E+02  0.51100000000E-03 0.  1.
        -12    1    3    3    0    0 -0.30339146998E+01  0.29025015169E+01  0.48909291696E+01  0.64459554454E+01  0.00000000000E+00 0.  1.
</event>
<event>
 7    1  0.7357971E-011  0.4778727E+02  0.7816164E-02  0.1312668E+00
        -11   -1    0    0    0    0  0.00000000000E+00  0.00000000000E+00  0.45593999997E+02  0.45594000000E+02  0.51100000000E-03 0.  1.
         11   -1    0    0    0    0 -0.00000000000E+00 -0.00000000000E+00 -0.45593999997E+02  0.45594000000E+02  0.51100000000E-03 0. -1.
    9900012    2    1    2    0    0  0.11595511162E+02  0.41734226226E+02 -0.27243613076E+01  0.47787266569E+02  0.19999979596E+02 0.  0.
         12    1    1    2    0    0 -0.11595511162E+02 -0.41734226226E+02  0.27243613076E+01  0.43400733431E+02  0.00000000000E+00 0. -1.
         11    1    3    3    0    0  0.19008774980E+00  0.35961345884E+01 -0.16378591434E+01  0.39561218592E+01  0.51100000000E-03 0. -1.
        -11    1    3    3    0    0  0.16183375165E+02  0.24608057972E+02 -0.12888379335E+01  0.29480828556E+02  0.51100000000E-03 0.  1.
        -12    1    3    3    0    0 -0.47779517529E+01  0.13530033666E+02  0.20233576929E+00  0.14350316154E+02  0.00000000000E+00 0.  1.
</event>
<event>
 7    1  0.7357971E-011  0.4778727E+02  0.7816164E-02  0.1312668E+00
        -11   -1    0    0    0    0  0.00000000000E+00  0.00000000000E+00  0.45593999997E+02  0.45594000000E+02  0.51100000000E-03 0. -1.
         11   -1    0    0    0    0 -0.00000000000E+00 -0.00000000000E+00 -0.45593999997E+02  0.45594000000E+02  0.51100000000E-03 0.  1.
    9900012    2    1    2    0    0  0.21200393169E+01 -0.17769513290E+02 -0.39539514867E+02  0.47787269532E+02  0.19999993103E+02 0.  0.
         12    1    1    2    0    0 -0.21200393169E+01  0.17769513290E+02  0.39539514867E+02  0.43400730468E+02  0.00000000000E+00 0. -1.
         11    1    3    3    0    0 -0.31971001412E+01 -0.63031925926E+01 -0.28976145106E+02  0.29825637824E+02  0.51100000000E-03 0. -1.
        -11    1    3    3    0    0  0.39721383100E+01 -0.56490265858E+01 -0.14338933604E+01  0.70530443463E+01  0.51100000000E-03 0.  1.
        -12    1    3    3    0    0  0.13450011481E+01 -0.58172941116E+01 -0.91294764005E+01  0.10908587361E+02  0.00000000000E+00 0.  1.
</event>
<event>
 7    1  0.7357971E-011  0.4778728E+02  0.7816164E-02  0.1312668E+00
        -11   -1    0    0    0    0  0.00000000000E+00  0.00000000000E+00  0.45593999997E+02  0.45594000000E+02  0.51100000000E-03 0. -1.
         11   -1    0    0    0    0 -0.00000000000E+00 -0.00000000000E+00 -0.45593999997E+02  0.45594000000E+02  0.51100000000E-03 0.  1.
    9900012    2    1    2    0    0  0.36566618163E+02 -0.14462065407E+02  0.18367197514E+02  0.47787275994E+02  0.20000022569E+02 0.  0.
        -12    1    1    2    0    0 -0.36566618163E+02  0.14462065407E+02 -0.18367197514E+02  0.43400724006E+02  0.00000000000E+00 0.  1.
         11    1    3    3    0    0  0.18974318259E+02 -0.12236471651E+01  0.38899574486E+01  0.19407571589E+02  0.51100000000E-03 0. -1.
        -11    1    3    3    0    0  0.75892868430E+01  0.18889505941E+00  0.35093600786E+01  0.83635258445E+01  0.51100000000E-03 0.  1.
         12    1    3    3    0    0  0.10003013061E+02 -0.13427313301E+02  0.10967879986E+02  0.20016178561E+02  0.00000000000E+00 0. -1.
</event>
<event>
 7    1  0.7357971E-011  0.4778728E+02  0.7816164E-02  0.1312668E+00
        -11   -1    0    0    0    0  0.00000000000E+00  0.00000000000E+00  0.45593999997E+02  0.45594000000E+02  0.51100000000E-03 0. -1.
         11   -1    0    0    0    0 -0.00000000000E+00 -0.00000000000E+00 -0.45593999997E+02  0.45594000000E+02  0.51100000000E-03 0.  1.
    9900012    2    1    2    0    0  0.19787535301E+02  0.13413227241E+02 -0.36223771791E+02  0.47787275800E+02  0.20000021684E+02 0.  0.
         12    1    1    2    0    0 -0.19787535301E+02 -0.13413227241E+02  0.36223771791E+02  0.43400724200E+02  0.00000000000E+00 0. -1.
         11    1    3    3    0    0  0.16441419792E+01  0.42028552836E+00  0.43728768314E+00  0.17524450211E+01  0.51100000000E-03 0. -1.
        -11    1    3    3    0    0  0.71380546202E+01  0.13601494944E+02 -0.13773725465E+02  0.20631723193E+02  0.51100000000E-03 0.  1.
         12    1    3    3    0    0  0.11005338701E+02 -0.60855323168E+00 -0.22887334009E+02  0.25403107586E+02  0.00000000000E+00 0. -1.
</event>
<event>
 7    1  0.7357971E-011  0.4778727E+02  0.7816164E-02  0.1312668E+00
        -11   -1    0    0    0    0  0.00000000000E+00  0.00000000000E+00  0.45593999997E+02  0.45594000000E+02  0.51100000000E-03 0. -1.
         11   -1    0    0    0    0 -0.00000000000E+00 -0.00000000000E+00 -0.45593999997E+02  0.45594000000E+02  0.51100000000E-03 0.  1.
    9900012    2    1    2    0    0  0.36243014905E+02 -0.75370350151E+01  0.22655250002E+02  0.47787269835E+02  0.19999994485E+02 0.  0.
        -12    1    1    2    0    0 -0.36243014905E+02  0.75370350151E+01 -0.22655250002E+02  0.43400730165E+02  0.00000000000E+00 0.  1.
         11    1    3    3    0    0  0.58405855279E+01 -0.58653300900E+00  0.19866181159E+01  0.61970244537E+01  0.51100000000E-03 0. -1.
        -11    1    3    3    0    0  0.16093262456E+02 -0.72124226221E+01  0.20810477634E+02  0.27277978594E+02  0.51100000000E-03 0.  1.
        -12    1    3    3    0    0  0.14309166920E+02  0.26192061597E+00 -0.14184574774E+00  0.14312266787E+02  0.00000000000E+00 0.  1.
</event>
<event>
 7    1  0.7357971E-011  0.4778727E+02  0.7816164E-02  0.1312668E+00
        -11   -1    0    0    0    0  0.00000000000E+00  0.00000000000E+00  0.45593999997E+02  0.45594000000E+02  0.51100000000E-03 0.  1.
         11   -1    0    0    0    0 -0.00000000000E+00 -0.00000000000E+00 -0.45593999997E+02  0.45594000000E+02  0.51100000000E-03 0. -1.
    9900012    2    1    2    0    0 -0.24011800000E+02 -0.33332250499E+02  0.14000654701E+02  0.47787265045E+02  0.19999972647E+02 0.  0.
         12    1    1    2    0    0  0.24011800000E+02  0.33332250499E+02 -0.14000654701E+02  0.43400734955E+02  0.00000000000E+00 0. -1.
         11    1    3    3    0    0 -0.34890967972E+01  0.42897155817E-01  0.64153509785E+01  0.73029011403E+01  0.51100000000E-03 0. -1.
        -11    1    3    3    0    0 -0.16920676997E+02 -0.24588234390E+02  0.82428932084E+01  0.30965074990E+02  0.51100000000E-03 0.  1.
         12    1    3    3    0    0 -0.36020262061E+01 -0.87869132647E+01 -0.65758948601E+00  0.95192889148E+01  0.00000000000E+00 0. -1.
</event>
<event>
 7    1  0.7357971E-011  0.4778727E+02  0.7816164E-02  0.1312668E+00
        -11   -1    0    0    0    0  0.00000000000E+00  0.00000000000E+00  0.45593999997E+02  0.45594000000E+02  0.51100000000E-03 0. -1.
         11   -1    0    0    0    0 -0.00000000000E+00 -0.00000000000E+00 -0.45593999997E+02  0.45594000000E+02  0.51100000000E-03 0.  1.
    9900012    2    1    2    0    0 -0.11442417170E+02  0.12743741122E+02 -0.39878459254E+02  0.47787270041E+02  0.19999995425E+02 0.  0.
         12    1    1    2    0    0  0.11442417170E+02 -0.12743741122E+02  0.39878459254E+02  0.43400729959E+02  0.00000000000E+00 0. -1.
         11    1    3    3    0    0 -0.77708670893E+01  0.29424090432E+01 -0.27554570649E+01  0.87542384131E+01  0.51100000000E-03 0. -1.
        -11    1    3    3    0    0 -0.25132276494E+01  0.92923002103E+01 -0.24139814263E+02  0.25988339487E+02  0.51100000000E-03 0.  1.
         12    1    3    3    0    0 -0.11583224313E+01  0.50903186820E+00 -0.12983187927E+02  0.13044692141E+02  0.00000000000E+00 0. -1.
</event>
<event>
 7    1  0.7357971E-011  0.4778727E+02  0.7816164E-02  0.1312668E+00
        -11   -1    0    0    0    0  0.00000000000E+00  0.00000000000E+00  0.45593999997E+02  0.45594000000E+02  0.51100000000E-03 0. -1.
         11   -1    0    0    0    0 -0.00000000000E+00 -0.00000000000E+00 -0.45593999997E+02  0.45594000000E+02  0.51100000000E-03 0.  1.
    9900012    2    1    2    0    0  0.10870888030E+02  0.35661792200E+02  0.22219004576E+02  0.47787265054E+02  0.19999972688E+02 0.  0.
        -12    1    1    2    0    0 -0.10870888030E+02 -0.35661792200E+02 -0.22219004576E+02  0.43400734946E+02  0.00000000000E+00 0.  1.
         11    1    3    3    0    0 -0.25554954460E+01  0.13176517664E+02  0.71826389295E+01  0.15223057412E+02  0.51100000000E-03 0. -1.
        -11    1    3    3    0    0 -0.17802004577E+01  0.67160910903E+01  0.42639827244E+01  0.81520882072E+01  0.51100000000E-03 0.  1.
         12    1    3    3    0    0  0.15206583934E+02  0.15769183446E+02  0.10772382922E+02  0.24412119435E+02  0.00000000000E+00 0. -1.
</event>
<event>
 7    1  0.7357971E-011  0.4778727E+02  0.7816164E-02  0.1312668E+00
        -11   -1    0    0    0    0  0.00000000000E+00  0.00000000000E+00  0.45593999997E+02  0.45594000000E+02  0.51100000000E-03 0. -1.
         11   -1    0    0    0    0 -0.00000000000E+00 -0.00000000000E+00 -0.45593999997E+02  0.45594000000E+02  0.51100000000E-03 0.  1.
    9900012    2    1    2    0    0  0.37247966909E+02 -0.16412474696E+02 -0.15061314615E+02  0.47787267720E+02  0.19999984842E+02 0.  0.
         12    1    1    2    0    0 -0.37247966909E+02  0.16412474696E+02  0.15061314615E+02  0.43400732280E+02  0.00000000000E+00 0. -1.
         11    1    3    3    0    0  0.81657343492E+00 -0.45804854940E+01  0.90815563452E-01  0.46535886435E+01  0.51100000000E-03 0. -1.
        -11    1    3    3    0    0  0.19850567867E+02 -0.33124297605E+01 -0.13882938879E+02  0.24448992366E+02  0.51100000000E-03 0.  1.
        -12    1    3    3    0    0  0.16580825608E+02 -0.85195594416E+01 -0.12691912995E+01  0.18684686710E+02  0.00000000000E+00 0.  1.
</event>
<event>
 7    1  0.7357971E-011  0.4778727E+02  0.7816164E-02  0.1312668E+00
        -11   -1    0    0    0    0  0.00000000000E+00  0.00000000000E+00  0.45593999997E+02  0.45594000000E+02  0.51100000000E-03 0. -1.
         11   -1    0    0    0    0 -0.00000000000E+00 -0.00000000000E+00 -0.45593999997E+02  0.45594000000E+02  0.51100000000E-03 0.  1.
    9900012    2    1    2    0    0 -0.39622539284E+02 -0.45644668949E+01  0.17112664109E+02  0.47787271317E+02  0.20000001243E+02 0.  0.
        -12    1    1    2    0    0  0.39622539284E+02  0.45644668949E+01 -0.17112664109E+02  0.43400728683E+02  0.00000000000E+00 0.  1.
         11    1    3    3    0    0 -0.18362813297E+02  0.51081555938E+01  0.39865795263E+01  0.19472518643E+02  0.51100000000E-03 0. -1.
        -11    1    3    3    0    0  0.41193621671E+00  0.54742251591E+00  0.15700598864E+01  0.17130239827E+01  0.51100000000E-03 0.  1.
         12    1    3    3    0    0 -0.21671662204E+02 -0.10220045005E+02  0.11556024696E+02  0.26601728691E+02  0.00000000000E+00 0. -1.
</event>
<event>
 7    1  0.7357971E-011  0.4778721E+02  0.7816164E-02  0.1312668E+00
        -11   -1    0    0    0    0  0.00000000000E+00  0.00000000000E+00  0.45593999997E+02  0.45594000000E+02  0.51100000000E-03 0. -1.
         11   -1    0    0    0    0 -0.00000000000E+00 -0.00000000000E+00 -0.45593999997E+02  0.45594000000E+02  0.51100000000E-03 0.  1.
    9900012    2    1    2    0    0 -0.18267194072E+02 -0.11814235736E+02 -0.37554786558E+02  0.47787210391E+02  0.19999723456E+02 0.  0.
         12    1    1    2    0    0  0.18267194072E+02  0.11814235736E+02  0.37554786558E+02  0.43400789609E+02  0.00000000000E+00 0. -1.
         11    1    3    3    0    0 -0.40874297709E+01 -0.64361971773E+01 -0.11426015630E+01  0.77095560721E+01  0.51100000000E-03 0. -1.
        -11    1    3    3    0    0 -0.13732387885E+02 -0.32846429323E+01 -0.34196148816E+02  0.36996539707E+02  0.51100000000E-03 0.  1.
        -12    1    3    3    0    0 -0.44737641620E+00 -0.20933956260E+01 -0.22160361788E+01  0.30811146118E+01  0.00000000000E+00 0.  1.
</event>
<event>
 7    1  0.7357971E-011  0.4778727E+02  0.7816164E-02  0.1312668E+00
        -11   -1    0    0    0    0  0.00000000000E+00  0.00000000000E+00  0.45593999997E+02  0.45594000000E+02  0.51100000000E-03 0. -1.
         11   -1    0    0    0    0 -0.00000000000E+00 -0.00000000000E+00 -0.45593999997E+02  0.45594000000E+02  0.51100000000E-03 0.  1.
    9900012    2    1    2    0    0  0.23473023531E+01  0.87622729174E+01 -0.42442147677E+02  0.47787272420E+02  0.20000006272E+02 0.  0.
         12    1    1    2    0    0 -0.23473023531E+01 -0.87622729174E+01  0.42442147677E+02  0.43400727580E+02  0.00000000000E+00 0. -1.
         11    1    3    3    0    0 -0.68645989957E+01  0.26301928212E+01 -0.79628855894E+01  0.10837351190E+02  0.51100000000E-03 0. -1.
        -11    1    3    3    0    0  0.10035193374E+02  0.51073227066E+01 -0.25506478519E+02  0.27881361122E+02  0.51100000000E-03 0.  1.
         12    1    3    3    0    0 -0.82329202530E+00  0.10247573897E+01 -0.89727835683E+01  0.90685601079E+01  0.00000000000E+00 0. -1.
</event>
<event>
 7    1  0.7357971E-011  0.4778727E+02  0.7816164E-02  0.1312668E+00
        -11   -1    0    0    0    0  0.00000000000E+00  0.00000000000E+00  0.45593999997E+02  0.45594000000E+02  0.51100000000E-03 0. -1.
         11   -1    0    0    0    0 -0.00000000000E+00 -0.00000000000E+00 -0.45593999997E+02  0.45594000000E+02  0.51100000000E-03 0.  1.
    9900012    2    1    2    0    0 -0.19797396798E+02  0.19908997961E+02 -0.33095592757E+02  0.47787269825E+02  0.19999994441E+02 0.  0.
         12    1    1    2    0    0  0.19797396798E+02 -0.19908997961E+02  0.33095592757E+02  0.43400730175E+02  0.00000000000E+00 0. -1.
         11    1    3    3    0    0 -0.59918927542E+01  0.28238882858E+01 -0.15263929663E+02  0.16639250970E+02  0.51100000000E-03 0. -1.
        -11    1    3    3    0    0 -0.14203788954E+02  0.88422729218E+01 -0.87650983095E+01  0.18888101009E+02  0.51100000000E-03 0.  1.
        -12    1    3    3    0    0  0.39828491016E+00  0.82428367535E+01 -0.90665647836E+01  0.12259917846E+02  0.00000000000E+00 0.  1.
</event>
<event>
 7    1  0.7357971E-011  0.4778727E+02  0.7816164E-02  0.1312668E+00
        -11   -1    0    0    0    0  0.00000000000E+00  0.00000000000E+00  0.45593999997E+02  0.45594000000E+02  0.51100000000E-03 0. -1.
         11   -1    0    0    0    0 -0.00000000000E+00 -0.00000000000E+00 -0.45593999997E+02  0.45594000000E+02  0.51100000000E-03 0.  1.
    9900012    2    1    2    0    0  0.20912499776E+02  0.28540360480E+02  0.25134416413E+02  0.47787266002E+02  0.19999977007E+02 0.  0.
        -12    1    1    2    0    0 -0.20912499776E+02 -0.28540360480E+02 -0.25134416413E+02  0.43400733998E+02  0.00000000000E+00 0.  1.
         11    1    3    3    0    0  0.83638259507E+01  0.14738593456E+02  0.10854225584E+02  0.20124461108E+02  0.51100000000E-03 0. -1.
        -11    1    3    3    0    0  0.10115540451E+02  0.30896224016E+01  0.12972236860E+01  0.10656111615E+02  0.51100000000E-03 0.  1.
        -12    1    3    3    0    0  0.24331333736E+01  0.10712144622E+02  0.12982967143E+02  0.17006693278E+02  0.00000000000E+00 0.  1.
</event>
<event>
 7    1  0.7357971E-011  0.4778724E+02  0.7816164E-02  0.1312668E+00
        -11   -1    0    0    0    0  0.00000000000E+00  0.00000000000E+00  0.45593999997E+02  0.45594000000E+02  0.51100000000E-03 0. -1.
         11   -1    0    0    0    0 -0.00000000000E+00 -0.00000000000E+00 -0.45593999997E+02  0.45594000000E+02  0.51100000000E-03 0.  1.
    9900012    2    1    2    0    0  0.31129484421E+01  0.71864760004E+01 -0.42688292837E+02  0.47787236981E+02  0.19999844692E+02 0.  0.
         12    1    1    2    0    0 -0.31129484421E+01 -0.71864760004E+01  0.42688292837E+02  0.43400763019E+02  0.00000000000E+00 0. -1.
         11    1    3    3    0    0 -0.49027555315E+00 -0.14285319427E+01 -0.73773180215E+00  0.16808694483E+01  0.51100000000E-03 0. -1.
        -11    1    3    3    0    0  0.46505616984E+01  0.28197929951E+01 -0.21111296085E+01  0.58340230656E+01  0.51100000000E-03 0.  1.
        -12    1    3    3    0    0 -0.10473377031E+01  0.57952149480E+01 -0.39839431426E+02  0.40272344467E+02  0.00000000000E+00 0.  1.
</event>
<event>
 7    1  0.7357971E-011  0.4778728E+02  0.7816164E-02  0.1312668E+00
        -11   -1    0    0    0    0  0.00000000000E+00  0.00000000000E+00  0.45593999997E+02  0.45594000000E+02  0.51100000000E-03 0. -1.
         11   -1    0    0    0    0 -0.00000000000E+00 -0.00000000000E+00 -0.45593999997E+02  0.45594000000E+02  0.51100000000E-03 0.  1.
    9900012    2    1    2    0    0 -0.13673767824E+02 -0.25641448086E+01  0.41110529575E+02  0.47787281030E+02  0.20000045530E+02 0.  0.
        -12    1    1    2    0    0  0.13673767824E+02  0.25641448086E+01 -0.41110529575E+02  0.43400718970E+02  0.00000000000E+00 0.  1.
         11    1    3    3    0    0 -0.43953627054E+01 -0.41118270662E+01  0.29309623293E+02  0.29921235819E+02  0.51100000000E-03 0. -1.
        -11    1    3    3    0    0 -0.27721035623E+01  0.52432304995E+01  0.52893743919E+01  0.79469180158E+01  0.51100000000E-03 0.  1.
         12    1    3    3    0    0 -0.65063015564E+01 -0.36955482419E+01  0.65115318908E+01  0.99191271953E+01  0.00000000000E+00 0. -1.
</event>
<event>
 7    1  0.7357971E-011  0.4778728E+02  0.7816164E-02  0.1312668E+00
        -11   -1    0    0    0    0  0.00000000000E+00  0.00000000000E+00  0.45593999997E+02  0.45594000000E+02  0.51100000000E-03 0. -1.
         11   -1    0    0    0    0 -0.00000000000E+00 -0.00000000000E+00 -0.45593999997E+02  0.45594000000E+02  0.51100000000E-03 0.  1.
    9900012    2    1    2    0    0  0.22511214112E+02 -0.11283754549E+02  0.35348901939E+02  0.47787277128E+02  0.20000027737E+02 0.  0.
        -12    1    1    2    0    0 -0.22511214112E+02  0.11283754549E+02 -0.35348901939E+02  0.43400722872E+02  0.00000000000E+00 0.  1.
         11    1    3    3    0    0  0.14084713824E+02 -0.41350237548E+01  0.19713092103E+02  0.24578111918E+02  0.51100000000E-03 0. -1.
        -11    1    3    3    0    0 -0.27119303019E+00  0.63761833088E+00 -0.19679914588E+01  0.20864068248E+01  0.51100000000E-03 0.  1.
        -12    1    3    3    0    0  0.86976933188E+01 -0.77863491252E+01  0.17603801295E+02  0.21122758385E+02  0.00000000000E+00 0.  1.
</event>
<event>
 7    1  0.7357971E-011  0.4778727E+02  0.7816164E-02  0.1312668E+00
        -11   -1    0    0    0    0  0.00000000000E+00  0.00000000000E+00  0.45593999997E+02  0.45594000000E+02  0.51100000000E-03 0. -1.
         11   -1    0    0    0    0 -0.00000000000E+00 -0.00000000000E+00 -0.45593999997E+02  0.45594000000E+02  0.51100000000E-03 0.  1.
    9900012    2    1    2    0    0  0.40890098646E+02 -0.58638102948E+01  0.13313102797E+02  0.47787272534E+02  0.20000006792E+02 0.  0.
        -12    1    1    2    0    0 -0.40890098646E+02  0.58638102948E+01 -0.13313102797E+02  0.43400727466E+02  0.00000000000E+00 0.  1.
         11    1    3    3    0    0  0.18543788004E+02 -0.22634907039E+01 -0.34781867708E+01  0.19002453715E+02  0.51100000000E-03 0. -1.
        -11    1    3    3    0    0  0.20464511158E+01  0.83439610838E+00  0.34324830958E+01  0.40824158900E+01  0.51100000000E-03 0.  1.
         12    1    3    3    0    0  0.20299859526E+02 -0.44347156994E+01  0.13358806473E+02  0.24702402930E+02  0.00000000000E+00 0. -1.
</event>
<event>
 7    1  0.7357971E-011  0.4778726E+02  0.7816164E-02  0.1312668E+00
        -11   -1    0    0    0    0  0.00000000000E+00  0.00000000000E+00  0.45593999997E+02  0.45594000000E+02  0.51100000000E-03 0. -1.
         11   -1    0    0    0    0 -0.00000000000E+00 -0.00000000000E+00 -0.45593999997E+02  0.45594000000E+02  0.51100000000E-03 0.  1.
    9900012    2    1    2    0    0 -0.72972266235E+01  0.16598185127E+02  0.39431898650E+02  0.47787263865E+02  0.19999967266E+02 0.  0.
        -12    1    1    2    0    0  0.72972266235E+01 -0.16598185127E+02 -0.39431898650E+02  0.43400736135E+02  0.00000000000E+00 0.  1.
         11    1    3    3    0    0  0.33136162750E+01  0.10792348518E+02  0.28636342367E+02  0.30781405812E+02  0.51100000000E-03 0. -1.
        -11    1    3    3    0    0 -0.66737855040E+01  0.82145489764E+00  0.47124802959E+01  0.82110700826E+01  0.51100000000E-03 0.  1.
         12    1    3    3    0    0 -0.39370573945E+01  0.49843817113E+01  0.60830759873E+01  0.87947879701E+01  0.00000000000E+00 0. -1.
</event>
<event>
 7    1  0.7357971E-011  0.4778727E+02  0.7816164E-02  0.1312668E+00
        -11   -1    0    0    0    0  0.00000000000E+00  0.00000000000E+00  0.45593999997E+02  0.45594000000E+02  0.51100000000E-03 0. -1.
         11   -1    0    0    0    0 -0.00000000000E+00 -0.00000000000E+00 -0.45593999997E+02  0.45594000000E+02  0.51100000000E-03 0.  1.
    9900012    2    1    2    0    0  0.65072002539E+01 -0.22655972392E+02  0.36441553050E+02  0.47787268107E+02  0.19999986607E+02 0.  0.
        -12    1    1    2    0    0 -0.65072002539E+01  0.22655972392E+02 -0.36441553050E+02  0.43400731893E+02  0.00000000000E+00 0.  1.
         11    1    3    3    0    0  0.74033798749E+01 -0.19336872553E+02  0.20478573655E+02  0.29122099047E+02  0.51100000000E-03 0. -1.
        -11    1    3    3    0    0 -0.32749684884E+01 -0.97652181866E+00  0.14705858232E+02  0.15097724334E+02  0.51100000000E-03 0.  1.
        -12    1    3    3    0    0  0.23787888674E+01 -0.23425780201E+01  0.12571211630E+01  0.35674447261E+01  0.00000000000E+00 0.  1.
</event>
<event>
 7    1  0.7357971E-011  0.4778727E+02  0.7816164E-02  0.1312668E+00
        -11   -1    0    0    0    0  0.00000000000E+00  0.00000000000E+00  0.45593999997E+02  0.45594000000E+02  0.51100000000E-03 0.  1.
         11   -1    0    0    0    0 -0.00000000000E+00 -0.00000000000E+00 -0.45593999997E+02  0.45594000000E+02  0.51100000000E-03 0. -1.
    9900012    2    1    2    0    0  0.18849447800E+02  0.16799350760E+02  0.35300187061E+02  0.47787273337E+02  0.20000010452E+02 0.  0.
        -12    1    1    2    0    0 -0.18849447800E+02 -0.16799350760E+02 -0.35300187061E+02  0.43400726663E+02  0.00000000000E+00 0.  1.
         11    1    3    3    0    0  0.29667129849E+01  0.97207671369E+01  0.94369288860E+01  0.13869042026E+02  0.51100000000E-03 0. -1.
        -11    1    3    3    0    0  0.47424838953E+01 -0.39205104672E+01  0.90635136273E+01  0.10954854420E+02  0.51100000000E-03 0.  1.
        -12    1    3    3    0    0  0.11140250920E+02  0.10999094090E+02  0.16799744548E+02  0.22963376891E+02  0.00000000000E+00 0.  1.
</event>
<event>
 7    1  0.7357971E-011  0.4778727E+02  0.7816164E-02  0.1312668E+00
        -11   -1    0    0    0    0  0.00000000000E+00  0.00000000000E+00  0.45593999997E+02  0.45594000000E+02  0.51100000000E-03 0. -1.
         11   -1    0    0    0    0 -0.00000000000E+00 -0.00000000000E+00 -0.45593999997E+02  0.45594000000E+02  0.51100000000E-03 0.  1.
    9900012    2    1    2    0    0  0.25667479744E+02 -0.26112654773E+02  0.23300931953E+02  0.47787266301E+02  0.19999978375E+02 0.  0.
        -12    1    1    2    0    0 -0.25667479744E+02  0.26112654773E+02 -0.23300931953E+02  0.43400733699E+02  0.00000000000E+00 0.  1.
         11    1    3    3    0    0  0.81081138802E+01 -0.14666201735E+02  0.47621214995E+01  0.17421733136E+02  0.51100000000E-03 0. -1.
        -11    1    3    3    0    0  0.13751334227E+02 -0.30766692971E+01  0.14810803839E+02  0.20443213974E+02  0.51100000000E-03 0.  1.
        -12    1    3    3    0    0  0.38080316369E+01 -0.83697837400E+01  0.37280066148E+01  0.99223191906E+01  0.00000000000E+00 0.  1.
</event>
<event>
 7    1  0.7357971E-011  0.4778727E+02  0.7816164E-02  0.1312668E+00
        -11   -1    0    0    0    0  0.00000000000E+00  0.00000000000E+00  0.45593999997E+02  0.45594000000E+02  0.51100000000E-03 0. -1.
         11   -1    0    0    0    0 -0.00000000000E+00 -0.00000000000E+00 -0.45593999997E+02  0.45594000000E+02  0.51100000000E-03 0.  1.
    9900012    2    1    2    0    0 -0.94361448005E+01 -0.17874968483E+02  0.38406615044E+02  0.47787269521E+02  0.19999993054E+02 0.  0.
        -12    1    1    2    0    0  0.94361448005E+01  0.17874968483E+02 -0.38406615044E+02  0.43400730479E+02  0.00000000000E+00 0.  1.
         11    1    3    3    0    0 -0.80580632575E+01 -0.39217612248E+01  0.10763982237E+02  0.14006281034E+02  0.51100000000E-03 0. -1.
        -11    1    3    3    0    0  0.57276437615E+01 -0.75435057422E+01  0.17062669362E+02  0.19515252188E+02  0.51100000000E-03 0.  1.
        -12    1    3    3    0    0 -0.71057253045E+01 -0.64097015157E+01  0.10579963446E+02  0.14265736298E+02  0.00000000000E+00 0.  1.
</event>
<event>
 7    1  0.7357971E-011  0.4778727E+02  0.7816164E-02  0.1312668E+00
        -11   -1    0    0    0    0  0.00000000000E+00  0.00000000000E+00  0.45593999997E+02  0.45594000000E+02  0.51100000000E-03 0. -1.
         11   -1    0    0    0    0 -0.00000000000E+00 -0.00000000000E+00 -0.45593999997E+02  0.45594000000E+02  0.51100000000E-03 0.  1.
    9900012    2    1    2    0    0  0.13150573665E+02 -0.20812549452E+02  0.35742462566E+02  0.47787269214E+02  0.19999991656E+02 0.  0.
        -12    1    1    2    0    0 -0.13150573665E+02  0.20812549452E+02 -0.35742462566E+02  0.43400730786E+02  0.00000000000E+00 0.  1.
         11    1    3    3    0    0  0.24925741072E+01 -0.74544016640E+01  0.26516437381E+02  0.27656870421E+02  0.51100000000E-03 0. -1.
        -11    1    3    3    0    0  0.43572558402E+01 -0.54056627076E+01  0.89160542323E+00  0.70001305886E+01  0.51100000000E-03 0.  1.
        -12    1    3    3    0    0  0.63007437178E+01 -0.79524850806E+01  0.83344197622E+01  0.13130268205E+02  0.00000000000E+00 0.  1.
</event>
<event>
 7    1  0.7357971E-011  0.4778727E+02  0.7816164E-02  0.1312668E+00
        -11   -1    0    0    0    0  0.00000000000E+00  0.00000000000E+00  0.45593999997E+02  0.45594000000E+02  0.51100000000E-03 0. -1.
         11   -1    0    0    0    0 -0.00000000000E+00 -0.00000000000E+00 -0.45593999997E+02  0.45594000000E+02  0.51100000000E-03 0.  1.
    9900012    2    1    2    0    0  0.28788459468E+02  0.13607086638E+02  0.29490595423E+02  0.47787269318E+02  0.19999992129E+02 0.  0.
        -12    1    1    2    0    0 -0.28788459468E+02 -0.13607086638E+02 -0.29490595423E+02  0.43400730682E+02  0.00000000000E+00 0.  1.
         11    1    3    3    0    0  0.72100916237E+01  0.46830975503E+01 -0.10398953478E+01  0.86601504885E+01  0.51100000000E-03 0. -1.
        -11    1    3    3    0    0 -0.35132244822E+00 -0.49017995072E+00  0.66489910135E+00  0.89766080609E+00  0.51100000000E-03 0.  1.
         12    1    3    3    0    0  0.21929690293E+02  0.94141690383E+01  0.29865591669E+02  0.38229458024E+02  0.00000000000E+00 0. -1.
</event>
<event>
 7    1  0.7357971E-011  0.4778727E+02  0.7816164E-02  0.1312668E+00
        -11   -1    0    0    0    0  0.00000000000E+00  0.00000000000E+00  0.45593999997E+02  0.45594000000E+02  0.51100000000E-03 0.  1.
         11   -1    0    0    0    0 -0.00000000000E+00 -0.00000000000E+00 -0.45593999997E+02  0.45594000000E+02  0.51100000000E-03 0. -1.
    9900012    2    1    2    0    0 -0.40957614044E+02  0.32087136321E+01 -0.13992901249E+02  0.47787271012E+02  0.19999999850E+02 0.  0.
        -12    1    1    2    0    0  0.40957614044E+02 -0.32087136321E+01  0.13992901249E+02  0.43400728988E+02  0.00000000000E+00 0.  1.
         11    1    3    3    0    0 -0.54172607067E+01  0.82129244813E+00 -0.19638121401E+01  0.58204633176E+01  0.51100000000E-03 0. -1.
        -11    1    3    3    0    0 -0.21356985992E+02  0.21704379793E+01 -0.16520197738E+02  0.27087794027E+02  0.51100000000E-03 0.  1.
        -12    1    3    3    0    0 -0.14183367346E+02  0.21698320472E+00  0.44911086294E+01  0.14879013667E+02  0.00000000000E+00 0.  1.
</event>
<event>
 7    1  0.7357971E-011  0.4778727E+02  0.7816164E-02  0.1312668E+00
        -11   -1    0    0    0    0  0.00000000000E+00  0.00000000000E+00  0.45593999997E+02  0.45594000000E+02  0.51100000000E-03 0. -1.
         11   -1    0    0    0    0 -0.00000000000E+00 -0.00000000000E+00 -0.45593999997E+02  0.45594000000E+02  0.51100000000E-03 0.  1.
    9900012    2    1    2    0    0 -0.56918633430E+01  0.20554975186E+02  0.37798400309E+02  0.47787269832E+02  0.19999994472E+02 0.  0.
        -12    1    1    2    0    0  0.56918633430E+01 -0.20554975186E+02 -0.37798400309E+02  0.43400730168E+02  0.00000000000E+00 0.  1.
         11    1    3    3    0    0 -0.79526691017E+01  0.12484876604E+02  0.98698551279E+01  0.17791321766E+02  0.51100000000E-03 0. -1.
        -11    1    3    3    0    0 -0.53935515135E-01 -0.93364646621E+00  0.74201169289E+01  0.74788194432E+01  0.51100000000E-03 0.  1.
         12    1    3    3    0    0  0.23147412738E+01  0.90037450479E+01  0.20508428252E+02  0.22517128623E+02  0.00000000000E+00 0. -1.
</event>
<event>
 7    1  0.7357971E-011  0.4778727E+02  0.7816164E-02  0.1312668E+00
        -11   -1    0    0    0    0  0.00000000000E+00  0.00000000000E+00  0.45593999997E+02  0.45594000000E+02  0.51100000000E-03 0. -1.
         11   -1    0    0    0    0 -0.00000000000E+00 -0.00000000000E+00 -0.45593999997E+02  0.45594000000E+02  0.51100000000E-03 0.  1.
    9900012    2    1    2    0    0  0.28857491145E+02  0.38449802024E+01  0.32188265325E+02  0.47787273133E+02  0.20000009522E+02 0.  0.
        -12    1    1    2    0    0 -0.28857491145E+02 -0.38449802024E+01 -0.32188265325E+02  0.43400726867E+02  0.00000000000E+00 0.  1.
         11    1    3    3    0    0 -0.11168247541E-01  0.11261731351E+00  0.99326521095E+01  0.99332968131E+01  0.51100000000E-03 0.  1.
        -11    1    3    3    0    0  0.27767074458E+02  0.31892153799E+01  0.23184596492E+02  0.36314006023E+02  0.51100000000E-03 0. -1.
         12    1    3    3    0    0  0.11015849353E+01  0.54314750898E+00 -0.92898327660E+00  0.15399702966E+01  0.00000000000E+00 0. -1.
</event>
<event>
 7    1  0.7357971E-011  0.4778728E+02  0.7816164E-02  0.1312668E+00
        -11   -1    0    0    0    0  0.00000000000E+00  0.00000000000E+00  0.45593999997E+02  0.45594000000E+02  0.51100000000E-03 0.  1.
         11   -1    0    0    0    0 -0.00000000000E+00 -0.00000000000E+00 -0.45593999997E+02  0.45594000000E+02  0.51100000000E-03 0. -1.
    9900012    2    1    2    0    0 -0.36145630449E+02 -0.14301719016E+02  0.19302246566E+02  0.47787280077E+02  0.20000041184E+02 0.  0.
        -12    1    1    2    0    0  0.36145630449E+02  0.14301719016E+02 -0.19302246566E+02  0.43400719923E+02  0.00000000000E+00 0.  1.
         11    1    3    3    0    0 -0.14269299322E+02 -0.12752452840E+02  0.42072210284E+01  0.19594352901E+02  0.51100000000E-03 0. -1.
        -11    1    3    3    0    0 -0.12008442853E+02 -0.15799930079E+01  0.13601462775E+02  0.18212601888E+02  0.51100000000E-03 0.  1.
        -12    1    3    3    0    0 -0.98678882744E+01  0.30726832083E-01  0.14935627627E+01  0.99803252883E+01  0.00000000000E+00 0.  1.
</event>
<event>
 7    1  0.7357971E-011  0.4778727E+02  0.7816164E-02  0.1312668E+00
        -11   -1    0    0    0    0  0.00000000000E+00  0.00000000000E+00  0.45593999997E+02  0.45594000000E+02  0.51100000000E-03 0. -1.
         11   -1    0    0    0    0 -0.00000000000E+00 -0.00000000000E+00 -0.45593999997E+02  0.45594000000E+02  0.51100000000E-03 0.  1.
    9900012    2    1    2    0    0 -0.39333011860E+01  0.27251385368E+02  0.33548688758E+02  0.47787269821E+02  0.19999994422E+02 0.  0.
        -12    1    1    2    0    0  0.39333011860E+01 -0.27251385368E+02 -0.33548688758E+02  0.43400730179E+02  0.00000000000E+00 0.  1.
         11    1    3    3    0    0  0.25789336864E+01  0.17760563517E+02  0.28429919385E+02  0.33620660789E+02  0.51100000000E-03 0. -1.
        -11    1    3    3    0    0 -0.46565540773E+01  0.10124525719E+02  0.36851652451E+01  0.11737544891E+02  0.51100000000E-03 0.  1.
        -12    1    3    3    0    0 -0.18556807951E+01 -0.63370386858E+00  0.14336041279E+01  0.24290641412E+01  0.00000000000E+00 0.  1.
</event>
<event>
 7    1  0.7357971E-011  0.4778726E+02  0.7816164E-02  0.1312668E+00
        -11   -1    0    0    0    0  0.00000000000E+00  0.00000000000E+00  0.45593999997E+02  0.45594000000E+02  0.51100000000E-03 0.  1.
         11   -1    0    0    0    0 -0.00000000000E+00 -0.00000000000E+00 -0.45593999997E+02  0.45594000000E+02  0.51100000000E-03 0. -1.
    9900012    2    1    2    0    0  0.67298823693E+00 -0.37084929661E+02 -0.22536170286E+02  0.47787263921E+02  0.19999967519E+02 0.  0.
         12    1    1    2    0    0 -0.67298823693E+00  0.37084929661E+02  0.22536170286E+02  0.43400736079E+02  0.00000000000E+00 0. -1.
         11    1    3    3    0    0 -0.38343880471E+01 -0.23603552494E+02 -0.59884532060E+01  0.24651405520E+02  0.51100000000E-03 0. -1.
        -11    1    3    3    0    0  0.17131929003E+01 -0.59574035129E+01 -0.19868422259E+01  0.65094722383E+01  0.51100000000E-03 0.  1.
         12    1    3    3    0    0  0.27941833838E+01 -0.75239736536E+01 -0.14560874854E+02  0.16626386163E+02  0.00000000000E+00 0. -1.
</event>
<event>
 7    1  0.7357971E-011  0.4778727E+02  0.7816164E-02  0.1312668E+00
        -11   -1    0    0    0    0  0.00000000000E+00  0.00000000000E+00  0.45593999997E+02  0.45594000000E+02  0.51100000000E-03 0. -1.
         11   -1    0    0    0    0 -0.00000000000E+00 -0.00000000000E+00 -0.45593999997E+02  0.45594000000E+02  0.51100000000E-03 0.  1.
    9900012    2    1    2    0    0  0.52284483017E+01  0.41626535060E+02 -0.11113877630E+02  0.47787269952E+02  0.19999995019E+02 0.  0.
         12    1    1    2    0    0 -0.52284483017E+01 -0.41626535060E+02  0.11113877630E+02  0.43400730048E+02  0.00000000000E+00 0. -1.
         11    1    3    3    0    0  0.65675996286E+01  0.54316081291E+01  0.22878093534E+00  0.85257300407E+01  0.51100000000E-03 0. -1.
        -11    1    3    3    0    0 -0.39457196565E+01  0.33664393600E+02 -0.10886012005E+02  0.35600075249E+02  0.51100000000E-03 0.  1.
        -12    1    3    3    0    0  0.26065683295E+01  0.25305333304E+01 -0.45664656019E+00  0.36614646623E+01  0.00000000000E+00 0.  1.
</event>
<event>
 7    1  0.7357971E-011  0.4778727E+02  0.7816164E-02  0.1312668E+00
        -11   -1    0    0    0    0  0.00000000000E+00  0.00000000000E+00  0.45593999997E+02  0.45594000000E+02  0.51100000000E-03 0. -1.
         11   -1    0    0    0    0 -0.00000000000E+00 -0.00000000000E+00 -0.45593999997E+02  0.45594000000E+02  0.51100000000E-03 0.  1.
    9900012    2    1    2    0    0  0.71251316303E+00 -0.69314855177E+01 -0.42837716428E+02  0.47787272872E+02  0.20000008331E+02 0.  0.
         12    1    1    2    0    0 -0.71251316303E+00  0.69314855177E+01  0.42837716428E+02  0.43400727128E+02  0.00000000000E+00 0. -1.
         11    1    3    3    0    0 -0.13441035296E+01 -0.59726737672E+00 -0.18910900734E+01  0.23957388306E+01  0.51100000000E-03 0. -1.
        -11    1    3    3    0    0 -0.68653134984E+01 -0.25557366472E+01 -0.29494247432E+02  0.30390375962E+02  0.51100000000E-03 0.  1.
        -12    1    3    3    0    0  0.89219301910E+01 -0.37784814938E+01 -0.11452378922E+02  0.15001158079E+02  0.00000000000E+00 0.  1.
</event>
<event>
 7    1  0.7357971E-011  0.4778728E+02  0.7816164E-02  0.1312668E+00
        -11   -1    0    0    0    0  0.00000000000E+00  0.00000000000E+00  0.45593999997E+02  0.45594000000E+02  0.51100000000E-03 0. -1.
         11   -1    0    0    0    0 -0.00000000000E+00 -0.00000000000E+00 -0.45593999997E+02  0.45594000000E+02  0.51100000000E-03 0.  1.
    9900012    2    1    2    0    0 -0.66511868874E+01 -0.16519493489E+02 -0.39578918925E+02  0.47787276787E+02  0.20000026182E+02 0.  0.
         12    1    1    2    0    0  0.66511868874E+01  0.16519493489E+02  0.39578918925E+02  0.43400723213E+02  0.00000000000E+00 0. -1.
         11    1    3    3    0    0 -0.72676362057E+01  0.14852110867E+01 -0.69280740877E+01  0.10150004868E+02  0.51100000000E-03 0. -1.
        -11    1    3    3    0    0 -0.10758942063E+01 -0.92859729741E+01 -0.21005115367E+02  0.22991339984E+02  0.51100000000E-03 0.  1.
         12    1    3    3    0    0  0.16923435246E+01 -0.87187316013E+01 -0.11645729471E+02  0.14645931935E+02  0.00000000000E+00 0. -1.
</event>
<event>
 7    1  0.7357971E-011  0.4778727E+02  0.7816164E-02  0.1312668E+00
        -11   -1    0    0    0    0  0.00000000000E+00  0.00000000000E+00  0.45593999997E+02  0.45594000000E+02  0.51100000000E-03 0. -1.
         11   -1    0    0    0    0 -0.00000000000E+00 -0.00000000000E+00 -0.45593999997E+02  0.45594000000E+02  0.51100000000E-03 0.  1.
    9900012    2    1    2    0    0 -0.19457534774E+01  0.25064618133E+02 -0.35377988933E+02  0.47787272590E+02  0.20000007046E+02 0.  0.
         12    1    1    2    0    0  0.19457534774E+01 -0.25064618133E+02  0.35377988933E+02  0.43400727410E+02  0.00000000000E+00 0. -1.
         11    1    3    3    0    0  0.86114246368E+00  0.23345202034E+01 -0.18268771797E+02  0.18437450316E+02  0.51100000000E-03 0.  1.
        -11    1    3    3    0    0 -0.30511440888E+01  0.18522420724E+02 -0.10494319033E+02  0.21506284708E+02  0.51100000000E-03 0. -1.
        -12    1    3    3    0    0  0.24424814769E+00  0.42076772063E+01 -0.66148981033E+01  0.78435375658E+01  0.00000000000E+00 0.  1.
</event>
<event>
 7    1  0.7357971E-011  0.4778727E+02  0.7816164E-02  0.1312668E+00
        -11   -1    0    0    0    0  0.00000000000E+00  0.00000000000E+00  0.45593999997E+02  0.45594000000E+02  0.51100000000E-03 0. -1.
         11   -1    0    0    0    0 -0.00000000000E+00 -0.00000000000E+00 -0.45593999997E+02  0.45594000000E+02  0.51100000000E-03 0.  1.
    9900012    2    1    2    0    0  0.14518463044E+02 -0.53813429569E+00 -0.40896794097E+02  0.47787272759E+02  0.20000007817E+02 0.  0.
         12    1    1    2    0    0 -0.14518463044E+02  0.53813429569E+00  0.40896794097E+02  0.43400727241E+02  0.00000000000E+00 0. -1.
         11    1    3    3    0    0  0.14082490457E+02 -0.77504236613E+01 -0.24634131068E+02  0.29414724512E+02  0.51100000000E-03 0. -1.
        -11    1    3    3    0    0  0.11608218716E+01  0.50347713713E+01 -0.14737497645E+02  0.15616986498E+02  0.51100000000E-03 0.  1.
         12    1    3    3    0    0 -0.72484928524E+00  0.21775179942E+01 -0.15251653840E+01  0.27555617485E+01  0.00000000000E+00 0. -1.
</event>
<event>
 7    1  0.7357971E-011  0.4778725E+02  0.7816164E-02  0.1312668E+00
        -11   -1    0    0    0    0  0.00000000000E+00  0.00000000000E+00  0.45593999997E+02  0.45594000000E+02  0.51100000000E-03 0. -1.
         11   -1    0    0    0    0 -0.00000000000E+00 -0.00000000000E+00 -0.45593999997E+02  0.45594000000E+02  0.51100000000E-03 0.  1.
    9900012    2    1    2    0    0 -0.10670202674E+01  0.62892682817E+01  0.42929379330E+02  0.47787250727E+02  0.19999907366E+02 0.  0.
        -12    1    1    2    0    0  0.10670202674E+01 -0.62892682817E+01 -0.42929379330E+02  0.43400749273E+02  0.00000000000E+00 0.  1.
         11    1    3    3    0    0  0.13411588084E+01 -0.20369428614E+01  0.33723240872E+02  0.33811311988E+02  0.51100000000E-03 0. -1.
        -11    1    3    3    0    0 -0.24400915771E+01  0.90268196294E+01  0.93890908316E+01  0.13251133779E+02  0.51100000000E-03 0.  1.
         12    1    3    3    0    0  0.31912501351E-01 -0.70060848625E+00 -0.18295237413E+00  0.72480495993E+00  0.00000000000E+00 0. -1.
</event>
<event>
 7    1  0.7357971E-011  0.4778727E+02  0.7816164E-02  0.1312668E+00
        -11   -1    0    0    0    0  0.00000000000E+00  0.00000000000E+00  0.45593999997E+02  0.45594000000E+02  0.51100000000E-03 0. -1.
         11   -1    0    0    0    0 -0.00000000000E+00 -0.00000000000E+00 -0.45593999997E+02  0.45594000000E+02  0.51100000000E-03 0.  1.
    9900012    2    1    2    0    0 -0.21241554182E+01 -0.35512352991E+02  0.24859280465E+02  0.47787273319E+02  0.20000010370E+02 0.  0.
        -12    1    1    2    0    0  0.21241554182E+01  0.35512352991E+02 -0.24859280465E+02  0.43400726681E+02  0.00000000000E+00 0.  1.
         11    1    3    3    0    0 -0.46575885164E+01 -0.12803895695E+02  0.92325928318E+01  0.16458239469E+02  0.51100000000E-03 0. -1.
        -11    1    3    3    0    0  0.80709690912E+01 -0.18050759372E+02  0.12833972853E+02  0.23572893659E+02  0.51100000000E-03 0.  1.
        -12    1    3    3    0    0 -0.55375359930E+01 -0.46576979238E+01  0.27927147801E+01  0.77561401912E+01  0.00000000000E+00 0.  1.
</event>
<event>
 7    1  0.7357971E-011  0.4778727E+02  0.7816164E-02  0.1312668E+00
        -11   -1    0    0    0    0  0.00000000000E+00  0.00000000000E+00  0.45593999997E+02  0.45594000000E+02  0.51100000000E-03 0. -1.
         11   -1    0    0    0    0 -0.00000000000E+00 -0.00000000000E+00 -0.45593999997E+02  0.45594000000E+02  0.51100000000E-03 0.  1.
    9900012    2    1    2    0    0  0.30672141341E+02  0.71782632110E+01  0.29854904262E+02  0.47787273904E+02  0.20000013038E+02 0.  0.
        -12    1    1    2    0    0 -0.30672141341E+02 -0.71782632110E+01 -0.29854904262E+02  0.43400726096E+02  0.00000000000E+00 0.  1.
         11    1    3    3    0    0  0.18265307588E+02 -0.45731017908E+00  0.74483338422E+01  0.19730896360E+02  0.51100000000E-03 0. -1.
        -11    1    3    3    0    0  0.61405299568E+01  0.58551638208E+01  0.59658474704E+01  0.10372096597E+02  0.51100000000E-03 0.  1.
         12    1    3    3    0    0  0.62663037955E+01  0.17804095693E+01  0.16440722950E+02  0.17684280947E+02  0.00000000000E+00 0. -1.
</event>
<event>
 7    1  0.7357971E-011  0.4778727E+02  0.7816164E-02  0.1312668E+00
        -11   -1    0    0    0    0  0.00000000000E+00  0.00000000000E+00  0.45593999997E+02  0.45594000000E+02  0.51100000000E-03 0. -1.
         11   -1    0    0    0    0 -0.00000000000E+00 -0.00000000000E+00 -0.45593999997E+02  0.45594000000E+02  0.51100000000E-03 0.  1.
    9900012    2    1    2    0    0  0.17017613089E+01  0.38871345390E+02  0.19228778916E+02  0.47787269331E+02  0.19999992189E+02 0.  0.
        -12    1    1    2    0    0 -0.17017613089E+01 -0.38871345390E+02 -0.19228778916E+02  0.43400730669E+02  0.00000000000E+00 0.  1.
         11    1    3    3    0    0 -0.27745570018E+01  0.15321333388E+02  0.12180751393E+01  0.15618102658E+02  0.51100000000E-03 0. -1.
        -11    1    3    3    0    0  0.28543839840E+00  0.51850657601E+01  0.10828603412E+02  0.12009372761E+02  0.51100000000E-03 0.  1.
         12    1    3    3    0    0  0.41908799123E+01  0.18364946242E+02  0.71821003655E+01  0.20159793912E+02  0.00000000000E+00 0. -1.
</event>
<event>
 7    1  0.7357971E-011  0.4778727E+02  0.7816164E-02  0.1312668E+00
        -11   -1    0    0    0    0  0.00000000000E+00  0.00000000000E+00  0.45593999997E+02  0.45594000000E+02  0.51100000000E-03 0. -1.
         11   -1    0    0    0    0 -0.00000000000E+00 -0.00000000000E+00 -0.45593999997E+02  0.45594000000E+02  0.51100000000E-03 0.  1.
    9900012    2    1    2    0    0  0.34119720375E+02  0.20727903259E+02 -0.17024171221E+02  0.47787266162E+02  0.19999977737E+02 0.  0.
         12    1    1    2    0    0 -0.34119720375E+02 -0.20727903259E+02  0.17024171221E+02  0.43400733838E+02  0.00000000000E+00 0. -1.
         11    1    3    3    0    0  0.68247309497E+01  0.85183153062E+01 -0.60937801343E+01  0.12500912158E+02  0.51100000000E-03 0. -1.
        -11    1    3    3    0    0  0.11642083038E+02 -0.26470178826E+01 -0.46190129204E+01  0.12801565598E+02  0.51100000000E-03 0.  1.
        -12    1    3    3    0    0  0.15652906386E+02  0.14856605835E+02 -0.63113781662E+01  0.22484788406E+02  0.00000000000E+00 0.  1.
</event>
<event>
 7    1  0.7357971E-011  0.4778726E+02  0.7816164E-02  0.1312668E+00
        -11   -1    0    0    0    0  0.00000000000E+00  0.00000000000E+00  0.45593999997E+02  0.45594000000E+02  0.51100000000E-03 0. -1.
         11   -1    0    0    0    0 -0.00000000000E+00 -0.00000000000E+00 -0.45593999997E+02  0.45594000000E+02  0.51100000000E-03 0.  1.
    9900012    2    1    2    0    0 -0.98656657727E+01 -0.14048240708E+02 -0.39861506881E+02  0.47787260848E+02  0.19999953511E+02 0.  0.
         12    1    1    2    0    0  0.98656657727E+01  0.14048240708E+02  0.39861506881E+02  0.43400739152E+02  0.00000000000E+00 0. -1.
         11    1    3    3    0    0  0.36523180732E+01 -0.51736088278E+01 -0.24950044868E+02  0.25741219761E+02  0.51100000000E-03 0.  1.
        -11    1    3    3    0    0 -0.10238853099E+02 -0.73308099515E+01 -0.12036305681E+02  0.17419745751E+02  0.51100000000E-03 0. -1.
        -12    1    3    3    0    0 -0.32791307471E+01 -0.15438219285E+01 -0.28751563312E+01  0.46262953356E+01  0.00000000000E+00 0.  1.
</event>
<event>
 7    1  0.7357971E-011  0.4778727E+02  0.7816164E-02  0.1312668E+00
        -11   -1    0    0    0    0  0.00000000000E+00  0.00000000000E+00  0.45593999997E+02  0.45594000000E+02  0.51100000000E-03 0. -1.
         11   -1    0    0    0    0 -0.00000000000E+00 -0.00000000000E+00 -0.45593999997E+02  0.45594000000E+02  0.51100000000E-03 0.  1.
    9900012    2    1    2    0    0  0.20833532907E+01  0.43175556920E+02 -0.38928205864E+01  0.47787272720E+02  0.20000007640E+02 0.  0.
         12    1    1    2    0    0 -0.20833532907E+01 -0.43175556920E+02  0.38928205864E+01  0.43400727280E+02  0.00000000000E+00 0. -1.
         11    1    3    3    0    0  0.21198211404E+01  0.93760076833E-01  0.12257814911E+01  0.24505046714E+01  0.51100000000E-03 0. -1.
        -11    1    3    3    0    0 -0.53712156619E+01  0.33154121907E+02 -0.56297097177E+01  0.34054946614E+02  0.51100000000E-03 0.  1.
        -12    1    3    3    0    0  0.53347478123E+01  0.99276749361E+01  0.51110764016E+00  0.11281821434E+02  0.00000000000E+00 0.  1.
</event>
<event>
 7    1  0.7357971E-011  0.4778727E+02  0.7816164E-02  0.1312668E+00
        -11   -1    0    0    0    0  0.00000000000E+00  0.00000000000E+00  0.45593999997E+02  0.45594000000E+02  0.51100000000E-03 0. -1.
         11   -1    0    0    0    0 -0.00000000000E+00 -0.00000000000E+00 -0.45593999997E+02  0.45594000000E+02  0.51100000000E-03 0.  1.
    9900012    2    1    2    0    0  0.23564327146E+02  0.61139612780E+01  0.35930002348E+02  0.47787272989E+02  0.20000008867E+02 0.  0.
        -12    1    1    2    0    0 -0.23564327146E+02 -0.61139612780E+01 -0.35930002348E+02  0.43400727011E+02  0.00000000000E+00 0.  1.
         11    1    3    3    0    0  0.13361791263E+02  0.38333547116E+01  0.30171306814E+02  0.33219569974E+02  0.51100000000E-03 0. -1.
        -11    1    3    3    0    0  0.10862708586E+02  0.32820485564E+00  0.61243438810E+01  0.12474523818E+02  0.51100000000E-03 0.  1.
         12    1    3    3    0    0 -0.66017270360E+00  0.19524017107E+01 -0.36564834709E+00  0.20931791973E+01  0.00000000000E+00 0. -1.
</event>
<event>
 7    1  0.7608054E-011  0.4778727E+02  0.7816164E-02  0.1312668E+00
        -11   -1    0    0    0    0  0.00000000000E+00  0.00000000000E+00  0.45593999997E+02  0.45594000000E+02  0.51100000000E-03 0. -1.
         11   -1    0    0    0    0 -0.00000000000E+00 -0.00000000000E+00 -0.45593999997E+02  0.45594000000E+02  0.51100000000E-03 0.  1.
    9900012    2    1    2    0    0 -0.11228929853E+02 -0.32808781114E+02  0.26098241666E+02  0.47787271874E+02  0.20000003781E+02 0.  0.
        -12    1    1    2    0    0  0.11228929853E+02  0.32808781114E+02 -0.26098241666E+02  0.43400728126E+02  0.00000000000E+00 0.  1.
         11    1    3    3    0    0 -0.12974207077E+02 -0.33214010860E+02  0.22651974331E+02  0.42244674316E+02  0.51100000000E-03 0. -1.
        -11    1    3    3    0    0 -0.36942924892E+00  0.14620313555E+01  0.26482057494E+01  0.30474592051E+01  0.51100000000E-03 0.  1.
         12    1    3    3    0    0  0.21147064725E+01 -0.10568016089E+01  0.79806158608E+00  0.24951383530E+01  0.00000000000E+00 0. -1.
</event>
<event>
 7    1  0.7357971E-011  0.4778727E+02  0.7816164E-02  0.1312668E+00
        -11   -1    0    0    0    0  0.00000000000E+00  0.00000000000E+00  0.45593999997E+02  0.45594000000E+02  0.51100000000E-03 0. -1.
         11   -1    0    0    0    0 -0.00000000000E+00 -0.00000000000E+00 -0.45593999997E+02  0.45594000000E+02  0.51100000000E-03 0.  1.
    9900012    2    1    2    0    0 -0.40839180898E+02 -0.81921832480E+01 -0.12193149491E+02  0.47787268931E+02  0.19999990364E+02 0.  0.
         12    1    1    2    0    0  0.40839180898E+02  0.81921832480E+01  0.12193149491E+02  0.43400731069E+02  0.00000000000E+00 0. -1.
         11    1    3    3    0    0 -0.17788232929E+01  0.17040843872E+01  0.31953083046E+01  0.40346141487E+01  0.51100000000E-03 0. -1.
        -11    1    3    3    0    0 -0.13607774811E+02 -0.33994359669E+01 -0.91712782552E+01  0.16758282886E+02  0.51100000000E-03 0.  1.
         12    1    3    3    0    0 -0.25452582794E+02 -0.64968316684E+01 -0.62171795409E+01  0.26994371896E+02  0.00000000000E+00 0. -1.
</event>
<event>
 7    1  0.7357971E-011  0.4778727E+02  0.7816164E-02  0.1312668E+00
        -11   -1    0    0    0    0  0.00000000000E+00  0.00000000000E+00  0.45593999997E+02  0.45594000000E+02  0.51100000000E-03 0. -1.
         11   -1    0    0    0    0 -0.00000000000E+00 -0.00000000000E+00 -0.45593999997E+02  0.45594000000E+02  0.51100000000E-03 0.  1.
    9900012    2    1    2    0    0  0.28439540360E+02 -0.79028316143E+01 -0.31817625724E+02  0.47787268323E+02  0.19999987592E+02 0.  0.
         12    1    1    2    0    0 -0.28439540360E+02  0.79028316143E+01  0.31817625724E+02  0.43400731677E+02  0.00000000000E+00 0. -1.
         11    1    3    3    0    0  0.22461217608E+02 -0.11022555331E+02 -0.16098263513E+02  0.29751590055E+02  0.51100000000E-03 0. -1.
        -11    1    3    3    0    0  0.51269209826E+01  0.43355550422E+00 -0.59405931821E+01  0.78590035471E+01  0.51100000000E-03 0.  1.
         12    1    3    3    0    0  0.85140176968E+00  0.26861682127E+01 -0.97787690291E+01  0.10176674720E+02  0.00000000000E+00 0. -1.
</event>
<event>
 7    1  0.7357971E-011  0.4778722E+02  0.7816164E-02  0.1312668E+00
        -11   -1    0    0    0    0  0.00000000000E+00  0.00000000000E+00  0.45593999997E+02  0.45594000000E+02  0.51100000000E-03 0. -1.
         11   -1    0    0    0    0 -0.00000000000E+00 -0.00000000000E+00 -0.45593999997E+02  0.45594000000E+02  0.51100000000E-03 0.  1.
    9900012    2    1    2    0    0  0.27559390342E+02  0.20464856103E+01 -0.33465205067E+02  0.47787216026E+02  0.19999749148E+02 0.  0.
         12    1    1    2    0    0 -0.27559390342E+02 -0.20464856103E+01  0.33465205067E+02  0.43400783974E+02  0.00000000000E+00 0. -1.
         11    1    3    3    0    0  0.16335142471E+01  0.22145475274E+01 -0.21320011290E+01  0.34810944574E+01  0.51100000000E-03 0. -1.
        -11    1    3    3    0    0 -0.99096889773E+00 -0.15624662528E+01 -0.93320892955E+01  0.95137380155E+01  0.51100000000E-03 0.  1.
        -12    1    3    3    0    0  0.26916844993E+02  0.13944043357E+01 -0.22001114642E+02  0.34792383553E+02  0.00000000000E+00 0.  1.
</event>
<event>
 7    1  0.7357971E-011  0.4778727E+02  0.7816164E-02  0.1312668E+00
        -11   -1    0    0    0    0  0.00000000000E+00  0.00000000000E+00  0.45593999997E+02  0.45594000000E+02  0.51100000000E-03 0. -1.
         11   -1    0    0    0    0 -0.00000000000E+00 -0.00000000000E+00 -0.45593999997E+02  0.45594000000E+02  0.51100000000E-03 0.  1.
    9900012    2    1    2    0    0 -0.34785698887E+01  0.26159624662E+02 -0.34455719380E+02  0.47787274097E+02  0.20000013919E+02 0.  0.
         12    1    1    2    0    0  0.34785698887E+01 -0.26159624662E+02  0.34455719380E+02  0.43400725903E+02  0.00000000000E+00 0. -1.
         11    1    3    3    0    0  0.55283576237E+00  0.37887905371E+01  0.13364903432E+01  0.40554614796E+01  0.51100000000E-03 0. -1.
        -11    1    3    3    0    0  0.71334083942E+00  0.17623177957E+02 -0.20575530695E+02  0.27100511436E+02  0.51100000000E-03 0.  1.
         12    1    3    3    0    0 -0.47447464905E+01  0.47476561673E+01 -0.15216679028E+02  0.16631301181E+02  0.00000000000E+00 0. -1.
</event>
<event>
 7    1  0.7357971E-011  0.4778726E+02  0.7816164E-02  0.1312668E+00
        -11   -1    0    0    0    0  0.00000000000E+00  0.00000000000E+00  0.45593999997E+02  0.45594000000E+02  0.51100000000E-03 0. -1.
         11   -1    0    0    0    0 -0.00000000000E+00 -0.00000000000E+00 -0.45593999997E+02  0.45594000000E+02  0.51100000000E-03 0.  1.
    9900012    2    1    2    0    0 -0.31023312308E+02  0.14509522329E+02  0.26658053225E+02  0.47787263295E+02  0.19999964665E+02 0.  0.
        -12    1    1    2    0    0  0.31023312308E+02 -0.14509522329E+02 -0.26658053225E+02  0.43400736705E+02  0.00000000000E+00 0.  1.
         11    1    3    3    0    0 -0.10383352413E+02  0.48242416112E+01  0.97589917639E+01  0.15044109643E+02  0.51100000000E-03 0. -1.
        -11    1    3    3    0    0 -0.18141993124E+02  0.13319144863E+02  0.10168617691E+02  0.24696807899E+02  0.51100000000E-03 0.  1.
        -12    1    3    3    0    0 -0.24979667715E+01 -0.36338641448E+01  0.67304437707E+01  0.80463457523E+01  0.00000000000E+00 0.  1.
</event>
<event>
 7    1  0.7357971E-011  0.4778727E+02  0.7816164E-02  0.1312668E+00
        -11   -1    0    0    0    0  0.00000000000E+00  0.00000000000E+00  0.45593999997E+02  0.45594000000E+02  0.51100000000E-03 0. -1.
         11   -1    0    0    0    0 -0.00000000000E+00 -0.00000000000E+00 -0.45593999997E+02  0.45594000000E+02  0.51100000000E-03 0.  1.
    9900012    2    1    2    0    0 -0.18935611870E+02 -0.10926857298E+02 -0.37492267440E+02  0.47787265846E+02  0.19999976300E+02 0.  0.
         12    1    1    2    0    0  0.18935611870E+02  0.10926857298E+02  0.37492267440E+02  0.43400734154E+02  0.00000000000E+00 0. -1.
         11    1    3    3    0    0  0.14644857719E+01 -0.13860612623E+01 -0.24685815769E+01  0.31874409268E+01  0.51100000000E-03 0.  1.
        -11    1    3    3    0    0 -0.12800150973E+00  0.31142112508E+01 -0.76591427808E+01  0.82690485849E+01  0.51100000000E-03 0. -1.
        -12    1    3    3    0    0 -0.20272096132E+02 -0.12655007286E+02 -0.27364543082E+02  0.36330776335E+02  0.00000000000E+00 0.  1.
</event>
<event>
 7    1  0.7357971E-011  0.4778726E+02  0.7816164E-02  0.1312668E+00
        -11   -1    0    0    0    0  0.00000000000E+00  0.00000000000E+00  0.45593999997E+02  0.45594000000E+02  0.51100000000E-03 0.  1.
         11   -1    0    0    0    0 -0.00000000000E+00 -0.00000000000E+00 -0.45593999997E+02  0.45594000000E+02  0.51100000000E-03 0. -1.
    9900012    2    1    2    0    0 -0.31405402926E+02  0.29325861189E+02  0.61088901464E+01  0.47787262607E+02  0.19999961531E+02 0.  0.
         12    1    1    2    0    0  0.31405402926E+02 -0.29325861189E+02 -0.61088901464E+01  0.43400737393E+02  0.00000000000E+00 0. -1.
         11    1    3    3    0    0 -0.96800002365E+01  0.86026962055E+01  0.90973114222E+01  0.15826239666E+02  0.51100000000E-03 0. -1.
        -11    1    3    3    0    0 -0.12168533087E+02  0.69525724080E+01 -0.54148069657E+01  0.15024366719E+02  0.51100000000E-03 0.  1.
        -12    1    3    3    0    0 -0.95568696034E+01  0.13770592575E+02  0.24263856900E+01  0.16936656223E+02  0.00000000000E+00 0.  1.
</event>
<event>
 7    1  0.7357971E-011  0.4778727E+02  0.7816164E-02  0.1312668E+00
        -11   -1    0    0    0    0  0.00000000000E+00  0.00000000000E+00  0.45593999997E+02  0.45594000000E+02  0.51100000000E-03 0. -1.
         11   -1    0    0    0    0 -0.00000000000E+00 -0.00000000000E+00 -0.45593999997E+02  0.45594000000E+02  0.51100000000E-03 0.  1.
    9900012    2    1    2    0    0 -0.20217631219E+02  0.20402764540E+02  0.32536103059E+02  0.47787269416E+02  0.19999992576E+02 0.  0.
        -12    1    1    2    0    0  0.20217631219E+02 -0.20402764540E+02 -0.32536103059E+02  0.43400730584E+02  0.00000000000E+00 0.  1.
         11    1    3    3    0    0 -0.48285125580E+01 -0.33057895800E+01  0.87232451954E+01  0.10504179419E+02  0.51100000000E-03 0. -1.
        -11    1    3    3    0    0 -0.97202105123E+01  0.13299442452E+02  0.16713158283E+02  0.23466727978E+02  0.51100000000E-03 0.  1.
         12    1    3    3    0    0 -0.56689081484E+01  0.10409111668E+02  0.70996995805E+01  0.13816362019E+02  0.00000000000E+00 0. -1.
</event>
<event>
 7    1  0.7357971E-011  0.4778727E+02  0.7816164E-02  0.1312668E+00
        -11   -1    0    0    0    0  0.00000000000E+00  0.00000000000E+00  0.45593999997E+02  0.45594000000E+02  0.51100000000E-03 0. -1.
         11   -1    0    0    0    0 -0.00000000000E+00 -0.00000000000E+00 -0.45593999997E+02  0.45594000000E+02  0.51100000000E-03 0.  1.
    9900012    2    1    2    0    0  0.10431044811E+01  0.20551386928E+02 -0.38212247273E+02  0.47787269439E+02  0.19999992680E+02 0.  0.
         12    1    1    2    0    0 -0.10431044811E+01 -0.20551386928E+02  0.38212247273E+02  0.43400730561E+02  0.00000000000E+00 0. -1.
         11    1    3    3    0    0 -0.21591118662E+00 -0.78377120347E+00  0.14953189137E+01  0.17020263966E+01  0.51100000000E-03 0. -1.
        -11    1    3    3    0    0 -0.25398348369E+01  0.14493365849E+02 -0.31375122575E+02  0.34654101222E+02  0.51100000000E-03 0.  1.
         12    1    3    3    0    0  0.37988505046E+01  0.68417922816E+01 -0.83324436113E+01  0.11431141820E+02  0.00000000000E+00 0. -1.
</event>
<event>
 7    1  0.7357971E-011  0.4778727E+02  0.7816164E-02  0.1312668E+00
        -11   -1    0    0    0    0  0.00000000000E+00  0.00000000000E+00  0.45593999997E+02  0.45594000000E+02  0.51100000000E-03 0. -1.
         11   -1    0    0    0    0 -0.00000000000E+00 -0.00000000000E+00 -0.45593999997E+02  0.45594000000E+02  0.51100000000E-03 0.  1.
    9900012    2    1    2    0    0  0.30331176897E+02  0.38966353959E+01  0.30797065149E+02  0.47787270960E+02  0.19999999617E+02 0.  0.
        -12    1    1    2    0    0 -0.30331176897E+02 -0.38966353959E+01 -0.30797065149E+02  0.43400729040E+02  0.00000000000E+00 0.  1.
         11    1    3    3    0    0  0.28787879162E+02 -0.18168104585E+01  0.29740059893E+02  0.41430833321E+02  0.51100000000E-03 0. -1.
        -11    1    3    3    0    0  0.18433224363E+01  0.35748474005E+01  0.18158836070E+00  0.40262074133E+01  0.51100000000E-03 0.  1.
         12    1    3    3    0    0 -0.30002470163E+00  0.21385984539E+01  0.87541689501E+00  0.23302302265E+01  0.00000000000E+00 0. -1.
</event>
<event>
 7    1  0.7357971E-011  0.4778727E+02  0.7816164E-02  0.1312668E+00
        -11   -1    0    0    0    0  0.00000000000E+00  0.00000000000E+00  0.45593999997E+02  0.45594000000E+02  0.51100000000E-03 0. -1.
         11   -1    0    0    0    0 -0.00000000000E+00 -0.00000000000E+00 -0.45593999997E+02  0.45594000000E+02  0.51100000000E-03 0.  1.
    9900012    2    1    2    0    0  0.11493899277E+01  0.15560431185E+02 -0.40499075371E+02  0.47787271645E+02  0.20000002737E+02 0.  0.
         12    1    1    2    0    0 -0.11493899277E+01 -0.15560431185E+02  0.40499075371E+02  0.43400728355E+02  0.00000000000E+00 0. -1.
         11    1    3    3    0    0 -0.33637513466E-01  0.14281626444E+02 -0.15562520956E+02  0.21122453554E+02  0.51100000000E-03 0. -1.
        -11    1    3    3    0    0  0.27774385259E+01 -0.29642945724E+01 -0.63859530223E+01  0.75684610946E+01  0.51100000000E-03 0.  1.
        -12    1    3    3    0    0 -0.15944110847E+01  0.42430993129E+01 -0.18550601393E+02  0.19096356996E+02  0.00000000000E+00 0.  1.
</event>
<event>
 7    1  0.7357971E-011  0.4778727E+02  0.7816164E-02  0.1312668E+00
        -11   -1    0    0    0    0  0.00000000000E+00  0.00000000000E+00  0.45593999997E+02  0.45594000000E+02  0.51100000000E-03 0.  1.
         11   -1    0    0    0    0 -0.00000000000E+00 -0.00000000000E+00 -0.45593999997E+02  0.45594000000E+02  0.51100000000E-03 0. -1.
    9900012    2    1    2    0    0 -0.23751539207E+02 -0.35215296743E+02 -0.89090055357E+01  0.47787272828E+02  0.20000008132E+02 0.  0.
        -12    1    1    2    0    0  0.23751539207E+02  0.35215296743E+02  0.89090055357E+01  0.43400727172E+02  0.00000000000E+00 0.  1.
         11    1    3    3    0    0 -0.13761792046E+02 -0.11718200661E+02  0.30084709003E+01  0.18323592564E+02  0.51100000000E-03 0. -1.
        -11    1    3    3    0    0 -0.11009628637E+02 -0.18191846306E+02 -0.11141004718E+02  0.24005773912E+02  0.51100000000E-03 0.  1.
         12    1    3    3    0    0  0.10198814752E+01 -0.53052497769E+01 -0.77647171855E+00  0.54579063521E+01  0.00000000000E+00 0. -1.
</event>
<event>
 7    1  0.7357971E-011  0.4778730E+02  0.7816164E-02  0.1312668E+00
        -11   -1    0    0    0    0  0.00000000000E+00  0.00000000000E+00  0.45593999997E+02  0.45594000000E+02  0.51100000000E-03 0. -1.
         11   -1    0    0    0    0 -0.00000000000E+00 -0.00000000000E+00 -0.45593999997E+02  0.45594000000E+02  0.51100000000E-03 0.  1.
    9900012    2    1    2    0    0 -0.17673992789E+02  0.24544438768E+02  0.31125896283E+02  0.47787298221E+02  0.20000123906E+02 0.  0.
        -12    1    1    2    0    0  0.17673992789E+02 -0.24544438768E+02 -0.31125896283E+02  0.43400701779E+02  0.00000000000E+00 0.  1.
         11    1    3    3    0    0  0.23233947281E+00 -0.22576085112E+00  0.15503226354E+01  0.15838087408E+01  0.51100000000E-03 0. -1.
        -11    1    3    3    0    0 -0.20796656978E+02  0.17491467863E+02  0.25945292709E+02  0.37571406728E+02  0.51100000000E-03 0.  1.
        -12    1    3    3    0    0  0.28903247169E+01  0.72787317562E+01  0.36302809386E+01  0.86320827522E+01  0.00000000000E+00 0.  1.
</event>
<event>
 7    1  0.7357971E-011  0.4778727E+02  0.7816164E-02  0.1312668E+00
        -11   -1    0    0    0    0  0.00000000000E+00  0.00000000000E+00  0.45593999997E+02  0.45594000000E+02  0.51100000000E-03 0. -1.
         11   -1    0    0    0    0 -0.00000000000E+00 -0.00000000000E+00 -0.45593999997E+02  0.45594000000E+02  0.51100000000E-03 0.  1.
    9900012    2    1    2    0    0 -0.29358292033E+02  0.76659480293E+01 -0.31031389939E+02  0.47787271529E+02  0.20000002209E+02 0.  0.
         12    1    1    2    0    0  0.29358292033E+02 -0.76659480293E+01  0.31031389939E+02  0.43400728471E+02  0.00000000000E+00 0. -1.
         11    1    3    3    0    0 -0.76827923261E+00  0.17358370323E+01 -0.58138592090E+01  0.61159089549E+01  0.51100000000E-03 0. -1.
        -11    1    3    3    0    0 -0.22949485960E+02  0.38935358610E+01 -0.10036850154E+02  0.25349100351E+02  0.51100000000E-03 0.  1.
        -12    1    3    3    0    0 -0.56405268402E+01  0.20365751360E+01 -0.15180680576E+02  0.16322262223E+02  0.00000000000E+00 0.  1.
</event>
<event>
 7    1  0.7357971E-011  0.4778726E+02  0.7816164E-02  0.1312668E+00
        -11   -1    0    0    0    0  0.00000000000E+00  0.00000000000E+00  0.45593999997E+02  0.45594000000E+02  0.51100000000E-03 0.  1.
         11   -1    0    0    0    0 -0.00000000000E+00 -0.00000000000E+00 -0.45593999997E+02  0.45594000000E+02  0.51100000000E-03 0. -1.
    9900012    2    1    2    0    0 -0.38632787851E+02 -0.17661495207E+02 -0.88996192522E+01  0.47787263452E+02  0.19999965382E+02 0.  0.
        -12    1    1    2    0    0  0.38632787851E+02  0.17661495207E+02  0.88996192522E+01  0.43400736548E+02  0.00000000000E+00 0.  1.
         11    1    3    3    0    0 -0.19100855345E+02 -0.15759947574E+02 -0.11573030109E+02  0.27334111447E+02  0.51100000000E-03 0. -1.
        -11    1    3    3    0    0 -0.29288209214E+01  0.46408861423E+00  0.21704640196E+01  0.36748176218E+01  0.51100000000E-03 0.  1.
         12    1    3    3    0    0 -0.16603111584E+02 -0.23656362475E+01  0.50294683700E+00  0.16778334383E+02  0.00000000000E+00 0. -1.
</event>
<event>
 7    1  0.7357971E-011  0.4778727E+02  0.7816164E-02  0.1312668E+00
        -11   -1    0    0    0    0  0.00000000000E+00  0.00000000000E+00  0.45593999997E+02  0.45594000000E+02  0.51100000000E-03 0. -1.
         11   -1    0    0    0    0 -0.00000000000E+00 -0.00000000000E+00 -0.45593999997E+02  0.45594000000E+02  0.51100000000E-03 0.  1.
    9900012    2    1    2    0    0 -0.15841352968E+02 -0.39336884358E+00  0.40404462530E+02  0.47787265038E+02  0.19999972613E+02 0.  0.
        -12    1    1    2    0    0  0.15841352968E+02  0.39336884358E+00 -0.40404462530E+02  0.43400734962E+02  0.00000000000E+00 0.  1.
         11    1    3    3    0    0 -0.46559424598E+01 -0.88724706031E+01  0.16760409112E+02  0.19527156696E+02  0.51100000000E-03 0.  1.
        -11    1    3    3    0    0 -0.10826038330E+02  0.70593708374E+01  0.23459441064E+02  0.26784010114E+02  0.51100000000E-03 0. -1.
        -12    1    3    3    0    0 -0.35937217865E+00  0.14197309221E+01  0.18461235491E+00  0.14760982270E+01  0.00000000000E+00 0.  1.
</event>
<event>
 7    1  0.7357971E-011  0.4778727E+02  0.7816164E-02  0.1312668E+00
        -11   -1    0    0    0    0  0.00000000000E+00  0.00000000000E+00  0.45593999997E+02  0.45594000000E+02  0.51100000000E-03 0. -1.
         11   -1    0    0    0    0 -0.00000000000E+00 -0.00000000000E+00 -0.45593999997E+02  0.45594000000E+02  0.51100000000E-03 0.  1.
    9900012    2    1    2    0    0  0.63081929661E+00 -0.15393279804E+02 -0.40574282397E+02  0.47787269728E+02  0.19999993998E+02 0.  0.
         12    1    1    2    0    0 -0.63081929661E+00  0.15393279804E+02  0.40574282397E+02  0.43400730272E+02  0.00000000000E+00 0. -1.
         11    1    3    3    0    0  0.74624211315E+01 -0.11247662457E+02 -0.23154833119E+02  0.26801939051E+02  0.51100000000E-03 0. -1.
        -11    1    3    3    0    0 -0.72915955444E+01  0.22731347807E+00 -0.10439700725E+02  0.12736027187E+02  0.51100000000E-03 0.  1.
        -12    1    3    3    0    0  0.45999370950E+00 -0.43729308250E+01 -0.69797485531E+01  0.82493034904E+01  0.00000000000E+00 0.  1.
</event>
<event>
 7    1  0.7357971E-011  0.4778727E+02  0.7816164E-02  0.1312668E+00
        -11   -1    0    0    0    0  0.00000000000E+00  0.00000000000E+00  0.45593999997E+02  0.45594000000E+02  0.51100000000E-03 0. -1.
         11   -1    0    0    0    0 -0.00000000000E+00 -0.00000000000E+00 -0.45593999997E+02  0.45594000000E+02  0.51100000000E-03 0.  1.
    9900012    2    1    2    0    0  0.70673214340E+01 -0.34859270980E+02  0.24869805691E+02  0.47787273732E+02  0.20000012252E+02 0.  0.
        -12    1    1    2    0    0 -0.70673214340E+01  0.34859270980E+02 -0.24869805691E+02  0.43400726268E+02  0.00000000000E+00 0.  1.
         11    1    3    3    0    0  0.26444695648E+01 -0.28652374823E+02  0.11257219644E+02  0.30897844530E+02  0.51100000000E-03 0. -1.
        -11    1    3    3    0    0  0.36883580527E+01 -0.63170479628E+01  0.14179443806E+02  0.15955115386E+02  0.51100000000E-03 0.  1.
         12    1    3    3    0    0  0.73449381651E+00  0.11015180567E+00 -0.56685775828E+00  0.93431381500E+00  0.00000000000E+00 0. -1.
</event>
<event>
 7    1  0.7357971E-011  0.4778727E+02  0.7816164E-02  0.1312668E+00
        -11   -1    0    0    0    0  0.00000000000E+00  0.00000000000E+00  0.45593999997E+02  0.45594000000E+02  0.51100000000E-03 0. -1.
         11   -1    0    0    0    0 -0.00000000000E+00 -0.00000000000E+00 -0.45593999997E+02  0.45594000000E+02  0.51100000000E-03 0.  1.
    9900012    2    1    2    0    0 -0.41817033792E+02  0.71018084845E+01  0.91936496897E+01  0.47787271970E+02  0.20000004219E+02 0.  0.
        -12    1    1    2    0    0  0.41817033792E+02 -0.71018084845E+01 -0.91936496897E+01  0.43400728030E+02  0.00000000000E+00 0.  1.
         11    1    3    3    0    0 -0.90326129291E+01  0.87782649950E+01 -0.47894427390E+00  0.12604579348E+02  0.51100000000E-03 0. -1.
        -11    1    3    3    0    0 -0.77418806823E+01 -0.37901149216E+01  0.35062749965E+01  0.93056784938E+01  0.51100000000E-03 0.  1.
         12    1    3    3    0    0 -0.25042540181E+02  0.21136584110E+01  0.61663189671E+01  0.25877014128E+02  0.00000000000E+00 0. -1.
</event>
<event>
 7    1  0.7357971E-011  0.4778726E+02  0.7816164E-02  0.1312668E+00
        -11   -1    0    0    0    0  0.00000000000E+00  0.00000000000E+00  0.45593999997E+02  0.45594000000E+02  0.51100000000E-03 0. -1.
         11   -1    0    0    0    0 -0.00000000000E+00 -0.00000000000E+00 -0.45593999997E+02  0.45594000000E+02  0.51100000000E-03 0.  1.
    9900012    2    1    2    0    0 -0.11254969308E+02  0.18046313672E+02 -0.37832262063E+02  0.47787264706E+02  0.19999971099E+02 0.  0.
         12    1    1    2    0    0  0.11254969308E+02 -0.18046313672E+02  0.37832262063E+02  0.43400735294E+02  0.00000000000E+00 0. -1.
         11    1    3    3    0    0 -0.77820627669E+01  0.88729472278E+00 -0.12085683994E+02  0.14401789844E+02  0.51100000000E-03 0.  1.
        -11    1    3    3    0    0 -0.11359517719E+01  0.14505953232E+02 -0.11052763408E+02  0.18272291723E+02  0.51100000000E-03 0. -1.
         12    1    3    3    0    0 -0.23369547694E+01  0.26530657170E+01 -0.14693814661E+02  0.15113183139E+02  0.00000000000E+00 0. -1.
</event>
<event>
 7    1  0.7357971E-011  0.4778727E+02  0.7816164E-02  0.1312668E+00
        -11   -1    0    0    0    0  0.00000000000E+00  0.00000000000E+00  0.45593999997E+02  0.45594000000E+02  0.51100000000E-03 0. -1.
         11   -1    0    0    0    0 -0.00000000000E+00 -0.00000000000E+00 -0.45593999997E+02  0.45594000000E+02  0.51100000000E-03 0.  1.
    9900012    2    1    2    0    0 -0.27581504771E+02 -0.29452960840E+02 -0.15981450396E+02  0.47787273457E+02  0.20000011000E+02 0.  0.
         12    1    1    2    0    0  0.27581504771E+02  0.29452960840E+02  0.15981450396E+02  0.43400726543E+02  0.00000000000E+00 0. -1.
         11    1    3    3    0    0  0.44467957206E+00  0.14054364591E+01  0.11201101183E+01  0.18513882630E+01  0.51100000000E-03 0. -1.
        -11    1    3    3    0    0 -0.17778089400E+02 -0.25442240943E+02 -0.12158908140E+02  0.33334773651E+02  0.51100000000E-03 0.  1.
         12    1    3    3    0    0 -0.10248094943E+02 -0.54161563566E+01 -0.49426523741E+01  0.12601111543E+02  0.00000000000E+00 0. -1.
</event>
<event>
 7    1  0.7357971E-011  0.4778727E+02  0.7816164E-02  0.1312668E+00
        -11   -1    0    0    0    0  0.00000000000E+00  0.00000000000E+00  0.45593999997E+02  0.45594000000E+02  0.51100000000E-03 0. -1.
         11   -1    0    0    0    0 -0.00000000000E+00 -0.00000000000E+00 -0.45593999997E+02  0.45594000000E+02  0.51100000000E-03 0.  1.
    9900012    2    1    2    0    0  0.20632292073E+02  0.96048529152E+01 -0.36955091354E+02  0.47787268984E+02  0.19999990608E+02 0.  0.
         12    1    1    2    0    0 -0.20632292073E+02 -0.96048529152E+01  0.36955091354E+02  0.43400731016E+02  0.00000000000E+00 0. -1.
         11    1    3    3    0    0  0.11646211092E+02  0.36177932084E+00 -0.23452857435E+02  0.26187814709E+02  0.51100000000E-03 0. -1.
        -11    1    3    3    0    0  0.30854680365E+01  0.10344375759E+02 -0.77775901910E+01  0.13304778551E+02  0.51100000000E-03 0.  1.
         12    1    3    3    0    0  0.59006129441E+01 -0.11013021645E+01 -0.57246437280E+01  0.82946757252E+01  0.00000000000E+00 0. -1.
</event>
<event>
 7    1  0.8650174E-011  0.4778727E+02  0.7816164E-02  0.1312668E+00
        -11   -1    0    0    0    0  0.00000000000E+00  0.00000000000E+00  0.45593999997E+02  0.45594000000E+02  0.51100000000E-03 0. -1.
         11   -1    0    0    0    0 -0.00000000000E+00 -0.00000000000E+00 -0.45593999997E+02  0.45594000000E+02  0.51100000000E-03 0.  1.
    9900012    2    1    2    0    0 -0.16626562002E+02  0.34354374788E+01 -0.39942192960E+02  0.47787267597E+02  0.19999984280E+02 0.  0.
         12    1    1    2    0    0  0.16626562002E+02 -0.34354374788E+01  0.39942192960E+02  0.43400732403E+02  0.00000000000E+00 0. -1.
         11    1    3    3    0    0 -0.23084771451E+01  0.76116158961E+00 -0.73200956963E+00  0.25385570638E+01  0.51100000000E-03 0. -1.
        -11    1    3    3    0    0  0.12253293103E+00 -0.52887446217E+01 -0.50365125153E+01  0.73042653683E+01  0.51100000000E-03 0.  1.
        -12    1    3    3    0    0 -0.14440617788E+02  0.79630205109E+01 -0.34173670875E+02  0.37944445164E+02  0.00000000000E+00 0.  1.
</event>
<event>
 7    1  0.7357971E-011  0.4778728E+02  0.7816164E-02  0.1312668E+00
        -11   -1    0    0    0    0  0.00000000000E+00  0.00000000000E+00  0.45593999997E+02  0.45594000000E+02  0.51100000000E-03 0. -1.
         11   -1    0    0    0    0 -0.00000000000E+00 -0.00000000000E+00 -0.45593999997E+02  0.45594000000E+02  0.51100000000E-03 0.  1.
    9900012    2    1    2    0    0 -0.14013932004E+02 -0.11287414628E+02  0.39494642501E+02  0.47787276441E+02  0.20000024604E+02 0.  0.
        -12    1    1    2    0    0  0.14013932004E+02  0.11287414628E+02 -0.39494642501E+02  0.43400723559E+02  0.00000000000E+00 0.  1.
         11    1    3    3    0    0 -0.13687719515E+02 -0.19486004388E+01  0.15784684893E+02  0.20983493194E+02  0.51100000000E-03 0.  1.
        -11    1    3    3    0    0 -0.18054453915E+01 -0.10202771775E+02  0.22283467162E+02  0.24574561929E+02  0.51100000000E-03 0. -1.
         12    1    3    3    0    0  0.14792329031E+01  0.86395758581E+00  0.14264904461E+01  0.22292213180E+01  0.00000000000E+00 0. -1.
</event>
<event>
 7    1  0.7357971E-011  0.4778727E+02  0.7816164E-02  0.1312668E+00
        -11   -1    0    0    0    0  0.00000000000E+00  0.00000000000E+00  0.45593999997E+02  0.45594000000E+02  0.51100000000E-03 0. -1.
         11   -1    0    0    0    0 -0.00000000000E+00 -0.00000000000E+00 -0.45593999997E+02  0.45594000000E+02  0.51100000000E-03 0.  1.
    9900012    2    1    2    0    0  0.25804717334E+02 -0.10872491891E+02 -0.33159141442E+02  0.47787272152E+02  0.20000005048E+02 0.  0.
         12    1    1    2    0    0 -0.25804717334E+02  0.10872491891E+02  0.33159141442E+02  0.43400727848E+02  0.00000000000E+00 0. -1.
         11    1    3    3    0    0  0.20631791403E+01 -0.12053982472E+01 -0.14505132425E+02  0.14700631280E+02  0.51100000000E-03 0. -1.
        -11    1    3    3    0    0  0.62162081390E+01 -0.45494838196E+01 -0.10669751528E+02  0.13159887711E+02  0.51100000000E-03 0.  1.
         12    1    3    3    0    0  0.17525330055E+02 -0.51176098244E+01 -0.79842574884E+01  0.19926753160E+02  0.00000000000E+00 0. -1.
</event>
<event>
 7    1  0.7357971E-011  0.4778727E+02  0.7816164E-02  0.1312668E+00
        -11   -1    0    0    0    0  0.00000000000E+00  0.00000000000E+00  0.45593999997E+02  0.45594000000E+02  0.51100000000E-03 0.  1.
         11   -1    0    0    0    0 -0.00000000000E+00 -0.00000000000E+00 -0.45593999997E+02  0.45594000000E+02  0.51100000000E-03 0. -1.
    9900012    2    1    2    0    0  0.36050870494E+02  0.16746755795E+02 -0.17421369500E+02  0.47787271801E+02  0.20000003448E+02 0.  0.
         12    1    1    2    0    0 -0.36050870494E+02 -0.16746755795E+02  0.17421369500E+02  0.43400728199E+02  0.00000000000E+00 0. -1.
         11    1    3    3    0    0  0.31360981154E+01  0.56880822056E+01 -0.73843155441E+01  0.98345059298E+01  0.51100000000E-03 0.  1.
        -11    1    3    3    0    0  0.10812044525E+02  0.30803785892E+01  0.22050348523E+01  0.11456492396E+02  0.51100000000E-03 0. -1.
        -12    1    3    3    0    0  0.22102727853E+02  0.79782949999E+01 -0.12242088808E+02  0.26496273475E+02  0.00000000000E+00 0.  1.
</event>
<event>
 7    1  0.8110563E-011  0.4778727E+02  0.7816164E-02  0.1312668E+00
        -11   -1    0    0    0    0  0.00000000000E+00  0.00000000000E+00  0.45593999997E+02  0.45594000000E+02  0.51100000000E-03 0. -1.
         11   -1    0    0    0    0 -0.00000000000E+00 -0.00000000000E+00 -0.45593999997E+02  0.45594000000E+02  0.51100000000E-03 0.  1.
    9900012    2    1    2    0    0  0.61880397513E+01 -0.29769660145E+02 -0.30969321416E+02  0.47787269936E+02  0.19999994947E+02 0.  0.
         12    1    1    2    0    0 -0.61880397513E+01  0.29769660145E+02  0.30969321416E+02  0.43400730064E+02  0.00000000000E+00 0. -1.
         11    1    3    3    0    0 -0.94766610878E+00 -0.62705022048E+01  0.24006167693E+00  0.63462507691E+01  0.51100000000E-03 0. -1.
        -11    1    3    3    0    0  0.76055600989E+00 -0.11254089223E+02 -0.22357063636E+02  0.25041391023E+02  0.51100000000E-03 0.  1.
        -12    1    3    3    0    0  0.63751498502E+01 -0.12245068717E+02 -0.88523194568E+01  0.16399628144E+02  0.00000000000E+00 0.  1.
</event>
<event>
 7    1  0.7357971E-011  0.4778727E+02  0.7816164E-02  0.1312668E+00
        -11   -1    0    0    0    0  0.00000000000E+00  0.00000000000E+00  0.45593999997E+02  0.45594000000E+02  0.51100000000E-03 0. -1.
         11   -1    0    0    0    0 -0.00000000000E+00 -0.00000000000E+00 -0.45593999997E+02  0.45594000000E+02  0.51100000000E-03 0.  1.
    9900012    2    1    2    0    0  0.28227817457E+02  0.21217546706E+02 -0.25231519856E+02  0.47787267738E+02  0.19999984925E+02 0.  0.
         12    1    1    2    0    0 -0.28227817457E+02 -0.21217546706E+02  0.25231519856E+02  0.43400732262E+02  0.00000000000E+00 0. -1.
         11    1    3    3    0    0  0.50206541106E+01  0.83298656497E+01  0.11957880144E+01  0.97991601006E+01  0.51100000000E-03 0. -1.
        -11    1    3    3    0    0  0.12091934325E+02  0.10277391068E+02 -0.15596324782E+02  0.22250505384E+02  0.51100000000E-03 0.  1.
         12    1    3    3    0    0  0.11115229022E+02  0.26102899892E+01 -0.10830983089E+02  0.15737602254E+02  0.00000000000E+00 0. -1.
</event>
<event>
 7    1  0.7357971E-011  0.4778727E+02  0.7816164E-02  0.1312668E+00
        -11   -1    0    0    0    0  0.00000000000E+00  0.00000000000E+00  0.45593999997E+02  0.45594000000E+02  0.51100000000E-03 0. -1.
         11   -1    0    0    0    0 -0.00000000000E+00 -0.00000000000E+00 -0.45593999997E+02  0.45594000000E+02  0.51100000000E-03 0.  1.
    9900012    2    1    2    0    0 -0.80850362292E+00  0.34360284144E+02 -0.26501700576E+02  0.47787274914E+02  0.20000017642E+02 0.  0.
         12    1    1    2    0    0  0.80850362292E+00 -0.34360284144E+02  0.26501700576E+02  0.43400725086E+02  0.00000000000E+00 0. -1.
         11    1    3    3    0    0  0.46077576831E+01  0.51945893573E+01 -0.10697241718E+01  0.70256316102E+01  0.51100000000E-03 0. -1.
        -11    1    3    3    0    0 -0.29874339507E+01  0.25976736813E+02 -0.16361824315E+02  0.30845176483E+02  0.51100000000E-03 0.  1.
        -12    1    3    3    0    0 -0.24288273553E+01  0.31889579735E+01 -0.90701520898E+01  0.99164668210E+01  0.00000000000E+00 0.  1.
</event>
<event>
 7    1  0.7357971E-011  0.4778727E+02  0.7816164E-02  0.1312668E+00
        -11   -1    0    0    0    0  0.00000000000E+00  0.00000000000E+00  0.45593999997E+02  0.45594000000E+02  0.51100000000E-03 0. -1.
         11   -1    0    0    0    0 -0.00000000000E+00 -0.00000000000E+00 -0.45593999997E+02  0.45594000000E+02  0.51100000000E-03 0.  1.
    9900012    2    1    2    0    0  0.33323139808E+02 -0.18594950423E+02 -0.20674136215E+02  0.47787265719E+02  0.19999975720E+02 0.  0.
         12    1    1    2    0    0 -0.33323139808E+02  0.18594950423E+02  0.20674136215E+02  0.43400734281E+02  0.00000000000E+00 0. -1.
         11    1    3    3    0    0  0.17874554383E+01 -0.72415171537E+01 -0.10577994365E+01  0.75334923867E+01  0.51100000000E-03 0. -1.
        -11    1    3    3    0    0  0.12561843022E+02 -0.32527263862E+01 -0.13523638931E+02  0.18742170079E+02  0.51100000000E-03 0.  1.
        -12    1    3    3    0    0  0.18973841348E+02 -0.81007068830E+01 -0.60926978469E+01  0.21511603254E+02  0.00000000000E+00 0.  1.
</event>
<event>
 7    1  0.7357971E-011  0.4778728E+02  0.7816164E-02  0.1312668E+00
        -11   -1    0    0    0    0  0.00000000000E+00  0.00000000000E+00  0.45593999997E+02  0.45594000000E+02  0.51100000000E-03 0. -1.
         11   -1    0    0    0    0 -0.00000000000E+00 -0.00000000000E+00 -0.45593999997E+02  0.45594000000E+02  0.51100000000E-03 0.  1.
    9900012    2    1    2    0    0  0.15391998800E+02  0.26327413706E+02 -0.30880030162E+02  0.47787278781E+02  0.20000035274E+02 0.  0.
         12    1    1    2    0    0 -0.15391998800E+02 -0.26327413706E+02  0.30880030162E+02  0.43400721219E+02  0.00000000000E+00 0. -1.
         11    1    3    3    0    0 -0.14020887555E+01  0.10719013998E+02 -0.15830569800E+02  0.19169508455E+02  0.51100000000E-03 0. -1.
        -11    1    3    3    0    0  0.95569023319E+01  0.36740613164E+01 -0.79235747544E+01  0.12946665435E+02  0.51100000000E-03 0.  1.
        -12    1    3    3    0    0  0.72371852233E+01  0.11934338391E+02 -0.71258856084E+01  0.15671104891E+02  0.00000000000E+00 0.  1.
</event>
<event>
 7    1  0.7357971E-011  0.4778726E+02  0.7816164E-02  0.1312668E+00
        -11   -1    0    0    0    0  0.00000000000E+00  0.00000000000E+00  0.45593999997E+02  0.45594000000E+02  0.51100000000E-03 0. -1.
         11   -1    0    0    0    0 -0.00000000000E+00 -0.00000000000E+00 -0.45593999997E+02  0.45594000000E+02  0.51100000000E-03 0.  1.
    9900012    2    1    2    0    0 -0.47735787653E+01 -0.36773454351E+02 -0.22551053289E+02  0.47787262638E+02  0.19999961670E+02 0.  0.
         12    1    1    2    0    0  0.47735787653E+01  0.36773454351E+02  0.22551053289E+02  0.43400737362E+02  0.00000000000E+00 0. -1.
         11    1    3    3    0    0 -0.91719004530E+01 -0.15575969076E+02 -0.85600265652E+01  0.20000215640E+02  0.51100000000E-03 0. -1.
        -11    1    3    3    0    0 -0.91329398859E+00 -0.17527572986E+02 -0.10285552534E+02  0.20343119521E+02  0.51100000000E-03 0.  1.
         12    1    3    3    0    0  0.53116156762E+01 -0.36699122898E+01 -0.37054741893E+01  0.74439274764E+01  0.00000000000E+00 0. -1.
</event>
<event>
 7    1  0.7357971E-011  0.4778727E+02  0.7816164E-02  0.1312668E+00
        -11   -1    0    0    0    0  0.00000000000E+00  0.00000000000E+00  0.45593999997E+02  0.45594000000E+02  0.51100000000E-03 0.  1.
         11   -1    0    0    0    0 -0.00000000000E+00 -0.00000000000E+00 -0.45593999997E+02  0.45594000000E+02  0.51100000000E-03 0. -1.
    9900012    2    1    2    0    0  0.50155553039E+01 -0.38165358159E+02  0.20046769447E+02  0.47787270471E+02  0.19999997383E+02 0.  0.
        -12    1    1    2    0    0 -0.50155553039E+01  0.38165358159E+02 -0.20046769447E+02  0.43400729529E+02  0.00000000000E+00 0.  1.
         11    1    3    3    0    0 -0.37961946415E+00 -0.24504532745E+02  0.19674599077E+02  0.31427791604E+02  0.51100000000E-03 0. -1.
        -11    1    3    3    0    0  0.60298905323E+01 -0.58384485160E+01 -0.77082994544E+00  0.84285965600E+01  0.51100000000E-03 0.  1.
        -12    1    3    3    0    0 -0.63471576421E+00 -0.78223768985E+01  0.11430003152E+01  0.79308823068E+01  0.00000000000E+00 0.  1.
</event>
<event>
 7    1  0.7357971E-011  0.4778728E+02  0.7816164E-02  0.1312668E+00
        -11   -1    0    0    0    0  0.00000000000E+00  0.00000000000E+00  0.45593999997E+02  0.45594000000E+02  0.51100000000E-03 0. -1.
         11   -1    0    0    0    0 -0.00000000000E+00 -0.00000000000E+00 -0.45593999997E+02  0.45594000000E+02  0.51100000000E-03 0.  1.
    9900012    2    1    2    0    0 -0.12818844500E+02  0.15947081545E+02 -0.38275189986E+02  0.47787281658E+02  0.20000048393E+02 0.  0.
         12    1    1    2    0    0  0.12818844500E+02 -0.15947081545E+02  0.38275189986E+02  0.43400718342E+02  0.00000000000E+00 0. -1.
         11    1    3    3    0    0  0.15057515533E+01  0.11064687676E+02 -0.13142038387E+02  0.17245514615E+02  0.51100000000E-03 0.  1.
        -11    1    3    3    0    0 -0.13818787773E+02  0.25284808704E+01 -0.16966359372E+02  0.22027470613E+02  0.51100000000E-03 0. -1.
         12    1    3    3    0    0 -0.50580828028E+00  0.23539129986E+01 -0.81667922272E+01  0.85142964304E+01  0.00000000000E+00 0. -1.
</event>
<event>
 7    1  0.7357971E-011  0.4778727E+02  0.7816164E-02  0.1312668E+00
        -11   -1    0    0    0    0  0.00000000000E+00  0.00000000000E+00  0.45593999997E+02  0.45594000000E+02  0.51100000000E-03 0. -1.
         11   -1    0    0    0    0 -0.00000000000E+00 -0.00000000000E+00 -0.45593999997E+02  0.45594000000E+02  0.51100000000E-03 0.  1.
    9900012    2    1    2    0    0 -0.28122213034E+02 -0.25451401507E+02  0.21094793742E+02  0.47787273881E+02  0.20000012933E+02 0.  0.
        -12    1    1    2    0    0  0.28122213034E+02  0.25451401507E+02 -0.21094793742E+02  0.43400726119E+02  0.00000000000E+00 0.  1.
         11    1    3    3    0    0 -0.91419006381E+01 -0.26593544210E+01 -0.75584374621E+00  0.95508017068E+01  0.51100000000E-03 0. -1.
        -11    1    3    3    0    0 -0.92576012250E+01 -0.86275366222E+01  0.35673290555E+01  0.13147752867E+02  0.51100000000E-03 0.  1.
         12    1    3    3    0    0 -0.97227111709E+01 -0.14164510464E+02  0.18283308433E+02  0.25088719307E+02  0.00000000000E+00 0. -1.
</event>
<event>
 7    1  0.7357971E-011  0.4778727E+02  0.7816164E-02  0.1312668E+00
        -11   -1    0    0    0    0  0.00000000000E+00  0.00000000000E+00  0.45593999997E+02  0.45594000000E+02  0.51100000000E-03 0. -1.
         11   -1    0    0    0    0 -0.00000000000E+00 -0.00000000000E+00 -0.45593999997E+02  0.45594000000E+02  0.51100000000E-03 0.  1.
    9900012    2    1    2    0    0 -0.18544846389E+02  0.24206563101E+01  0.39164423236E+02  0.47787274753E+02  0.20000016907E+02 0.  0.
        -12    1    1    2    0    0  0.18544846389E+02 -0.24206563101E+01 -0.39164423236E+02  0.43400725247E+02  0.00000000000E+00 0.  1.
         11    1    3    3    0    0 -0.23004488823E+01  0.78663681411E+01  0.14018405040E+02  0.16238457221E+02  0.51100000000E-03 0. -1.
        -11    1    3    3    0    0 -0.13956989720E+02 -0.48284050254E+01  0.14700016549E+02  0.20837503303E+02  0.51100000000E-03 0.  1.
        -12    1    3    3    0    0 -0.22874077869E+01 -0.61730680562E+00  0.10446001647E+02  0.10711314228E+02  0.00000000000E+00 0.  1.
</event>
<event>
 7    1  0.7357971E-011  0.4778728E+02  0.7816164E-02  0.1312668E+00
        -11   -1    0    0    0    0  0.00000000000E+00  0.00000000000E+00  0.45593999997E+02  0.45594000000E+02  0.51100000000E-03 0. -1.
         11   -1    0    0    0    0 -0.00000000000E+00 -0.00000000000E+00 -0.45593999997E+02  0.45594000000E+02  0.51100000000E-03 0.  1.
    9900012    2    1    2    0    0  0.11100685602E+02  0.80323182622E+01  0.41181049752E+02  0.47787283230E+02  0.20000055558E+02 0.  0.
        -12    1    1    2    0    0 -0.11100685602E+02 -0.80323182622E+01 -0.41181049752E+02  0.43400716770E+02  0.00000000000E+00 0.  1.
         11    1    3    3    0    0  0.70677758144E+00  0.25727378821E+01  0.55035076633E+01  0.61161353501E+01  0.51100000000E-03 0. -1.
        -11    1    3    3    0    0  0.15271702144E+02  0.33664753959E+01  0.21932473462E+02  0.26936804476E+02  0.51100000000E-03 0.  1.
        -12    1    3    3    0    0 -0.48777941233E+01  0.20931049842E+01  0.13745068627E+02  0.14734343403E+02  0.00000000000E+00 0.  1.
</event>
<event>
 7    1  0.7357971E-011  0.4778728E+02  0.7816164E-02  0.1312668E+00
        -11   -1    0    0    0    0  0.00000000000E+00  0.00000000000E+00  0.45593999997E+02  0.45594000000E+02  0.51100000000E-03 0. -1.
         11   -1    0    0    0    0 -0.00000000000E+00 -0.00000000000E+00 -0.45593999997E+02  0.45594000000E+02  0.51100000000E-03 0.  1.
    9900012    2    1    2    0    0  0.10569620947E+02 -0.57254301411E+01 -0.41702821910E+02  0.47787276590E+02  0.20000025282E+02 0.  0.
         12    1    1    2    0    0 -0.10569620947E+02  0.57254301411E+01  0.41702821910E+02  0.43400723410E+02  0.00000000000E+00 0. -1.
         11    1    3    3    0    0  0.13075762479E+01  0.62884614385E+01 -0.10355256824E+02  0.12185476891E+02  0.51100000000E-03 0. -1.
        -11    1    3    3    0    0  0.25746278123E+01 -0.12791893423E+01 -0.13022456662E+02  0.13336019328E+02  0.51100000000E-03 0.  1.
         12    1    3    3    0    0  0.66874168865E+01 -0.10734702237E+02 -0.18325108424E+02  0.22265780370E+02  0.00000000000E+00 0. -1.
</event>
<event>
 7    1  0.7357971E-011  0.4778727E+02  0.7816164E-02  0.1312668E+00
        -11   -1    0    0    0    0  0.00000000000E+00  0.00000000000E+00  0.45593999997E+02  0.45594000000E+02  0.51100000000E-03 0. -1.
         11   -1    0    0    0    0 -0.00000000000E+00 -0.00000000000E+00 -0.45593999997E+02  0.45594000000E+02  0.51100000000E-03 0.  1.
    9900012    2    1    2    0    0 -0.13228134738E+02  0.19493255215E+02  0.36450689133E+02  0.47787270907E+02  0.19999999373E+02 0.  0.
        -12    1    1    2    0    0  0.13228134738E+02 -0.19493255215E+02 -0.36450689133E+02  0.43400729093E+02  0.00000000000E+00 0.  1.
         11    1    3    3    0    0 -0.15054361572E+02  0.14303152493E+02  0.18169572169E+02  0.27592523020E+02  0.51100000000E-03 0. -1.
        -11    1    3    3    0    0  0.41752391997E+01  0.23342955498E+01  0.87629542036E+01  0.99835326776E+01  0.51100000000E-03 0.  1.
         12    1    3    3    0    0 -0.23490123659E+01  0.28558071724E+01  0.95181627608E+01  0.10211215209E+02  0.00000000000E+00 0. -1.
</event>
<event>
 7    1  0.7357971E-011  0.4778728E+02  0.7816164E-02  0.1312668E+00
        -11   -1    0    0    0    0  0.00000000000E+00  0.00000000000E+00  0.45593999997E+02  0.45594000000E+02  0.51100000000E-03 0. -1.
         11   -1    0    0    0    0 -0.00000000000E+00 -0.00000000000E+00 -0.45593999997E+02  0.45594000000E+02  0.51100000000E-03 0.  1.
    9900012    2    1    2    0    0  0.25591732789E+02 -0.14443649431E+02 -0.31938486242E+02  0.47787277662E+02  0.20000030173E+02 0.  0.
         12    1    1    2    0    0 -0.25591732789E+02  0.14443649431E+02  0.31938486242E+02  0.43400722338E+02  0.00000000000E+00 0. -1.
         11    1    3    3    0    0  0.12801859928E+01  0.12612142463E+01 -0.80337502459E+01  0.82322949914E+01  0.51100000000E-03 0. -1.
        -11    1    3    3    0    0  0.25612116293E+02 -0.15569589067E+02 -0.21744884108E+02  0.37030157842E+02  0.51100000000E-03 0.  1.
         12    1    3    3    0    0 -0.13005694965E+01 -0.13527460985E+00 -0.21598518881E+01  0.25248248283E+01  0.00000000000E+00 0. -1.
</event>
<event>
 7    1  0.1063496E-010  0.4778727E+02  0.7816164E-02  0.1312668E+00
        -11   -1    0    0    0    0  0.00000000000E+00  0.00000000000E+00  0.45593999997E+02  0.45594000000E+02  0.51100000000E-03 0. -1.
         11   -1    0    0    0    0 -0.00000000000E+00 -0.00000000000E+00 -0.45593999997E+02  0.45594000000E+02  0.51100000000E-03 0.  1.
    9900012    2    1    2    0    0  0.12348529295E+02 -0.23682480013E+02 -0.34209313041E+02  0.47787272655E+02  0.20000007345E+02 0.  0.
         12    1    1    2    0    0 -0.12348529295E+02  0.23682480013E+02  0.34209313041E+02  0.43400727345E+02  0.00000000000E+00 0. -1.
         11    1    3    3    0    0  0.47571918864E+01 -0.68566709632E+01 -0.17421712494E+01  0.85252549678E+01  0.51100000000E-03 0. -1.
        -11    1    3    3    0    0  0.12498317048E+00 -0.12664823010E+02 -0.24485670366E+02  0.27567397704E+02  0.51100000000E-03 0.  1.
        -12    1    3    3    0    0  0.74663542383E+01 -0.41609860400E+01 -0.79814714259E+01  0.11694619984E+02  0.00000000000E+00 0.  1.
</event>
<event>
 7    1  0.7357971E-011  0.4778727E+02  0.7816164E-02  0.1312668E+00
        -11   -1    0    0    0    0  0.00000000000E+00  0.00000000000E+00  0.45593999997E+02  0.45594000000E+02  0.51100000000E-03 0. -1.
         11   -1    0    0    0    0 -0.00000000000E+00 -0.00000000000E+00 -0.45593999997E+02  0.45594000000E+02  0.51100000000E-03 0.  1.
    9900012    2    1    2    0    0  0.18873774853E+02  0.27314360663E+01 -0.38986449720E+02  0.47787269800E+02  0.19999994326E+02 0.  0.
         12    1    1    2    0    0 -0.18873774853E+02 -0.27314360663E+01  0.38986449720E+02  0.43400730200E+02  0.00000000000E+00 0. -1.
         11    1    3    3    0    0  0.73730851535E+01 -0.55410923548E+01 -0.25167600387E+02  0.26804369022E+02  0.51100000000E-03 0. -1.
        -11    1    3    3    0    0  0.73418303171E+01  0.28436320506E+01 -0.35296398974E+01  0.86282717685E+01  0.51100000000E-03 0.  1.
         12    1    3    3    0    0  0.41588593820E+01  0.54288963705E+01 -0.10289209435E+02  0.12354629010E+02  0.00000000000E+00 0. -1.
</event>
<event>
 7    1  0.7357971E-011  0.4778727E+02  0.7816164E-02  0.1312668E+00
        -11   -1    0    0    0    0  0.00000000000E+00  0.00000000000E+00  0.45593999997E+02  0.45594000000E+02  0.51100000000E-03 0. -1.
         11   -1    0    0    0    0 -0.00000000000E+00 -0.00000000000E+00 -0.45593999997E+02  0.45594000000E+02  0.51100000000E-03 0.  1.
    9900012    2    1    2    0    0  0.20882378326E+02 -0.88595409167E+01  0.37000786596E+02  0.47787269609E+02  0.19999993454E+02 0.  0.
        -12    1    1    2    0    0 -0.20882378326E+02  0.88595409167E+01 -0.37000786596E+02  0.43400730391E+02  0.00000000000E+00 0.  1.
         11    1    3    3    0    0  0.47486113476E+01  0.64865007771E+00  0.77392339774E+01  0.91030653888E+01  0.51100000000E-03 0. -1.
        -11    1    3    3    0    0  0.17365360411E+02 -0.31892942203E+01  0.15511958587E+02  0.23502089253E+02  0.51100000000E-03 0.  1.
        -12    1    3    3    0    0 -0.12315934326E+01 -0.63188967742E+01  0.13749594032E+02  0.15182114967E+02  0.00000000000E+00 0.  1.
</event>
<event>
 7    1  0.7357971E-011  0.4778727E+02  0.7816164E-02  0.1312668E+00
        -11   -1    0    0    0    0  0.00000000000E+00  0.00000000000E+00  0.45593999997E+02  0.45594000000E+02  0.51100000000E-03 0. -1.
         11   -1    0    0    0    0 -0.00000000000E+00 -0.00000000000E+00 -0.45593999997E+02  0.45594000000E+02  0.51100000000E-03 0.  1.
    9900012    2    1    2    0    0  0.11252518058E+01  0.23230733646E+01  0.43323904960E+02  0.47787267258E+02  0.19999982738E+02 0.  0.
        -12    1    1    2    0    0 -0.11252518058E+01 -0.23230733646E+01 -0.43323904960E+02  0.43400732742E+02  0.00000000000E+00 0.  1.
         11    1    3    3    0    0  0.34685836667E+01  0.51225666500E+01  0.96226161398E+01  0.11439689828E+02  0.51100000000E-03 0. -1.
        -11    1    3    3    0    0 -0.43375183900E+01 -0.49997786314E+01  0.76015619646E+01  0.10079464108E+02  0.51100000000E-03 0.  1.
        -12    1    3    3    0    0  0.19941865291E+01  0.22002853461E+01  0.26099726856E+02  0.26268113322E+02  0.00000000000E+00 0.  1.
</event>
<event>
 7    1  0.7357971E-011  0.4778728E+02  0.7816164E-02  0.1312668E+00
        -11   -1    0    0    0    0  0.00000000000E+00  0.00000000000E+00  0.45593999997E+02  0.45594000000E+02  0.51100000000E-03 0. -1.
         11   -1    0    0    0    0 -0.00000000000E+00 -0.00000000000E+00 -0.45593999997E+02  0.45594000000E+02  0.51100000000E-03 0.  1.
    9900012    2    1    2    0    0  0.81179632105E+01 -0.16066131224E+01  0.42604462554E+02  0.47787276942E+02  0.20000026891E+02 0.  0.
        -12    1    1    2    0    0 -0.81179632105E+01  0.16066131224E+01 -0.42604462554E+02  0.43400723058E+02  0.00000000000E+00 0.  1.
         11    1    3    3    0    0  0.31648538662E+01  0.42646900459E-01  0.22420182645E+02  0.22642497850E+02  0.51100000000E-03 0. -1.
        -11    1    3    3    0    0  0.12970056221E+01  0.51099930086E+00 -0.20663017203E+01  0.24925783698E+01  0.51100000000E-03 0.  1.
        -12    1    3    3    0    0  0.36561037222E+01 -0.21602593238E+01  0.22250581629E+02  0.22652200723E+02  0.00000000000E+00 0.  1.
</event>
<event>
 7    1  0.7357971E-011  0.4778727E+02  0.7816164E-02  0.1312668E+00
        -11   -1    0    0    0    0  0.00000000000E+00  0.00000000000E+00  0.45593999997E+02  0.45594000000E+02  0.51100000000E-03 0. -1.
         11   -1    0    0    0    0 -0.00000000000E+00 -0.00000000000E+00 -0.45593999997E+02  0.45594000000E+02  0.51100000000E-03 0.  1.
    9900012    2    1    2    0    0 -0.29012909655E+02 -0.20963466636E+02  0.24543987674E+02  0.47787271999E+02  0.20000004354E+02 0.  0.
        -12    1    1    2    0    0  0.29012909655E+02  0.20963466636E+02 -0.24543987674E+02  0.43400728001E+02  0.00000000000E+00 0.  1.
         11    1    3    3    0    0 -0.11465117480E+02 -0.13494069984E+02  0.12159438551E+02  0.21480009071E+02  0.51100000000E-03 0. -1.
        -11    1    3    3    0    0 -0.15303989140E+02 -0.43012145862E+00  0.10840629069E+02  0.18759433012E+02  0.51100000000E-03 0.  1.
        -12    1    3    3    0    0 -0.22438030347E+01 -0.70392751934E+01  0.15439200541E+01  0.75478299160E+01  0.00000000000E+00 0.  1.
</event>
<event>
 7    1  0.7357971E-011  0.4778726E+02  0.7816164E-02  0.1312668E+00
        -11   -1    0    0    0    0  0.00000000000E+00  0.00000000000E+00  0.45593999997E+02  0.45594000000E+02  0.51100000000E-03 0. -1.
         11   -1    0    0    0    0 -0.00000000000E+00 -0.00000000000E+00 -0.45593999997E+02  0.45594000000E+02  0.51100000000E-03 0.  1.
    9900012    2    1    2    0    0 -0.47511611075E+01 -0.70320935320E+01  0.42562893846E+02  0.47787264939E+02  0.19999972163E+02 0.  0.
        -12    1    1    2    0    0  0.47511611075E+01  0.70320935320E+01 -0.42562893846E+02  0.43400735061E+02  0.00000000000E+00 0.  1.
         11    1    3    3    0    0 -0.43458569480E+00 -0.67808648454E+01  0.17329235139E+02  0.18613741794E+02  0.51100000000E-03 0. -1.
        -11    1    3    3    0    0  0.71256642597E+00  0.25583961515E+01 -0.58545999674E+00  0.27195414041E+01  0.51100000000E-03 0.  1.
        -12    1    3    3    0    0 -0.50291418386E+01 -0.28096248382E+01  0.25819118703E+02  0.26453981741E+02  0.00000000000E+00 0.  1.
</event>
<event>
 7    1  0.7357971E-011  0.4778727E+02  0.7816164E-02  0.1312668E+00
        -11   -1    0    0    0    0  0.00000000000E+00  0.00000000000E+00  0.45593999997E+02  0.45594000000E+02  0.51100000000E-03 0. -1.
         11   -1    0    0    0    0 -0.00000000000E+00 -0.00000000000E+00 -0.45593999997E+02  0.45594000000E+02  0.51100000000E-03 0.  1.
    9900012    2    1    2    0    0 -0.14838230019E+02  0.38678076770E+02  0.12940492798E+02  0.47787273663E+02  0.20000011938E+02 0.  0.
        -12    1    1    2    0    0  0.14838230019E+02 -0.38678076770E+02 -0.12940492798E+02  0.43400726337E+02  0.00000000000E+00 0.  1.
         11    1    3    3    0    0 -0.64693203974E+01  0.23582493431E+02  0.15737390295E+02  0.29080088658E+02  0.51100000000E-03 0. -1.
        -11    1    3    3    0    0 -0.48035171930E+01  0.13929218631E+02 -0.24923708001E+01  0.14943521057E+02  0.51100000000E-03 0.  1.
         12    1    3    3    0    0 -0.35653924288E+01  0.11663647082E+01 -0.30452669703E+00  0.37636639479E+01  0.00000000000E+00 0. -1.
</event>
<event>
 7    1  0.7357971E-011  0.4778726E+02  0.7816164E-02  0.1312668E+00
        -11   -1    0    0    0    0  0.00000000000E+00  0.00000000000E+00  0.45593999997E+02  0.45594000000E+02  0.51100000000E-03 0. -1.
         11   -1    0    0    0    0 -0.00000000000E+00 -0.00000000000E+00 -0.45593999997E+02  0.45594000000E+02  0.51100000000E-03 0.  1.
    9900012    2    1    2    0    0 -0.53250366950E+01 -0.40948459923E+02  0.13360081782E+02  0.47787260708E+02  0.19999952871E+02 0.  0.
        -12    1    1    2    0    0  0.53250366950E+01  0.40948459923E+02 -0.13360081782E+02  0.43400739292E+02  0.00000000000E+00 0.  1.
         11    1    3    3    0    0  0.22092116553E+01 -0.33950639539E+02  0.11607096169E+02  0.35947895947E+02  0.51100000000E-03 0. -1.
        -11    1    3    3    0    0 -0.74577366759E+01 -0.72870678337E+01  0.27623787393E+01  0.10786562497E+02  0.51100000000E-03 0.  1.
         12    1    3    3    0    0 -0.76511674422E-01  0.28924744960E+00 -0.10093931264E+01  0.10528022640E+01  0.00000000000E+00 0. -1.
</event>
<event>
 7    1  0.7357971E-011  0.4778727E+02  0.7816164E-02  0.1312668E+00
        -11   -1    0    0    0    0  0.00000000000E+00  0.00000000000E+00  0.45593999997E+02  0.45594000000E+02  0.51100000000E-03 0. -1.
         11   -1    0    0    0    0 -0.00000000000E+00 -0.00000000000E+00 -0.45593999997E+02  0.45594000000E+02  0.51100000000E-03 0.  1.
    9900012    2    1    2    0    0  0.21252942273E+02  0.61632555567E+01 -0.37335640698E+02  0.47787270275E+02  0.19999996494E+02 0.  0.
         12    1    1    2    0    0 -0.21252942273E+02 -0.61632555567E+01  0.37335640698E+02  0.43400729725E+02  0.00000000000E+00 0. -1.
         11    1    3    3    0    0 -0.17402344554E+01 -0.33474034431E+01 -0.15977433961E+01  0.40971099560E+01  0.51100000000E-03 0. -1.
        -11    1    3    3    0    0  0.15335563206E+02  0.67826775438E+01 -0.21157053261E+02  0.26996390804E+02  0.51100000000E-03 0.  1.
         12    1    3    3    0    0  0.76576135224E+01  0.27279814560E+01 -0.14580844041E+02  0.16693769515E+02  0.00000000000E+00 0. -1.
</event>
<event>
 7    1  0.7357971E-011  0.4778727E+02  0.7816164E-02  0.1312668E+00
        -11   -1    0    0    0    0  0.00000000000E+00  0.00000000000E+00  0.45593999997E+02  0.45594000000E+02  0.51100000000E-03 0.  1.
         11   -1    0    0    0    0 -0.00000000000E+00 -0.00000000000E+00 -0.45593999997E+02  0.45594000000E+02  0.51100000000E-03 0. -1.
    9900012    2    1    2    0    0 -0.43333063015E+02 -0.23975852997E+01  0.34709492647E+00  0.47787271430E+02  0.20000001758E+02 0.  0.
        -12    1    1    2    0    0  0.43333063015E+02  0.23975852997E+01 -0.34709492647E+00  0.43400728570E+02  0.00000000000E+00 0.  1.
         11    1    3    3    0    0 -0.18484601337E+01  0.56095957237E+00 -0.10346151628E+01  0.21913259237E+01  0.51100000000E-03 0. -1.
        -11    1    3    3    0    0 -0.78931316954E+01 -0.13186201944E+01 -0.73325022550E+01  0.10853841567E+02  0.51100000000E-03 0.  1.
        -12    1    3    3    0    0 -0.33591471186E+02 -0.16399246776E+01  0.87142123443E+01  0.34742103940E+02  0.00000000000E+00 0.  1.
</event>
<event>
 7    1  0.7357971E-011  0.4778727E+02  0.7816164E-02  0.1312668E+00
        -11   -1    0    0    0    0  0.00000000000E+00  0.00000000000E+00  0.45593999997E+02  0.45594000000E+02  0.51100000000E-03 0.  1.
         11   -1    0    0    0    0 -0.00000000000E+00 -0.00000000000E+00 -0.45593999997E+02  0.45594000000E+02  0.51100000000E-03 0. -1.
    9900012    2    1    2    0    0 -0.39990134351E+02  0.16148240409E+02 -0.48628000085E+01  0.47787270310E+02  0.19999996650E+02 0.  0.
        -12    1    1    2    0    0  0.39990134351E+02 -0.16148240409E+02  0.48628000085E+01  0.43400729690E+02  0.00000000000E+00 0.  1.
         11    1    3    3    0    0 -0.22838051928E+02  0.11323387488E+02 -0.10541844994E+02  0.27584891086E+02  0.51100000000E-03 0. -1.
        -11    1    3    3    0    0 -0.16792670930E+02  0.31052066660E+01  0.64879836308E+01  0.18268279538E+02  0.51100000000E-03 0.  1.
         12    1    3    3    0    0 -0.35941149259E+00  0.17196462552E+01 -0.80893864494E+00  0.19340996859E+01  0.00000000000E+00 0. -1.
</event>
<event>
 7    1  0.7357971E-011  0.4778727E+02  0.7816164E-02  0.1312668E+00
        -11   -1    0    0    0    0  0.00000000000E+00  0.00000000000E+00  0.45593999997E+02  0.45594000000E+02  0.51100000000E-03 0. -1.
         11   -1    0    0    0    0 -0.00000000000E+00 -0.00000000000E+00 -0.45593999997E+02  0.45594000000E+02  0.51100000000E-03 0.  1.
    9900012    2    1    2    0    0 -0.22664071557E+00 -0.28639269327E+02 -0.32609265066E+02  0.47787270954E+02  0.19999999585E+02 0.  0.
         12    1    1    2    0    0  0.22664071557E+00  0.28639269327E+02  0.32609265066E+02  0.43400729046E+02  0.00000000000E+00 0. -1.
         11    1    3    3    0    0 -0.36073594746E+01 -0.47702634965E+01 -0.11458882989E+02  0.12925728444E+02  0.51100000000E-03 0. -1.
        -11    1    3    3    0    0  0.23544968422E+01 -0.10015940114E+02 -0.93200649448E+00  0.10331086493E+02  0.51100000000E-03 0.  1.
        -12    1    3    3    0    0  0.10262219169E+01 -0.13853065717E+02 -0.20218375583E+02  0.24530456017E+02  0.00000000000E+00 0.  1.
</event>
<event>
 7    1  0.7675475E-011  0.4778727E+02  0.7816164E-02  0.1312668E+00
        -11   -1    0    0    0    0  0.00000000000E+00  0.00000000000E+00  0.45593999997E+02  0.45594000000E+02  0.51100000000E-03 0. -1.
         11   -1    0    0    0    0 -0.00000000000E+00 -0.00000000000E+00 -0.45593999997E+02  0.45594000000E+02  0.51100000000E-03 0.  1.
    9900012    2    1    2    0    0  0.25636890331E+02  0.13456156077E+02  0.32331176230E+02  0.47787271450E+02  0.20000001850E+02 0.  0.
        -12    1    1    2    0    0 -0.25636890331E+02 -0.13456156077E+02 -0.32331176230E+02  0.43400728550E+02  0.00000000000E+00 0.  1.
         11    1    3    3    0    0  0.22088017119E+02  0.72819015582E+01  0.22513384613E+02  0.32369106839E+02  0.51100000000E-03 0. -1.
        -11    1    3    3    0    0  0.20439622075E+01  0.32790792578E+01 -0.11046501716E+01  0.40187553480E+01  0.51100000000E-03 0.  1.
         12    1    3    3    0    0  0.15049110052E+01  0.28951752607E+01  0.10922441789E+02  0.11399409264E+02  0.00000000000E+00 0. -1.
</event>
<event>
 7    1  0.7357971E-011  0.4778727E+02  0.7816164E-02  0.1312668E+00
        -11   -1    0    0    0    0  0.00000000000E+00  0.00000000000E+00  0.45593999997E+02  0.45594000000E+02  0.51100000000E-03 0. -1.
         11   -1    0    0    0    0 -0.00000000000E+00 -0.00000000000E+00 -0.45593999997E+02  0.45594000000E+02  0.51100000000E-03 0.  1.
    9900012    2    1    2    0    0  0.36292351473E+01  0.26654548399E+02  0.34058580221E+02  0.47787272070E+02  0.20000004678E+02 0.  0.
        -12    1    1    2    0    0 -0.36292351473E+01 -0.26654548399E+02 -0.34058580221E+02  0.43400727930E+02  0.00000000000E+00 0.  1.
         11    1    3    3    0    0  0.27670295281E+01  0.10741645694E+02  0.24359106833E+02  0.26765752196E+02  0.51100000000E-03 0. -1.
        -11    1    3    3    0    0  0.51823051315E+00  0.83096809536E+01 -0.44691368169E+00  0.83378110147E+01  0.51100000000E-03 0.  1.
        -12    1    3    3    0    0  0.34397510609E+00  0.76032217517E+01  0.10146387069E+02  0.12683708860E+02  0.00000000000E+00 0.  1.
</event>
<event>
 7    1  0.7357971E-011  0.4778727E+02  0.7816164E-02  0.1312668E+00
        -11   -1    0    0    0    0  0.00000000000E+00  0.00000000000E+00  0.45593999997E+02  0.45594000000E+02  0.51100000000E-03 0. -1.
         11   -1    0    0    0    0 -0.00000000000E+00 -0.00000000000E+00 -0.45593999997E+02  0.45594000000E+02  0.51100000000E-03 0.  1.
    9900012    2    1    2    0    0 -0.29277989598E+02  0.46057168795E+01  0.31705050854E+02  0.47787267834E+02  0.19999985360E+02 0.  0.
        -12    1    1    2    0    0  0.29277989598E+02 -0.46057168795E+01 -0.31705050854E+02  0.43400732166E+02  0.00000000000E+00 0.  1.
         11    1    3    3    0    0 -0.29961104474E+02  0.21870243149E+01  0.22951526516E+02  0.37805071437E+02  0.51100000000E-03 0. -1.
        -11    1    3    3    0    0 -0.87259619409E+00  0.12976704096E+01  0.71742050738E+00  0.17204839597E+01  0.51100000000E-03 0.  1.
         12    1    3    3    0    0  0.15557110701E+01  0.11210221550E+01  0.80361038311E+01  0.82617124369E+01  0.00000000000E+00 0. -1.
</event>
<event>
 7    1  0.7357971E-011  0.4778727E+02  0.7816164E-02  0.1312668E+00
        -11   -1    0    0    0    0  0.00000000000E+00  0.00000000000E+00  0.45593999997E+02  0.45594000000E+02  0.51100000000E-03 0. -1.
         11   -1    0    0    0    0 -0.00000000000E+00 -0.00000000000E+00 -0.45593999997E+02  0.45594000000E+02  0.51100000000E-03 0.  1.
    9900012    2    1    2    0    0  0.89981622889E+01  0.13025368458E+02 -0.40410344628E+02  0.47787273036E+02  0.20000009082E+02 0.  0.
         12    1    1    2    0    0 -0.89981622889E+01 -0.13025368458E+02  0.40410344628E+02  0.43400726964E+02  0.00000000000E+00 0. -1.
         11    1    3    3    0    0  0.54634600256E+01  0.14040720911E+02 -0.14341328471E+02  0.20800599552E+02  0.51100000000E-03 0. -1.
        -11    1    3    3    0    0  0.42530877525E+01  0.13830055475E+01 -0.16428270870E+02  0.17026142951E+02  0.51100000000E-03 0.  1.
         12    1    3    3    0    0 -0.71838548929E+00 -0.23983580005E+01 -0.96407452870E+01  0.99605305330E+01  0.00000000000E+00 0. -1.
</event>
<event>
 7    1  0.7357971E-011  0.4778727E+02  0.7816164E-02  0.1312668E+00
        -11   -1    0    0    0    0  0.00000000000E+00  0.00000000000E+00  0.45593999997E+02  0.45594000000E+02  0.51100000000E-03 0. -1.
         11   -1    0    0    0    0 -0.00000000000E+00 -0.00000000000E+00 -0.45593999997E+02  0.45594000000E+02  0.51100000000E-03 0.  1.
    9900012    2    1    2    0    0  0.84147329636E+01 -0.31723866285E+02  0.28397393719E+02  0.47787269673E+02  0.19999993745E+02 0.  0.
        -12    1    1    2    0    0 -0.84147329636E+01  0.31723866285E+02 -0.28397393719E+02  0.43400730327E+02  0.00000000000E+00 0.  1.
         11    1    3    3    0    0 -0.11786699871E+01 -0.10309907602E+02  0.13176223878E+01  0.10460381767E+02  0.51100000000E-03 0. -1.
        -11    1    3    3    0    0  0.11876864742E+02 -0.18526039559E+02  0.23022500943E+02  0.31848227702E+02  0.51100000000E-03 0.  1.
        -12    1    3    3    0    0 -0.22834617909E+01 -0.28879191242E+01  0.40572703887E+01  0.54786602035E+01  0.00000000000E+00 0.  1.
</event>
<event>
 7    1  0.7357971E-011  0.4778721E+02  0.7816164E-02  0.1312668E+00
        -11   -1    0    0    0    0  0.00000000000E+00  0.00000000000E+00  0.45593999997E+02  0.45594000000E+02  0.51100000000E-03 0. -1.
         11   -1    0    0    0    0 -0.00000000000E+00 -0.00000000000E+00 -0.45593999997E+02  0.45594000000E+02  0.51100000000E-03 0.  1.
    9900012    2    1    2    0    0  0.40858551692E+02  0.14153299611E+02  0.37271676659E+01  0.47787206055E+02  0.19999703685E+02 0.  0.
        -12    1    1    2    0    0 -0.40858551692E+02 -0.14153299611E+02 -0.37271676659E+01  0.43400793945E+02  0.00000000000E+00 0.  1.
         11    1    3    3    0    0  0.32399549159E+02  0.80188641425E+01  0.47559804934E+00  0.33380520691E+02  0.51100000000E-03 0. -1.
        -11    1    3    3    0    0 -0.31539201277E+00 -0.13921264001E+01 -0.13496117773E+01  0.19644185516E+01  0.51100000000E-03 0.  1.
         12    1    3    3    0    0  0.87743945460E+01  0.75265618688E+01  0.46011813938E+01  0.12442266812E+02  0.00000000000E+00 0. -1.
</event>
<event>
 7    1  0.7357971E-011  0.4778726E+02  0.7816164E-02  0.1312668E+00
        -11   -1    0    0    0    0  0.00000000000E+00  0.00000000000E+00  0.45593999997E+02  0.45594000000E+02  0.51100000000E-03 0. -1.
         11   -1    0    0    0    0 -0.00000000000E+00 -0.00000000000E+00 -0.45593999997E+02  0.45594000000E+02  0.51100000000E-03 0.  1.
    9900012    2    1    2    0    0 -0.31281441421E+02 -0.20857050739E+02  0.21681301590E+02  0.47787262891E+02  0.19999962827E+02 0.  0.
        -12    1    1    2    0    0  0.31281441421E+02  0.20857050739E+02 -0.21681301590E+02  0.43400737109E+02  0.00000000000E+00 0.  1.
         11    1    3    3    0    0 -0.83065581068E+01  0.80947714965E+00  0.64442799245E+01  0.10544330460E+02  0.51100000000E-03 0. -1.
        -11    1    3    3    0    0 -0.74562609524E+01 -0.18002208407E+00  0.28187337863E+01  0.79732989259E+01  0.51100000000E-03 0.  1.
         12    1    3    3    0    0 -0.15518622362E+02 -0.21486505805E+02  0.12418287879E+02  0.29269633506E+02  0.00000000000E+00 0. -1.
</event>
<event>
 7    1  0.7357971E-011  0.4778727E+02  0.7816164E-02  0.1312668E+00
        -11   -1    0    0    0    0  0.00000000000E+00  0.00000000000E+00  0.45593999997E+02  0.45594000000E+02  0.51100000000E-03 0. -1.
         11   -1    0    0    0    0 -0.00000000000E+00 -0.00000000000E+00 -0.45593999997E+02  0.45594000000E+02  0.51100000000E-03 0.  1.
    9900012    2    1    2    0    0 -0.15774776206E+02  0.40083517848E+02 -0.53001316751E+01  0.47787270015E+02  0.19999995307E+02 0.  0.
        -12    1    1    2    0    0  0.15774776206E+02 -0.40083517848E+02  0.53001316751E+01  0.43400729985E+02  0.00000000000E+00 0.  1.
         11    1    3    3    0    0 -0.12482971925E+02  0.21800481678E+02  0.88761317314E-01  0.25121573763E+02  0.51100000000E-03 0. -1.
        -11    1    3    3    0    0  0.29856497036E+01  0.22787304002E+01 -0.38928194136E+01  0.54093215505E+01  0.51100000000E-03 0.  1.
        -12    1    3    3    0    0 -0.62774539847E+01  0.16004305770E+02 -0.14960735788E+01  0.17256374702E+02  0.00000000000E+00 0.  1.
</event>
<event>
 7    1  0.7357971E-011  0.4778727E+02  0.7816164E-02  0.1312668E+00
        -11   -1    0    0    0    0  0.00000000000E+00  0.00000000000E+00  0.45593999997E+02  0.45594000000E+02  0.51100000000E-03 0.  1.
         11   -1    0    0    0    0 -0.00000000000E+00 -0.00000000000E+00 -0.45593999997E+02  0.45594000000E+02  0.51100000000E-03 0. -1.
    9900012    2    1    2    0    0 -0.41661611172E+02  0.10858691541E+02 -0.54792384722E+01  0.47787273259E+02  0.20000010096E+02 0.  0.
         12    1    1    2    0    0  0.41661611172E+02 -0.10858691541E+02  0.54792384722E+01  0.43400726741E+02  0.00000000000E+00 0. -1.
         11    1    3    3    0    0 -0.28294188726E+02  0.15652983829E+01 -0.32925873751E+01  0.28528098544E+02  0.51100000000E-03 0.  1.
        -11    1    3    3    0    0  0.16752013072E+01  0.78345958775E+00 -0.30096842100E+00  0.18736836972E+01  0.51100000000E-03 0. -1.
        -12    1    3    3    0    0 -0.15042623754E+02  0.85099335699E+01 -0.18856826762E+01  0.17385491017E+02  0.00000000000E+00 0.  1.
</event>
<event>
 7    1  0.7357971E-011  0.4778727E+02  0.7816164E-02  0.1312668E+00
        -11   -1    0    0    0    0  0.00000000000E+00  0.00000000000E+00  0.45593999997E+02  0.45594000000E+02  0.51100000000E-03 0. -1.
         11   -1    0    0    0    0 -0.00000000000E+00 -0.00000000000E+00 -0.45593999997E+02  0.45594000000E+02  0.51100000000E-03 0.  1.
    9900012    2    1    2    0    0  0.45003325709E-01  0.10086481946E+02  0.42212366519E+02  0.47787273848E+02  0.20000012784E+02 0.  0.
        -12    1    1    2    0    0 -0.45003325709E-01 -0.10086481946E+02 -0.42212366519E+02  0.43400726152E+02  0.00000000000E+00 0.  1.
         11    1    3    3    0    0 -0.15227765127E+01  0.12047862942E+02  0.33857085261E+02  0.35969043251E+02  0.51100000000E-03 0. -1.
        -11    1    3    3    0    0 -0.26887871821E+01 -0.10394129842E+01  0.63136699345E+00  0.29510303970E+01  0.51100000000E-03 0.  1.
        -12    1    3    3    0    0  0.42565670206E+01 -0.92196801198E+00  0.77239142650E+01  0.88672002001E+01  0.00000000000E+00 0.  1.
</event>
<event>
 7    1  0.7357971E-011  0.4778727E+02  0.7816164E-02  0.1312668E+00
        -11   -1    0    0    0    0  0.00000000000E+00  0.00000000000E+00  0.45593999997E+02  0.45594000000E+02  0.51100000000E-03 0. -1.
         11   -1    0    0    0    0 -0.00000000000E+00 -0.00000000000E+00 -0.45593999997E+02  0.45594000000E+02  0.51100000000E-03 0.  1.
    9900012    2    1    2    0    0  0.33988966938E+01  0.10977563126E+02  0.41851692690E+02  0.47787267611E+02  0.19999984345E+02 0.  0.
        -12    1    1    2    0    0 -0.33988966938E+01 -0.10977563126E+02 -0.41851692690E+02  0.43400732389E+02  0.00000000000E+00 0.  1.
         11    1    3    3    0    0  0.26753796710E+01 -0.13058561514E+01  0.24626422421E+02  0.24805717046E+02  0.51100000000E-03 0. -1.
        -11    1    3    3    0    0 -0.65476513240E+00  0.42637863710E+00  0.76200876184E+01  0.76600425386E+01  0.51100000000E-03 0.  1.
         12    1    3    3    0    0  0.13782821553E+01  0.11857040640E+02  0.96051826504E+01  0.15321508026E+02  0.00000000000E+00 0. -1.
</event>
<event>
 7    1  0.7357971E-011  0.4778728E+02  0.7816164E-02  0.1312668E+00
        -11   -1    0    0    0    0  0.00000000000E+00  0.00000000000E+00  0.45593999997E+02  0.45594000000E+02  0.51100000000E-03 0. -1.
         11   -1    0    0    0    0 -0.00000000000E+00 -0.00000000000E+00 -0.45593999997E+02  0.45594000000E+02  0.51100000000E-03 0.  1.
    9900012    2    1    2    0    0 -0.30140771483E+02 -0.29738546213E+01 -0.31085572234E+02  0.47787277448E+02  0.20000029196E+02 0.  0.
         12    1    1    2    0    0  0.30140771483E+02  0.29738546213E+01  0.31085572234E+02  0.43400722552E+02  0.00000000000E+00 0. -1.
         11    1    3    3    0    0  0.61302246412E+00 -0.47878717108E+01 -0.34209858998E+01  0.59163043235E+01  0.51100000000E-03 0. -1.
        -11    1    3    3    0    0 -0.28947436659E+02  0.46041728995E+00 -0.26807735384E+02  0.39456567893E+02  0.51100000000E-03 0.  1.
        -12    1    3    3    0    0 -0.18063572880E+01  0.13535997996E+01 -0.85685095023E+00  0.24144052312E+01  0.00000000000E+00 0.  1.
</event>
<event>
 7    1  0.7357971E-011  0.4778727E+02  0.7816164E-02  0.1312668E+00
        -11   -1    0    0    0    0  0.00000000000E+00  0.00000000000E+00  0.45593999997E+02  0.45594000000E+02  0.51100000000E-03 0. -1.
         11   -1    0    0    0    0 -0.00000000000E+00 -0.00000000000E+00 -0.45593999997E+02  0.45594000000E+02  0.51100000000E-03 0.  1.
    9900012    2    1    2    0    0 -0.21504026277E+02 -0.25467280291E+02 -0.27796000990E+02  0.47787272096E+02  0.20000004794E+02 0.  0.
         12    1    1    2    0    0  0.21504026277E+02  0.25467280291E+02  0.27796000990E+02  0.43400727904E+02  0.00000000000E+00 0. -1.
         11    1    3    3    0    0 -0.20186906027E+02 -0.13393904091E+02 -0.13107157171E+02  0.27544607659E+02  0.51100000000E-03 0. -1.
        -11    1    3    3    0    0  0.17883125476E+01 -0.83997792292E+01 -0.65983628916E+01  0.10830177560E+02  0.51100000000E-03 0.  1.
         12    1    3    3    0    0 -0.31054327980E+01 -0.36735969711E+01 -0.80904809273E+01  0.94124868767E+01  0.00000000000E+00 0. -1.
</event>
<event>
 7    1  0.7357971E-011  0.4778731E+02  0.7816164E-02  0.1312668E+00
        -11   -1    0    0    0    0  0.00000000000E+00  0.00000000000E+00  0.45593999997E+02  0.45594000000E+02  0.51100000000E-03 0. -1.
         11   -1    0    0    0    0 -0.00000000000E+00 -0.00000000000E+00 -0.45593999997E+02  0.45594000000E+02  0.51100000000E-03 0.  1.
    9900012    2    1    2    0    0 -0.24225639464E+02 -0.11411416572E+02 -0.34154325598E+02  0.47787308846E+02  0.20000172351E+02 0.  0.
         12    1    1    2    0    0  0.24225639464E+02  0.11411416572E+02  0.34154325598E+02  0.43400691154E+02  0.00000000000E+00 0. -1.
         11    1    3    3    0    0 -0.12301418428E+02  0.30917514801E+01 -0.78787873920E+01  0.14931815482E+02  0.51100000000E-03 0. -1.
        -11    1    3    3    0    0 -0.15780035893E+01 -0.28082260315E+00 -0.50061297184E+01  0.52564523855E+01  0.51100000000E-03 0.  1.
         12    1    3    3    0    0 -0.10346217446E+02 -0.14222345449E+02 -0.21269408488E+02  0.27599040978E+02  0.00000000000E+00 0. -1.
</event>
<event>
 7    1  0.7357971E-011  0.4778727E+02  0.7816164E-02  0.1312668E+00
        -11   -1    0    0    0    0  0.00000000000E+00  0.00000000000E+00  0.45593999997E+02  0.45594000000E+02  0.51100000000E-03 0. -1.
         11   -1    0    0    0    0 -0.00000000000E+00 -0.00000000000E+00 -0.45593999997E+02  0.45594000000E+02  0.51100000000E-03 0.  1.
    9900012    2    1    2    0    0 -0.73515619667E+01 -0.21345040914E+02  0.37067061013E+02  0.47787271353E+02  0.20000001407E+02 0.  0.
        -12    1    1    2    0    0  0.73515619667E+01  0.21345040914E+02 -0.37067061013E+02  0.43400728647E+02  0.00000000000E+00 0.  1.
         11    1    3    3    0    0  0.56820558278E+01 -0.16764926172E+01  0.10989666849E+02  0.12484757252E+02  0.51100000000E-03 0. -1.
        -11    1    3    3    0    0 -0.87863913322E+01 -0.12885725921E+02  0.15018872093E+02  0.21652000470E+02  0.51100000000E-03 0.  1.
         12    1    3    3    0    0 -0.42472264622E+01 -0.67828223758E+01  0.11058522071E+02  0.13650513631E+02  0.00000000000E+00 0. -1.
</event>
<event>
 7    1  0.7357971E-011  0.4778727E+02  0.7816164E-02  0.1312668E+00
        -11   -1    0    0    0    0  0.00000000000E+00  0.00000000000E+00  0.45593999997E+02  0.45594000000E+02  0.51100000000E-03 0. -1.
         11   -1    0    0    0    0 -0.00000000000E+00 -0.00000000000E+00 -0.45593999997E+02  0.45594000000E+02  0.51100000000E-03 0.  1.
    9900012    2    1    2    0    0 -0.60011921766E+00  0.11686258359E+02  0.41793474492E+02  0.47787270886E+02  0.19999999280E+02 0.  0.
        -12    1    1    2    0    0  0.60011921766E+00 -0.11686258359E+02 -0.41793474492E+02  0.43400729114E+02  0.00000000000E+00 0.  1.
         11    1    3    3    0    0 -0.32503711900E+01  0.81085349324E+01  0.16577121008E+02  0.18738041327E+02  0.51100000000E-03 0. -1.
        -11    1    3    3    0    0  0.61918924112E+01  0.29655928066E+01  0.24421591513E+02  0.25368255845E+02  0.51100000000E-03 0.  1.
        -12    1    3    3    0    0 -0.35416404388E+01  0.61213061980E+00  0.79476197097E+00  0.36809737141E+01  0.00000000000E+00 0.  1.
</event>
<event>
 7    1  0.7357971E-011  0.4778727E+02  0.7816164E-02  0.1312668E+00
        -11   -1    0    0    0    0  0.00000000000E+00  0.00000000000E+00  0.45593999997E+02  0.45594000000E+02  0.51100000000E-03 0. -1.
         11   -1    0    0    0    0 -0.00000000000E+00 -0.00000000000E+00 -0.45593999997E+02  0.45594000000E+02  0.51100000000E-03 0.  1.
    9900012    2    1    2    0    0 -0.13239470342E+02  0.77643553106E+01  0.40596238527E+02  0.47787269927E+02  0.19999994904E+02 0.  0.
        -12    1    1    2    0    0  0.13239470342E+02 -0.77643553106E+01 -0.40596238527E+02  0.43400730073E+02  0.00000000000E+00 0.  1.
         11    1    3    3    0    0  0.77717888332E+00  0.26056261928E+01  0.65308907984E+01  0.70743077227E+01  0.51100000000E-03 0. -1.
        -11    1    3    3    0    0 -0.50443189829E+01 -0.63822532115E-01  0.28481769223E+02  0.28925082639E+02  0.51100000000E-03 0.  1.
        -12    1    3    3    0    0 -0.89723302423E+01  0.52225516500E+01  0.55835785058E+01  0.11787879565E+02  0.00000000000E+00 0.  1.
</event>
<event>
 7    1  0.7357971E-011  0.4778728E+02  0.7816164E-02  0.1312668E+00
        -11   -1    0    0    0    0  0.00000000000E+00  0.00000000000E+00  0.45593999997E+02  0.45594000000E+02  0.51100000000E-03 0. -1.
         11   -1    0    0    0    0 -0.00000000000E+00 -0.00000000000E+00 -0.45593999997E+02  0.45594000000E+02  0.51100000000E-03 0.  1.
    9900012    2    1    2    0    0  0.29651594725E+02 -0.21892108468E+02  0.22915964075E+02  0.47787275439E+02  0.20000020037E+02 0.  0.
        -12    1    1    2    0    0 -0.29651594725E+02  0.21892108468E+02 -0.22915964075E+02  0.43400724561E+02  0.00000000000E+00 0.  1.
         11    1    3    3    0    0  0.76460351250E+01 -0.34883312035E+01  0.64223966253E+01  0.10577215437E+02  0.51100000000E-03 0. -1.
        -11    1    3    3    0    0  0.10573311110E+02 -0.19169426578E+02  0.11132564174E+02  0.24560044961E+02  0.51100000000E-03 0.  1.
        -12    1    3    3    0    0  0.11432248490E+02  0.76564931355E+00  0.53610032760E+01  0.12650015041E+02  0.00000000000E+00 0.  1.
</event>
<event>
 7    1  0.7357971E-011  0.4778726E+02  0.7816164E-02  0.1312668E+00
        -11   -1    0    0    0    0  0.00000000000E+00  0.00000000000E+00  0.45593999997E+02  0.45594000000E+02  0.51100000000E-03 0. -1.
         11   -1    0    0    0    0 -0.00000000000E+00 -0.00000000000E+00 -0.45593999997E+02  0.45594000000E+02  0.51100000000E-03 0.  1.
    9900012    2    1    2    0    0 -0.55973658333E+01 -0.26283987636E+02  0.34079983995E+02  0.47787264759E+02  0.19999971344E+02 0.  0.
        -12    1    1    2    0    0  0.55973658333E+01  0.26283987636E+02 -0.34079983995E+02  0.43400735241E+02  0.00000000000E+00 0.  1.
         11    1    3    3    0    0 -0.70625037527E+01 -0.13820306179E+02  0.10541675932E+02  0.18761843029E+02  0.51100000000E-03 0. -1.
        -11    1    3    3    0    0  0.32667512266E+00 -0.13145535610E+01  0.14674136254E+02  0.14736520714E+02  0.51100000000E-03 0.  1.
        -12    1    3    3    0    0  0.11384627967E+01 -0.11149127896E+02  0.88641718088E+01  0.14288901016E+02  0.00000000000E+00 0.  1.
</event>
<event>
 7    1  0.7357971E-011  0.4778727E+02  0.7816164E-02  0.1312668E+00
        -11   -1    0    0    0    0  0.00000000000E+00  0.00000000000E+00  0.45593999997E+02  0.45594000000E+02  0.51100000000E-03 0. -1.
         11   -1    0    0    0    0 -0.00000000000E+00 -0.00000000000E+00 -0.45593999997E+02  0.45594000000E+02  0.51100000000E-03 0.  1.
    9900012    2    1    2    0    0  0.63804633864E+01 -0.22641848973E+02  0.36472725429E+02  0.47787270304E+02  0.19999996625E+02 0.  0.
        -12    1    1    2    0    0 -0.63804633864E+01  0.22641848973E+02 -0.36472725429E+02  0.43400729696E+02  0.00000000000E+00 0.  1.
         11    1    3    3    0    0  0.25170739068E+01 -0.10837266513E+02  0.35359171027E+01  0.11674104529E+02  0.51100000000E-03 0. -1.
        -11    1    3    3    0    0  0.52726584821E+01 -0.35487333776E+01  0.16077128217E+02  0.17287813281E+02  0.51100000000E-03 0.  1.
         12    1    3    3    0    0 -0.14092690024E+01 -0.82558490819E+01  0.16859680109E+02  0.18825352495E+02  0.00000000000E+00 0. -1.
</event>
<event>
 7    1  0.7357971E-011  0.4778727E+02  0.7816164E-02  0.1312668E+00
        -11   -1    0    0    0    0  0.00000000000E+00  0.00000000000E+00  0.45593999997E+02  0.45594000000E+02  0.51100000000E-03 0. -1.
         11   -1    0    0    0    0 -0.00000000000E+00 -0.00000000000E+00 -0.45593999997E+02  0.45594000000E+02  0.51100000000E-03 0.  1.
    9900012    2    1    2    0    0 -0.19742008635E+02 -0.15452772068E+00 -0.38650385295E+02  0.47787273425E+02  0.20000010854E+02 0.  0.
         12    1    1    2    0    0  0.19742008635E+02  0.15452772068E+00  0.38650385295E+02  0.43400726575E+02  0.00000000000E+00 0. -1.
         11    1    3    3    0    0 -0.83368400185E+01 -0.64252360928E+01 -0.79525890553E+01  0.13192051898E+02  0.51100000000E-03 0. -1.
        -11    1    3    3    0    0 -0.57669512354E+01  0.61046627478E+01 -0.95924488676E+01  0.12749106218E+02  0.51100000000E-03 0.  1.
        -12    1    3    3    0    0 -0.56382173810E+01  0.16604562433E+00 -0.21105347372E+02  0.21846115309E+02  0.00000000000E+00 0.  1.
</event>
<event>
 7    1  0.7357971E-011  0.4778727E+02  0.7816164E-02  0.1312668E+00
        -11   -1    0    0    0    0  0.00000000000E+00  0.00000000000E+00  0.45593999997E+02  0.45594000000E+02  0.51100000000E-03 0. -1.
         11   -1    0    0    0    0 -0.00000000000E+00 -0.00000000000E+00 -0.45593999997E+02  0.45594000000E+02  0.51100000000E-03 0.  1.
    9900012    2    1    2    0    0  0.13600797131E+02  0.15625650427E+02 -0.38137651234E+02  0.47787273330E+02  0.20000010421E+02 0.  0.
         12    1    1    2    0    0 -0.13600797131E+02 -0.15625650427E+02  0.38137651234E+02  0.43400726670E+02  0.00000000000E+00 0. -1.
         11    1    3    3    0    0 -0.10573346668E+01 -0.23110049525E+01 -0.19434396120E+01  0.31993215334E+01  0.51100000000E-03 0. -1.
        -11    1    3    3    0    0  0.15068393407E+02  0.18693118119E+02 -0.36487600961E+02  0.43678761075E+02  0.51100000000E-03 0.  1.
        -12    1    3    3    0    0 -0.41026160915E+00 -0.75646273956E+00  0.29338933938E+00  0.90919072187E+00  0.00000000000E+00 0.  1.
</event>
<event>
 7    1  0.7357971E-011  0.4778727E+02  0.7816164E-02  0.1312668E+00
        -11   -1    0    0    0    0  0.00000000000E+00  0.00000000000E+00  0.45593999997E+02  0.45594000000E+02  0.51100000000E-03 0. -1.
         11   -1    0    0    0    0 -0.00000000000E+00 -0.00000000000E+00 -0.45593999997E+02  0.45594000000E+02  0.51100000000E-03 0.  1.
    9900012    2    1    2    0    0  0.23732645745E+02  0.53627719603E+01  0.35939193484E+02  0.47787269298E+02  0.19999992037E+02 0.  0.
        -12    1    1    2    0    0 -0.23732645745E+02 -0.53627719603E+01 -0.35939193484E+02  0.43400730702E+02  0.00000000000E+00 0.  1.
         11    1    3    3    0    0 -0.18497929837E+01 -0.32396835244E+01  0.59502335765E+01  0.70230024418E+01  0.51100000000E-03 0. -1.
        -11    1    3    3    0    0  0.13964420325E+02  0.17154284477E+01  0.14258759633E+02  0.20031474142E+02  0.51100000000E-03 0.  1.
         12    1    3    3    0    0  0.11618018404E+02  0.68870270370E+01  0.15730200275E+02  0.20732792715E+02  0.00000000000E+00 0. -1.
</event>
<event>
 7    1  0.7357971E-011  0.4778727E+02  0.7816164E-02  0.1312668E+00
        -11   -1    0    0    0    0  0.00000000000E+00  0.00000000000E+00  0.45593999997E+02  0.45594000000E+02  0.51100000000E-03 0. -1.
         11   -1    0    0    0    0 -0.00000000000E+00 -0.00000000000E+00 -0.45593999997E+02  0.45594000000E+02  0.51100000000E-03 0.  1.
    9900012    2    1    2    0    0 -0.33169067246E+02 -0.60332380100E+01 -0.27331965070E+02  0.47787270773E+02  0.19999998761E+02 0.  0.
         12    1    1    2    0    0  0.33169067246E+02  0.60332380100E+01  0.27331965070E+02  0.43400729227E+02  0.00000000000E+00 0. -1.
         11    1    3    3    0    0 -0.16307044511E+02  0.62498588340E+00 -0.65174845273E+01  0.17572362188E+02  0.51100000000E-03 0. -1.
        -11    1    3    3    0    0 -0.14689956604E+02 -0.99818737902E+01 -0.18373014929E+02  0.25553870690E+02  0.51100000000E-03 0.  1.
        -12    1    3    3    0    0 -0.21720661310E+01  0.33236498968E+01 -0.24414656138E+01  0.46610378949E+01  0.00000000000E+00 0.  1.
</event>
<event>
 7    1  0.7357971E-011  0.4778727E+02  0.7816164E-02  0.1312668E+00
        -11   -1    0    0    0    0  0.00000000000E+00  0.00000000000E+00  0.45593999997E+02  0.45594000000E+02  0.51100000000E-03 0. -1.
         11   -1    0    0    0    0 -0.00000000000E+00 -0.00000000000E+00 -0.45593999997E+02  0.45594000000E+02  0.51100000000E-03 0.  1.
    9900012    2    1    2    0    0 -0.15689987408E+02  0.15011444019E+02 -0.37577969681E+02  0.47787274640E+02  0.20000016393E+02 0.  0.
         12    1    1    2    0    0  0.15689987408E+02 -0.15011444019E+02  0.37577969681E+02  0.43400725360E+02  0.00000000000E+00 0. -1.
         11    1    3    3    0    0  0.16562462101E+01 -0.29045192634E+01 -0.94319909766E+01  0.10007089372E+02  0.51100000000E-03 0. -1.
        -11    1    3    3    0    0 -0.78235780639E+01  0.78148202451E+01 -0.98130380806E+01  0.14784299301E+02  0.51100000000E-03 0.  1.
         12    1    3    3    0    0 -0.95226555543E+01  0.10101143038E+02 -0.18332940624E+02  0.22995885967E+02  0.00000000000E+00 0. -1.
</event>
<event>
 7    1  0.7357971E-011  0.4778727E+02  0.7816164E-02  0.1312668E+00
        -11   -1    0    0    0    0  0.00000000000E+00  0.00000000000E+00  0.45593999997E+02  0.45594000000E+02  0.51100000000E-03 0. -1.
         11   -1    0    0    0    0 -0.00000000000E+00 -0.00000000000E+00 -0.45593999997E+02  0.45594000000E+02  0.51100000000E-03 0.  1.
    9900012    2    1    2    0    0  0.29606900114E+02  0.22541905839E+01 -0.31653963415E+02  0.47787270634E+02  0.19999998130E+02 0.  0.
         12    1    1    2    0    0 -0.29606900114E+02 -0.22541905839E+01  0.31653963415E+02  0.43400729366E+02  0.00000000000E+00 0. -1.
         11    1    3    3    0    0  0.35772702223E+01 -0.18854494590E+01 -0.18797733823E+01  0.44592970450E+01  0.51100000000E-03 0. -1.
        -11    1    3    3    0    0  0.12035757690E+02  0.38551434170E+01 -0.28089370094E+01  0.12946494558E+02  0.51100000000E-03 0.  1.
        -12    1    3    3    0    0  0.13993872202E+02  0.28449662588E+00 -0.26965253024E+02  0.30381479032E+02  0.00000000000E+00 0.  1.
</event>
<event>
 7    1  0.7357971E-011  0.4778727E+02  0.7816164E-02  0.1312668E+00
        -11   -1    0    0    0    0  0.00000000000E+00  0.00000000000E+00  0.45593999997E+02  0.45594000000E+02  0.51100000000E-03 0. -1.
         11   -1    0    0    0    0 -0.00000000000E+00 -0.00000000000E+00 -0.45593999997E+02  0.45594000000E+02  0.51100000000E-03 0.  1.
    9900012    2    1    2    0    0 -0.35150466862E+02  0.60771191546E+01 -0.24721178119E+02  0.47787270220E+02  0.19999996242E+02 0.  0.
         12    1    1    2    0    0  0.35150466862E+02 -0.60771191546E+01  0.24721178119E+02  0.43400729780E+02  0.00000000000E+00 0. -1.
         11    1    3    3    0    0 -0.10781350575E+02  0.49650154460E+01  0.99407232681E-01  0.11870079219E+02  0.51100000000E-03 0.  1.
        -11    1    3    3    0    0 -0.63584097674E+01  0.42544298267E+01 -0.65731074601E+01  0.10086391320E+02  0.51100000000E-03 0. -1.
         12    1    3    3    0    0 -0.18010706519E+02 -0.31423261180E+01 -0.18247477892E+02  0.25830799681E+02  0.00000000000E+00 0. -1.
</event>
<event>
 7    1  0.7357971E-011  0.4778727E+02  0.7816164E-02  0.1312668E+00
        -11   -1    0    0    0    0  0.00000000000E+00  0.00000000000E+00  0.45593999997E+02  0.45594000000E+02  0.51100000000E-03 0. -1.
         11   -1    0    0    0    0 -0.00000000000E+00 -0.00000000000E+00 -0.45593999997E+02  0.45594000000E+02  0.51100000000E-03 0.  1.
    9900012    2    1    2    0    0  0.12525638946E+02  0.24775086999E+02  0.33360557523E+02  0.47787269993E+02  0.19999995208E+02 0.  0.
        -12    1    1    2    0    0 -0.12525638946E+02 -0.24775086999E+02 -0.33360557523E+02  0.43400730007E+02  0.00000000000E+00 0.  1.
         11    1    3    3    0    0  0.20089397115E+01  0.19238887571E+02  0.28734850248E+02  0.34639027885E+02  0.51100000000E-03 0. -1.
        -11    1    3    3    0    0  0.84932877617E+01  0.52525436086E+01  0.27100107245E+01  0.10347430104E+02  0.51100000000E-03 0.  1.
         12    1    3    3    0    0  0.20234114733E+01  0.28365581974E+00  0.19156965506E+01  0.28008120052E+01  0.00000000000E+00 0. -1.
</event>
<event>
 7    1  0.7357971E-011  0.4778726E+02  0.7816164E-02  0.1312668E+00
        -11   -1    0    0    0    0  0.00000000000E+00  0.00000000000E+00  0.45593999997E+02  0.45594000000E+02  0.51100000000E-03 0.  1.
         11   -1    0    0    0    0 -0.00000000000E+00 -0.00000000000E+00 -0.45593999997E+02  0.45594000000E+02  0.51100000000E-03 0. -1.
    9900012    2    1    2    0    0 -0.36179702778E+02  0.79286034100E+01  0.22622790396E+02  0.47787259333E+02  0.19999946605E+02 0.  0.
        -12    1    1    2    0    0  0.36179702778E+02 -0.79286034100E+01 -0.22622790396E+02  0.43400740667E+02  0.00000000000E+00 0.  1.
         11    1    3    3    0    0 -0.16518047090E+02  0.78152921195E+01  0.14522704576E+02  0.23341671300E+02  0.51100000000E-03 0. -1.
        -11    1    3    3    0    0 -0.16619509631E+01 -0.32808018411E+01 -0.12446926165E+01  0.38826539500E+01  0.51100000000E-03 0.  1.
         12    1    3    3    0    0 -0.17999704724E+02  0.33941131317E+01  0.93447784361E+01  0.20562934084E+02  0.00000000000E+00 0. -1.
</event>
<event>
 7    1  0.7357971E-011  0.4778727E+02  0.7816164E-02  0.1312668E+00
        -11   -1    0    0    0    0  0.00000000000E+00  0.00000000000E+00  0.45593999997E+02  0.45594000000E+02  0.51100000000E-03 0. -1.
         11   -1    0    0    0    0 -0.00000000000E+00 -0.00000000000E+00 -0.45593999997E+02  0.45594000000E+02  0.51100000000E-03 0.  1.
    9900012    2    1    2    0    0  0.25521850885E+02  0.13187917928E+02  0.32532096027E+02  0.47787270470E+02  0.19999997380E+02 0.  0.
        -12    1    1    2    0    0 -0.25521850885E+02 -0.13187917928E+02 -0.32532096027E+02  0.43400729530E+02  0.00000000000E+00 0.  1.
         11    1    3    3    0    0  0.97569264594E+01 -0.63409612717E+00  0.24454469003E+01  0.10078685561E+02  0.51100000000E-03 0. -1.
        -11    1    3    3    0    0  0.14964858713E+02  0.14361251325E+02  0.24778973321E+02  0.32313929736E+02  0.51100000000E-03 0.  1.
        -12    1    3    3    0    0  0.80006571260E+00 -0.53923726914E+00  0.53076758056E+01  0.53946551729E+01  0.00000000000E+00 0.  1.
</event>
<event>
 7    1  0.7357971E-011  0.4778727E+02  0.7816164E-02  0.1312668E+00
        -11   -1    0    0    0    0  0.00000000000E+00  0.00000000000E+00  0.45593999997E+02  0.45594000000E+02  0.51100000000E-03 0. -1.
         11   -1    0    0    0    0 -0.00000000000E+00 -0.00000000000E+00 -0.45593999997E+02  0.45594000000E+02  0.51100000000E-03 0.  1.
    9900012    2    1    2    0    0  0.28013481843E+02 -0.63898600689E+01  0.32527498775E+02  0.47787266674E+02  0.19999980076E+02 0.  0.
        -12    1    1    2    0    0 -0.28013481843E+02  0.63898600689E+01 -0.32527498775E+02  0.43400733326E+02  0.00000000000E+00 0.  1.
         11    1    3    3    0    0  0.51117614045E+01 -0.61439077526E+01  0.86305699761E+01  0.11762841727E+02  0.51100000000E-03 0. -1.
        -11    1    3    3    0    0  0.84158264614E+01  0.24676008452E+00  0.41531843959E+00  0.84296806129E+01  0.51100000000E-03 0.  1.
        -12    1    3    3    0    0  0.14485893977E+02 -0.49271240080E+00  0.23481610359E+02  0.27594744334E+02  0.00000000000E+00 0.  1.
</event>
<event>
 7    1  0.7357971E-011  0.4778727E+02  0.7816164E-02  0.1312668E+00
        -11   -1    0    0    0    0  0.00000000000E+00  0.00000000000E+00  0.45593999997E+02  0.45594000000E+02  0.51100000000E-03 0. -1.
         11   -1    0    0    0    0 -0.00000000000E+00 -0.00000000000E+00 -0.45593999997E+02  0.45594000000E+02  0.51100000000E-03 0.  1.
    9900012    2    1    2    0    0  0.18686654104E+02 -0.14876725646E+02 -0.36236932144E+02  0.47787271218E+02  0.20000000792E+02 0.  0.
         12    1    1    2    0    0 -0.18686654104E+02  0.14876725646E+02  0.36236932144E+02  0.43400728782E+02  0.00000000000E+00 0. -1.
         11    1    3    3    0    0  0.70287831754E+01  0.11679497724E+01 -0.24293965203E+01  0.75279391145E+01  0.51100000000E-03 0. -1.
        -11    1    3    3    0    0  0.11484276672E+02 -0.86542615709E+01 -0.20579146501E+02  0.25105499895E+02  0.51100000000E-03 0.  1.
         12    1    3    3    0    0  0.17359425604E+00 -0.73904138479E+01 -0.13228389123E+02  0.15153832209E+02  0.00000000000E+00 0. -1.
</event>
<event>
 7    1  0.7357971E-011  0.4778727E+02  0.7816164E-02  0.1312668E+00
        -11   -1    0    0    0    0  0.00000000000E+00  0.00000000000E+00  0.45593999997E+02  0.45594000000E+02  0.51100000000E-03 0. -1.
         11   -1    0    0    0    0 -0.00000000000E+00 -0.00000000000E+00 -0.45593999997E+02  0.45594000000E+02  0.51100000000E-03 0.  1.
    9900012    2    1    2    0    0  0.12013565087E+02 -0.61224529639E+01  0.41253036072E+02  0.47787272338E+02  0.20000005898E+02 0.  0.
        -12    1    1    2    0    0 -0.12013565087E+02  0.61224529639E+01 -0.41253036072E+02  0.43400727662E+02  0.00000000000E+00 0.  1.
         11    1    3    3    0    0  0.12203879041E+02 -0.10254451524E+02  0.27928347012E+02  0.32157129953E+02  0.51100000000E-03 0. -1.
        -11    1    3    3    0    0 -0.28182525190E+01  0.24865228797E+01  0.11345269725E+02  0.11951589379E+02  0.51100000000E-03 0.  1.
         12    1    3    3    0    0  0.26279385653E+01  0.16454756800E+01  0.19794193358E+01  0.36785530067E+01  0.00000000000E+00 0. -1.
</event>
<event>
 7    1  0.7357971E-011  0.4778727E+02  0.7816164E-02  0.1312668E+00
        -11   -1    0    0    0    0  0.00000000000E+00  0.00000000000E+00  0.45593999997E+02  0.45594000000E+02  0.51100000000E-03 0. -1.
         11   -1    0    0    0    0 -0.00000000000E+00 -0.00000000000E+00 -0.45593999997E+02  0.45594000000E+02  0.51100000000E-03 0.  1.
    9900012    2    1    2    0    0 -0.17336594166E+02  0.15008639941E+01 -0.39759444383E+02  0.47787268351E+02  0.19999987721E+02 0.  0.
         12    1    1    2    0    0  0.17336594166E+02 -0.15008639941E+01  0.39759444383E+02  0.43400731649E+02  0.00000000000E+00 0. -1.
         11    1    3    3    0    0 -0.18459097983E+01 -0.19892713840E+01 -0.22975848590E+02  0.23135561422E+02  0.51100000000E-03 0. -1.
        -11    1    3    3    0    0 -0.40735427776E+01  0.15037023537E+01 -0.10651021774E+00  0.43435257818E+01  0.51100000000E-03 0.  1.
         12    1    3    3    0    0 -0.11417141590E+02  0.19864330244E+01 -0.16677085576E+02  0.20308181148E+02  0.00000000000E+00 0. -1.
</event>
<event>
 7    1  0.7357971E-011  0.4778727E+02  0.7816164E-02  0.1312668E+00
        -11   -1    0    0    0    0  0.00000000000E+00  0.00000000000E+00  0.45593999997E+02  0.45594000000E+02  0.51100000000E-03 0.  1.
         11   -1    0    0    0    0 -0.00000000000E+00 -0.00000000000E+00 -0.45593999997E+02  0.45594000000E+02  0.51100000000E-03 0. -1.
    9900012    2    1    2    0    0 -0.21995941424E+01 -0.42120832957E+02 -0.10228417369E+02  0.47787270683E+02  0.19999998353E+02 0.  0.
         12    1    1    2    0    0  0.21995941424E+01  0.42120832957E+02  0.10228417369E+02  0.43400729317E+02  0.00000000000E+00 0. -1.
         11    1    3    3    0    0 -0.11803544751E+01 -0.80990282136E+01  0.57515777420E+01  0.10003406494E+02  0.51100000000E-03 0. -1.
        -11    1    3    3    0    0 -0.22670205208E+01 -0.25131972936E+02 -0.12444575149E+02  0.28135793868E+02  0.51100000000E-03 0.  1.
         12    1    3    3    0    0  0.12477808535E+01 -0.88898318068E+01 -0.35354199629E+01  0.96480703214E+01  0.00000000000E+00 0. -1.
</event>
<event>
 7    1  0.7357971E-011  0.4778726E+02  0.7816164E-02  0.1312668E+00
        -11   -1    0    0    0    0  0.00000000000E+00  0.00000000000E+00  0.45593999997E+02  0.45594000000E+02  0.51100000000E-03 0. -1.
         11   -1    0    0    0    0 -0.00000000000E+00 -0.00000000000E+00 -0.45593999997E+02  0.45594000000E+02  0.51100000000E-03 0.  1.
    9900012    2    1    2    0    0  0.58161318944E+01 -0.10100281907E+02  0.41806475620E+02  0.47787257051E+02  0.19999936197E+02 0.  0.
        -12    1    1    2    0    0 -0.58161318944E+01  0.10100281907E+02 -0.41806475620E+02  0.43400742949E+02  0.00000000000E+00 0.  1.
         11    1    3    3    0    0  0.85653234895E+01 -0.13847453893E+02  0.21970945124E+02  0.27346648345E+02  0.51100000000E-03 0. -1.
        -11    1    3    3    0    0 -0.25434779464E+01  0.21717111771E+01  0.13791543022E+02  0.14191274385E+02  0.51100000000E-03 0.  1.
         12    1    3    3    0    0 -0.20571364865E+00  0.15754608088E+01  0.60439874736E+01  0.62493343202E+01  0.00000000000E+00 0. -1.
</event>
<event>
 7    1  0.7357971E-011  0.4778727E+02  0.7816164E-02  0.1312668E+00
        -11   -1    0    0    0    0  0.00000000000E+00  0.00000000000E+00  0.45593999997E+02  0.45594000000E+02  0.51100000000E-03 0.  1.
         11   -1    0    0    0    0 -0.00000000000E+00 -0.00000000000E+00 -0.45593999997E+02  0.45594000000E+02  0.51100000000E-03 0. -1.
    9900012    2    1    2    0    0 -0.41357205906E+02  0.69697160184E+01  0.11163693988E+02  0.47787268610E+02  0.19999988901E+02 0.  0.
        -12    1    1    2    0    0  0.41357205906E+02 -0.69697160184E+01 -0.11163693988E+02  0.43400731390E+02  0.00000000000E+00 0.  1.
         11    1    3    3    0    0 -0.43822374494E+01  0.10884178570E+01  0.56883459976E+00  0.45510692763E+01  0.51100000000E-03 0. -1.
        -11    1    3    3    0    0 -0.34549700950E+02  0.66055814691E+01  0.14932720853E+02  0.38213893999E+02  0.51100000000E-03 0.  1.
        -12    1    3    3    0    0 -0.24252675068E+01 -0.72428330762E+00 -0.43378614644E+01  0.50223053346E+01  0.00000000000E+00 0.  1.
</event>
<event>
 7    1  0.7357971E-011  0.4778727E+02  0.7816164E-02  0.1312668E+00
        -11   -1    0    0    0    0  0.00000000000E+00  0.00000000000E+00  0.45593999997E+02  0.45594000000E+02  0.51100000000E-03 0. -1.
         11   -1    0    0    0    0 -0.00000000000E+00 -0.00000000000E+00 -0.45593999997E+02  0.45594000000E+02  0.51100000000E-03 0.  1.
    9900012    2    1    2    0    0  0.19635713538E+02  0.25597383728E+02 -0.29031632571E+02  0.47787274319E+02  0.20000014931E+02 0.  0.
         12    1    1    2    0    0 -0.19635713538E+02 -0.25597383728E+02  0.29031632571E+02  0.43400725681E+02  0.00000000000E+00 0. -1.
         11    1    3    3    0    0  0.10512303360E+01  0.65526570813E+01 -0.60403289844E+01  0.89737380475E+01  0.51100000000E-03 0. -1.
        -11    1    3    3    0    0 -0.11942591845E+01  0.60753230682E+01 -0.56062732614E+00  0.62169211546E+01  0.51100000000E-03 0.  1.
        -12    1    3    3    0    0  0.19778742387E+02  0.12969403578E+02 -0.22430676261E+02  0.32596615117E+02  0.00000000000E+00 0.  1.
</event>
<event>
 7    1  0.7357971E-011  0.4778727E+02  0.7816164E-02  0.1312668E+00
        -11   -1    0    0    0    0  0.00000000000E+00  0.00000000000E+00  0.45593999997E+02  0.45594000000E+02  0.51100000000E-03 0. -1.
         11   -1    0    0    0    0 -0.00000000000E+00 -0.00000000000E+00 -0.45593999997E+02  0.45594000000E+02  0.51100000000E-03 0.  1.
    9900012    2    1    2    0    0  0.38204797784E+02  0.28895246070E+01  0.20387921919E+02  0.47787270900E+02  0.19999999343E+02 0.  0.
        -12    1    1    2    0    0 -0.38204797784E+02 -0.28895246070E+01 -0.20387921919E+02  0.43400729100E+02  0.00000000000E+00 0.  1.
         11    1    3    3    0    0  0.17627719030E+02 -0.38819187223E+01  0.51279989204E+01  0.18764384998E+02  0.51100000000E-03 0. -1.
        -11    1    3    3    0    0  0.87980533665E+01  0.77691520894E+01  0.11942951201E+02  0.16745135140E+02  0.51100000000E-03 0.  1.
        -12    1    3    3    0    0  0.11779025388E+02 -0.99770876015E+00  0.33169717984E+01  0.12277750762E+02  0.00000000000E+00 0.  1.
</event>
<event>
 7    1  0.7357971E-011  0.4778726E+02  0.7816164E-02  0.1312668E+00
        -11   -1    0    0    0    0  0.00000000000E+00  0.00000000000E+00  0.45593999997E+02  0.45594000000E+02  0.51100000000E-03 0.  1.
         11   -1    0    0    0    0 -0.00000000000E+00 -0.00000000000E+00 -0.45593999997E+02  0.45594000000E+02  0.51100000000E-03 0. -1.
    9900012    2    1    2    0    0 -0.27240661873E+02 -0.18545022181E+02 -0.28242738953E+02  0.47787264862E+02  0.19999971811E+02 0.  0.
         12    1    1    2    0    0  0.27240661873E+02  0.18545022181E+02  0.28242738953E+02  0.43400735138E+02  0.00000000000E+00 0. -1.
         11    1    3    3    0    0 -0.14978541983E+01  0.39391030955E+00  0.19995581385E+01  0.25292223195E+01  0.51100000000E-03 0. -1.
        -11    1    3    3    0    0 -0.25095233468E+02 -0.16663180582E+02 -0.23787654483E+02  0.38383392710E+02  0.51100000000E-03 0.  1.
         12    1    3    3    0    0 -0.64757420658E+00 -0.22757519089E+01 -0.64546426087E+01  0.68746498318E+01  0.00000000000E+00 0. -1.
</event>
<event>
 7    1  0.7357971E-011  0.4778726E+02  0.7816164E-02  0.1312668E+00
        -11   -1    0    0    0    0  0.00000000000E+00  0.00000000000E+00  0.45593999997E+02  0.45594000000E+02  0.51100000000E-03 0.  1.
         11   -1    0    0    0    0 -0.00000000000E+00 -0.00000000000E+00 -0.45593999997E+02  0.45594000000E+02  0.51100000000E-03 0. -1.
    9900012    2    1    2    0    0 -0.34509229442E+02 -0.13287368525E+02  0.22719658177E+02  0.47787263293E+02  0.19999964660E+02 0.  0.
        -12    1    1    2    0    0  0.34509229442E+02  0.13287368525E+02 -0.22719658177E+02  0.43400736707E+02  0.00000000000E+00 0.  1.
         11    1    3    3    0    0 -0.74092134044E+01 -0.47245318743E+01 -0.20893781434E+01  0.90323388992E+01  0.51100000000E-03 0. -1.
        -11    1    3    3    0    0 -0.17238372218E+02 -0.21292897159E+01  0.18578762593E+02  0.25433556007E+02  0.51100000000E-03 0.  1.
         12    1    3    3    0    0 -0.98616438199E+01 -0.64335469346E+01  0.62302737276E+01  0.13321368387E+02  0.00000000000E+00 0. -1.
</event>
<event>
 7    1  0.7357971E-011  0.4778727E+02  0.7816164E-02  0.1312668E+00
        -11   -1    0    0    0    0  0.00000000000E+00  0.00000000000E+00  0.45593999997E+02  0.45594000000E+02  0.51100000000E-03 0. -1.
         11   -1    0    0    0    0 -0.00000000000E+00 -0.00000000000E+00 -0.45593999997E+02  0.45594000000E+02  0.51100000000E-03 0.  1.
    9900012    2    1    2    0    0  0.42709413855E+01  0.86267204827E+01  0.42319761289E+02  0.47787269106E+02  0.19999991162E+02 0.  0.
        -12    1    1    2    0    0 -0.42709413855E+01 -0.86267204827E+01 -0.42319761289E+02  0.43400730894E+02  0.00000000000E+00 0.  1.
         11    1    3    3    0    0 -0.21571221665E+01  0.70304246254E+01  0.18714752170E+02  0.20107759585E+02  0.51100000000E-03 0. -1.
        -11    1    3    3    0    0  0.93092197396E+01  0.43070822783E+01  0.14590939167E+02  0.17835583421E+02  0.51100000000E-03 0.  1.
        -12    1    3    3    0    0 -0.28811561877E+01 -0.27107864209E+01  0.90140699507E+01  0.98439261006E+01  0.00000000000E+00 0.  1.
</event>
<event>
 7    1  0.7357971E-011  0.4778727E+02  0.7816164E-02  0.1312668E+00
        -11   -1    0    0    0    0  0.00000000000E+00  0.00000000000E+00  0.45593999997E+02  0.45594000000E+02  0.51100000000E-03 0. -1.
         11   -1    0    0    0    0 -0.00000000000E+00 -0.00000000000E+00 -0.45593999997E+02  0.45594000000E+02  0.51100000000E-03 0.  1.
    9900012    2    1    2    0    0  0.55382366488E+01 -0.25939404010E+02  0.34352557742E+02  0.47787274556E+02  0.20000016012E+02 0.  0.
        -12    1    1    2    0    0 -0.55382366488E+01  0.25939404010E+02 -0.34352557742E+02  0.43400725444E+02  0.00000000000E+00 0.  1.
         11    1    3    3    0    0  0.28488636630E+01 -0.19284888792E+02  0.10284722503E+02  0.22040836579E+02  0.51100000000E-03 0. -1.
        -11    1    3    3    0    0 -0.30777085038E+00 -0.33394529429E+01  0.17394817482E+02  0.17715144491E+02  0.51100000000E-03 0.  1.
         12    1    3    3    0    0  0.29971438362E+01 -0.33150622755E+01  0.66730177577E+01  0.80312934861E+01  0.00000000000E+00 0. -1.
</event>
<event>
 7    1  0.7357971E-011  0.4778727E+02  0.7816164E-02  0.1312668E+00
        -11   -1    0    0    0    0  0.00000000000E+00  0.00000000000E+00  0.45593999997E+02  0.45594000000E+02  0.51100000000E-03 0. -1.
         11   -1    0    0    0    0 -0.00000000000E+00 -0.00000000000E+00 -0.45593999997E+02  0.45594000000E+02  0.51100000000E-03 0.  1.
    9900012    2    1    2    0    0  0.41544552231E+02  0.56899542104E+01  0.11193657059E+02  0.47787270083E+02  0.19999995615E+02 0.  0.
        -12    1    1    2    0    0 -0.41544552231E+02 -0.56899542104E+01 -0.11193657059E+02  0.43400729917E+02  0.00000000000E+00 0.  1.
         11    1    3    3    0    0  0.29900667084E+02  0.52805800524E+01  0.15626093912E+02  0.34148341526E+02  0.51100000000E-03 0. -1.
        -11    1    3    3    0    0  0.11804245496E+02 -0.39610796811E+00 -0.33435367132E+01  0.12275029583E+02  0.51100000000E-03 0.  1.
        -12    1    3    3    0    0 -0.16036034862E+00  0.80548212614E+00 -0.10889001399E+01  0.13638989741E+01  0.00000000000E+00 0.  1.
</event>
<event>
 7    1  0.7357971E-011  0.4778727E+02  0.7816164E-02  0.1312668E+00
        -11   -1    0    0    0    0  0.00000000000E+00  0.00000000000E+00  0.45593999997E+02  0.45594000000E+02  0.51100000000E-03 0. -1.
         11   -1    0    0    0    0 -0.00000000000E+00 -0.00000000000E+00 -0.45593999997E+02  0.45594000000E+02  0.51100000000E-03 0.  1.
    9900012    2    1    2    0    0 -0.59402275305E+01  0.27730679644E+02 -0.32853405962E+02  0.47787272126E+02  0.20000004933E+02 0.  0.
         12    1    1    2    0    0  0.59402275305E+01 -0.27730679644E+02  0.32853405962E+02  0.43400727874E+02  0.00000000000E+00 0. -1.
         11    1    3    3    0    0 -0.19185226346E+01  0.20168600209E+02 -0.14038312822E+02  0.24648070729E+02  0.51100000000E-03 0. -1.
        -11    1    3    3    0    0 -0.24061621077E+01 -0.95278181239E+00 -0.11531311413E+02  0.11818145051E+02  0.51100000000E-03 0.  1.
        -12    1    3    3    0    0 -0.16155427882E+01  0.85148612473E+01 -0.72837817270E+01  0.11321056347E+02  0.00000000000E+00 0.  1.
</event>
<event>
 7    1  0.7357971E-011  0.4778727E+02  0.7816164E-02  0.1312668E+00
        -11   -1    0    0    0    0  0.00000000000E+00  0.00000000000E+00  0.45593999997E+02  0.45594000000E+02  0.51100000000E-03 0. -1.
         11   -1    0    0    0    0 -0.00000000000E+00 -0.00000000000E+00 -0.45593999997E+02  0.45594000000E+02  0.51100000000E-03 0.  1.
    9900012    2    1    2    0    0 -0.31670971796E+02  0.83351906139E+01 -0.28479771293E+02  0.47787271550E+02  0.20000002306E+02 0.  0.
         12    1    1    2    0    0  0.31670971796E+02 -0.83351906139E+01  0.28479771293E+02  0.43400728450E+02  0.00000000000E+00 0. -1.
         11    1    3    3    0    0 -0.20527025950E+02  0.25715744520E+00 -0.14873245752E+02  0.25350312892E+02  0.51100000000E-03 0. -1.
        -11    1    3    3    0    0 -0.62783680284E+01  0.78250085424E+01 -0.25452701659E+01  0.10350220494E+02  0.51100000000E-03 0.  1.
        -12    1    3    3    0    0 -0.48655778174E+01  0.25302462630E+00 -0.11061255376E+02  0.12086738164E+02  0.00000000000E+00 0.  1.
</event>
<event>
 7    1  0.7357971E-011  0.4778727E+02  0.7816164E-02  0.1312668E+00
        -11   -1    0    0    0    0  0.00000000000E+00  0.00000000000E+00  0.45593999997E+02  0.45594000000E+02  0.51100000000E-03 0. -1.
         11   -1    0    0    0    0 -0.00000000000E+00 -0.00000000000E+00 -0.45593999997E+02  0.45594000000E+02  0.51100000000E-03 0.  1.
    9900012    2    1    2    0    0  0.24913793388E+02  0.19671354544E+01  0.35483185844E+02  0.47787271890E+02  0.20000003855E+02 0.  0.
        -12    1    1    2    0    0 -0.24913793388E+02 -0.19671354544E+01 -0.35483185844E+02  0.43400728110E+02  0.00000000000E+00 0.  1.
         11    1    3    3    0    0  0.23650729135E+02 -0.24019286023E+00  0.26450791909E+02  0.35483222431E+02  0.51100000000E-03 0. -1.
        -11    1    3    3    0    0 -0.21310117510E+01 -0.98519317654E-01  0.76997562067E+01  0.79898162083E+01  0.51100000000E-03 0.  1.
         12    1    3    3    0    0  0.33940760040E+01  0.23058476323E+01  0.13326377278E+01  0.43142332503E+01  0.00000000000E+00 0. -1.
</event>
<event>
 7    1  0.7357971E-011  0.4778727E+02  0.7816164E-02  0.1312668E+00
        -11   -1    0    0    0    0  0.00000000000E+00  0.00000000000E+00  0.45593999997E+02  0.45594000000E+02  0.51100000000E-03 0. -1.
         11   -1    0    0    0    0 -0.00000000000E+00 -0.00000000000E+00 -0.45593999997E+02  0.45594000000E+02  0.51100000000E-03 0.  1.
    9900012    2    1    2    0    0  0.76484451100E+01 -0.39060538855E+02 -0.17303148252E+02  0.47787270194E+02  0.19999996121E+02 0.  0.
         12    1    1    2    0    0 -0.76484451100E+01  0.39060538855E+02  0.17303148252E+02  0.43400729806E+02  0.00000000000E+00 0. -1.
         11    1    3    3    0    0  0.20228482632E+01 -0.86614378659E-03 -0.35679403691E+00  0.20540735362E+01  0.51100000000E-03 0. -1.
        -11    1    3    3    0    0 -0.19647443718E+01 -0.12639958741E+02  0.11178414654E+01  0.12840496378E+02  0.51100000000E-03 0.  1.
        -12    1    3    3    0    0  0.75903412186E+01 -0.26419713970E+02 -0.18064195681E+02  0.32892700279E+02  0.00000000000E+00 0.  1.
</event>
<event>
 7    1  0.7357971E-011  0.4778728E+02  0.7816164E-02  0.1312668E+00
        -11   -1    0    0    0    0  0.00000000000E+00  0.00000000000E+00  0.45593999997E+02  0.45594000000E+02  0.51100000000E-03 0.  1.
         11   -1    0    0    0    0 -0.00000000000E+00 -0.00000000000E+00 -0.45593999997E+02  0.45594000000E+02  0.51100000000E-03 0. -1.
    9900012    2    1    2    0    0 -0.23990710079E+00  0.35566422983E+02  0.24871565277E+02  0.47787276981E+02  0.20000027068E+02 0.  0.
        -12    1    1    2    0    0  0.23990710079E+00 -0.35566422983E+02 -0.24871565277E+02  0.43400723019E+02  0.00000000000E+00 0.  1.
         11    1    3    3    0    0  0.20156174749E+00  0.30904369414E+02  0.23099070694E+02  0.38583516470E+02  0.51100000000E-03 0. -1.
        -11    1    3    3    0    0 -0.23299031028E+01 -0.10152808559E+01 -0.83772244379E+00  0.26760087516E+01  0.51100000000E-03 0.  1.
        -12    1    3    3    0    0  0.18884342545E+01  0.56773344245E+01  0.26102170274E+01  0.65277517593E+01  0.00000000000E+00 0.  1.
</event>
<event>
 7    1  0.7357971E-011  0.4778727E+02  0.7816164E-02  0.1312668E+00
        -11   -1    0    0    0    0  0.00000000000E+00  0.00000000000E+00  0.45593999997E+02  0.45594000000E+02  0.51100000000E-03 0. -1.
         11   -1    0    0    0    0 -0.00000000000E+00 -0.00000000000E+00 -0.45593999997E+02  0.45594000000E+02  0.51100000000E-03 0.  1.
    9900012    2    1    2    0    0  0.29780323247E+02  0.18553031172E+02 -0.25544868852E+02  0.47787274855E+02  0.20000017376E+02 0.  0.
         12    1    1    2    0    0 -0.29780323247E+02 -0.18553031172E+02  0.25544868852E+02  0.43400725145E+02  0.00000000000E+00 0. -1.
         11    1    3    3    0    0  0.84089109359E-01 -0.77128955633E+00 -0.10253433959E+01  0.12858024338E+01  0.51100000000E-03 0. -1.
        -11    1    3    3    0    0  0.33646327995E+01  0.78687515256E+01  0.27550248171E+00  0.85623540178E+01  0.51100000000E-03 0.  1.
        -12    1    3    3    0    0  0.26331601339E+02  0.11455569203E+02 -0.24795027938E+02  0.37939118404E+02  0.00000000000E+00 0.  1.
</event>
<event>
 7    1  0.7357971E-011  0.4778727E+02  0.7816164E-02  0.1312668E+00
        -11   -1    0    0    0    0  0.00000000000E+00  0.00000000000E+00  0.45593999997E+02  0.45594000000E+02  0.51100000000E-03 0. -1.
         11   -1    0    0    0    0 -0.00000000000E+00 -0.00000000000E+00 -0.45593999997E+02  0.45594000000E+02  0.51100000000E-03 0.  1.
    9900012    2    1    2    0    0  0.38011199665E+02  0.14339699216E+02 -0.15269096845E+02  0.47787267379E+02  0.19999983287E+02 0.  0.
         12    1    1    2    0    0 -0.38011199665E+02 -0.14339699216E+02  0.15269096845E+02  0.43400732621E+02  0.00000000000E+00 0. -1.
         11    1    3    3    0    0 -0.13465818899E+01 -0.19083908556E+01  0.59557128850E-01  0.23364044505E+01  0.51100000000E-03 0. -1.
        -11    1    3    3    0    0  0.17489019805E+02  0.88263673425E+01 -0.86173204094E+01  0.21401607078E+02  0.51100000000E-03 0.  1.
         12    1    3    3    0    0  0.21868761750E+02  0.74217227287E+01 -0.67113335649E+01  0.24049255850E+02  0.00000000000E+00 0. -1.
</event>
<event>
 7    1  0.7357971E-011  0.4778727E+02  0.7816164E-02  0.1312668E+00
        -11   -1    0    0    0    0  0.00000000000E+00  0.00000000000E+00  0.45593999997E+02  0.45594000000E+02  0.51100000000E-03 0. -1.
         11   -1    0    0    0    0 -0.00000000000E+00 -0.00000000000E+00 -0.45593999997E+02  0.45594000000E+02  0.51100000000E-03 0.  1.
    9900012    2    1    2    0    0  0.18178815085E+02 -0.73686077488E+01  0.38715083995E+02  0.47787269283E+02  0.19999991969E+02 0.  0.
        -12    1    1    2    0    0 -0.18178815085E+02  0.73686077488E+01 -0.38715083995E+02  0.43400730717E+02  0.00000000000E+00 0.  1.
         11    1    3    3    0    0 -0.72149980638E+00 -0.26316062164E+01  0.84349740334E+00  0.28561164856E+01  0.51100000000E-03 0. -1.
        -11    1    3    3    0    0  0.15070140395E+02 -0.11818086880E+01  0.14374037339E+02  0.20859500305E+02  0.51100000000E-03 0.  1.
        -12    1    3    3    0    0  0.38301744961E+01 -0.35551928444E+01  0.23497549252E+02  0.24071652492E+02  0.00000000000E+00 0.  1.
</event>
<event>
 7    1  0.7357971E-011  0.4778727E+02  0.7816164E-02  0.1312668E+00
        -11   -1    0    0    0    0  0.00000000000E+00  0.00000000000E+00  0.45593999997E+02  0.45594000000E+02  0.51100000000E-03 0. -1.
         11   -1    0    0    0    0 -0.00000000000E+00 -0.00000000000E+00 -0.45593999997E+02  0.45594000000E+02  0.51100000000E-03 0.  1.
    9900012    2    1    2    0    0  0.47321646312E+01  0.25948364262E+02  0.34466100533E+02  0.47787273325E+02  0.20000010398E+02 0.  0.
        -12    1    1    2    0    0 -0.47321646312E+01 -0.25948364262E+02 -0.34466100533E+02  0.43400726675E+02  0.00000000000E+00 0.  1.
         11    1    3    3    0    0 -0.74261145311E+00  0.74881411770E+01  0.19413541365E+02  0.20820886596E+02  0.51100000000E-03 0. -1.
        -11    1    3    3    0    0  0.60336354512E+00  0.36704074868E+01 -0.17042555066E+01  0.40915065416E+01  0.51100000000E-03 0.  1.
        -12    1    3    3    0    0  0.48714125392E+01  0.14789815598E+02  0.16756814675E+02  0.22874880188E+02  0.00000000000E+00 0.  1.
</event>
<event>
 7    1  0.7357971E-011  0.4778727E+02  0.7816164E-02  0.1312668E+00
        -11   -1    0    0    0    0  0.00000000000E+00  0.00000000000E+00  0.45593999997E+02  0.45594000000E+02  0.51100000000E-03 0. -1.
         11   -1    0    0    0    0 -0.00000000000E+00 -0.00000000000E+00 -0.45593999997E+02  0.45594000000E+02  0.51100000000E-03 0.  1.
    9900012    2    1    2    0    0  0.17409913734E+02  0.20181842125E+02 -0.34252172261E+02  0.47787272444E+02  0.20000006383E+02 0.  0.
         12    1    1    2    0    0 -0.17409913734E+02 -0.20181842125E+02  0.34252172261E+02  0.43400727556E+02  0.00000000000E+00 0. -1.
         11    1    3    3    0    0 -0.23338755049E+01  0.30027521410E+01  0.19049845552E+00  0.38078583502E+01  0.51100000000E-03 0. -1.
        -11    1    3    3    0    0  0.73034513761E+01  0.34371419006E+01 -0.15501367940E+02  0.17477035067E+02  0.51100000000E-03 0.  1.
         12    1    3    3    0    0  0.12440337863E+02  0.13741948083E+02 -0.18941302776E+02  0.26502379028E+02  0.00000000000E+00 0. -1.
</event>
<event>
 7    1  0.7357971E-011  0.4778727E+02  0.7816164E-02  0.1312668E+00
        -11   -1    0    0    0    0  0.00000000000E+00  0.00000000000E+00  0.45593999997E+02  0.45594000000E+02  0.51100000000E-03 0. -1.
         11   -1    0    0    0    0 -0.00000000000E+00 -0.00000000000E+00 -0.45593999997E+02  0.45594000000E+02  0.51100000000E-03 0.  1.
    9900012    2    1    2    0    0 -0.63166407816E+01  0.30675531361E+02  0.30045552755E+02  0.47787269414E+02  0.19999992564E+02 0.  0.
        -12    1    1    2    0    0  0.63166407816E+01 -0.30675531361E+02 -0.30045552755E+02  0.43400730586E+02  0.00000000000E+00 0.  1.
         11    1    3    3    0    0 -0.52430290869E+01  0.21155490135E+02  0.12245732834E+02  0.25000041796E+02  0.51100000000E-03 0. -1.
        -11    1    3    3    0    0 -0.25455084381E+01  0.51615731055E+01  0.17213038500E+02  0.18149659633E+02  0.51100000000E-03 0.  1.
         12    1    3    3    0    0  0.14718967434E+01  0.43584681204E+01  0.58678142138E+00  0.46375679851E+01  0.00000000000E+00 0. -1.
</event>
<event>
 7    1  0.7357971E-011  0.4778727E+02  0.7816164E-02  0.1312668E+00
        -11   -1    0    0    0    0  0.00000000000E+00  0.00000000000E+00  0.45593999997E+02  0.45594000000E+02  0.51100000000E-03 0. -1.
         11   -1    0    0    0    0 -0.00000000000E+00 -0.00000000000E+00 -0.45593999997E+02  0.45594000000E+02  0.51100000000E-03 0.  1.
    9900012    2    1    2    0    0 -0.16018617079E+01 -0.30115614686E+02  0.31210690069E+02  0.47787269782E+02  0.19999994243E+02 0.  0.
        -12    1    1    2    0    0  0.16018617079E+01  0.30115614686E+02 -0.31210690069E+02  0.43400730218E+02  0.00000000000E+00 0.  1.
         11    1    3    3    0    0 -0.34489202164E+01 -0.56876308447E+01  0.20746006926E+01  0.69676512239E+01  0.51100000000E-03 0. -1.
        -11    1    3    3    0    0  0.83336560936E+01 -0.13779951692E+02  0.17113820538E+02  0.23499356293E+02  0.51100000000E-03 0.  1.
        -12    1    3    3    0    0 -0.64865975851E+01 -0.10648032149E+02  0.12022268839E+02  0.17320262265E+02  0.00000000000E+00 0.  1.
</event>
<event>
 7    1  0.7357971E-011  0.4778728E+02  0.7816164E-02  0.1312668E+00
        -11   -1    0    0    0    0  0.00000000000E+00  0.00000000000E+00  0.45593999997E+02  0.45594000000E+02  0.51100000000E-03 0. -1.
         11   -1    0    0    0    0 -0.00000000000E+00 -0.00000000000E+00 -0.45593999997E+02  0.45594000000E+02  0.51100000000E-03 0.  1.
    9900012    2    1    2    0    0 -0.12843761364E+02  0.22772203167E+02 -0.34642277517E+02  0.47787276105E+02  0.20000023073E+02 0.  0.
         12    1    1    2    0    0  0.12843761364E+02 -0.22772203167E+02  0.34642277517E+02  0.43400723895E+02  0.00000000000E+00 0. -1.
         11    1    3    3    0    0 -0.10388268595E+02  0.89330447302E+01 -0.25868660050E+02  0.29272905315E+02  0.51100000000E-03 0. -1.
        -11    1    3    3    0    0 -0.49816535543E+01  0.65433536763E+01 -0.64499363372E+01  0.10451508431E+02  0.51100000000E-03 0.  1.
         12    1    3    3    0    0  0.25261607860E+01  0.72958047607E+01 -0.23236811295E+01  0.80628623587E+01  0.00000000000E+00 0. -1.
</event>
<event>
 7    1  0.7357971E-011  0.4778727E+02  0.7816164E-02  0.1312668E+00
        -11   -1    0    0    0    0  0.00000000000E+00  0.00000000000E+00  0.45593999997E+02  0.45594000000E+02  0.51100000000E-03 0. -1.
         11   -1    0    0    0    0 -0.00000000000E+00 -0.00000000000E+00 -0.45593999997E+02  0.45594000000E+02  0.51100000000E-03 0.  1.
    9900012    2    1    2    0    0  0.25484309894E+02  0.24192279565E+02  0.25473648541E+02  0.47787271765E+02  0.20000003286E+02 0.  0.
        -12    1    1    2    0    0 -0.25484309894E+02 -0.24192279565E+02 -0.25473648541E+02  0.43400728235E+02  0.00000000000E+00 0.  1.
         11    1    3    3    0    0  0.17020061362E+02  0.90529320413E+01  0.31781983747E+01  0.19538142503E+02  0.51100000000E-03 0. -1.
        -11    1    3    3    0    0  0.56243834303E+01  0.10335303213E+02  0.15129768770E+02  0.19166692067E+02  0.51100000000E-03 0.  1.
         12    1    3    3    0    0  0.28398651021E+01  0.48040443107E+01  0.71656813962E+01  0.90824371954E+01  0.00000000000E+00 0. -1.
</event>
<event>
 7    1  0.7357971E-011  0.4778727E+02  0.7816164E-02  0.1312668E+00
        -11   -1    0    0    0    0  0.00000000000E+00  0.00000000000E+00  0.45593999997E+02  0.45594000000E+02  0.51100000000E-03 0. -1.
         11   -1    0    0    0    0 -0.00000000000E+00 -0.00000000000E+00 -0.45593999997E+02  0.45594000000E+02  0.51100000000E-03 0.  1.
    9900012    2    1    2    0    0  0.22443120575E+02  0.27837765945E+02 -0.24596511895E+02  0.47787271073E+02  0.20000000132E+02 0.  0.
         12    1    1    2    0    0 -0.22443120575E+02 -0.27837765945E+02  0.24596511895E+02  0.43400728927E+02  0.00000000000E+00 0. -1.
         11    1    3    3    0    0  0.18485104193E+02  0.20807920609E+02 -0.91999121531E+01  0.29313939022E+02  0.51100000000E-03 0. -1.
        -11    1    3    3    0    0 -0.11326684034E+01  0.19318389805E+01 -0.11702523030E+01  0.25267430167E+01  0.51100000000E-03 0.  1.
         12    1    3    3    0    0  0.50906847852E+01  0.50980063555E+01 -0.14226347439E+02  0.15946589035E+02  0.00000000000E+00 0. -1.
</event>
<event>
 7    1  0.7357971E-011  0.4778727E+02  0.7816164E-02  0.1312668E+00
        -11   -1    0    0    0    0  0.00000000000E+00  0.00000000000E+00  0.45593999997E+02  0.45594000000E+02  0.51100000000E-03 0. -1.
         11   -1    0    0    0    0 -0.00000000000E+00 -0.00000000000E+00 -0.45593999997E+02  0.45594000000E+02  0.51100000000E-03 0.  1.
    9900012    2    1    2    0    0  0.60790168690E+01 -0.20762952200E+02  0.37624042521E+02  0.47787271829E+02  0.20000003576E+02 0.  0.
        -12    1    1    2    0    0 -0.60790168690E+01  0.20762952200E+02 -0.37624042521E+02  0.43400728171E+02  0.00000000000E+00 0.  1.
         11    1    3    3    0    0  0.10897725284E+02 -0.54765746044E+01  0.10804471913E+02  0.16293860787E+02  0.51100000000E-03 0. -1.
        -11    1    3    3    0    0 -0.44614830110E+01 -0.86139529945E+01  0.13932578224E+02  0.16977094954E+02  0.51100000000E-03 0.  1.
         12    1    3    3    0    0 -0.35722540433E+00 -0.66724246014E+01  0.12886992384E+02  0.14516316087E+02  0.00000000000E+00 0. -1.
</event>
<event>
 7    1  0.7357971E-011  0.4778727E+02  0.7816164E-02  0.1312668E+00
        -11   -1    0    0    0    0  0.00000000000E+00  0.00000000000E+00  0.45593999997E+02  0.45594000000E+02  0.51100000000E-03 0. -1.
         11   -1    0    0    0    0 -0.00000000000E+00 -0.00000000000E+00 -0.45593999997E+02  0.45594000000E+02  0.51100000000E-03 0.  1.
    9900012    2    1    2    0    0 -0.38459376974E+01  0.42024860179E+02 -0.10136252873E+02  0.47787265765E+02  0.19999975929E+02 0.  0.
         12    1    1    2    0    0  0.38459376974E+01 -0.42024860179E+02  0.10136252873E+02  0.43400734235E+02  0.00000000000E+00 0. -1.
         11    1    3    3    0    0  0.52240289586E+00  0.57218458042E+00  0.12463614745E+01  0.14675548255E+01  0.51100000000E-03 0. -1.
        -11    1    3    3    0    0  0.17363428131E+01  0.18931114647E+02  0.24902651060E+01  0.19172986431E+02  0.51100000000E-03 0.  1.
        -12    1    3    3    0    0 -0.61046834064E+01  0.22521560952E+02 -0.13872879454E+02  0.27146724508E+02  0.00000000000E+00 0.  1.
</event>
<event>
 7    1  0.7357971E-011  0.4778728E+02  0.7816164E-02  0.1312668E+00
        -11   -1    0    0    0    0  0.00000000000E+00  0.00000000000E+00  0.45593999997E+02  0.45594000000E+02  0.51100000000E-03 0. -1.
         11   -1    0    0    0    0 -0.00000000000E+00 -0.00000000000E+00 -0.45593999997E+02  0.45594000000E+02  0.51100000000E-03 0.  1.
    9900012    2    1    2    0    0 -0.75191514944E+01  0.32101998521E+02 -0.28223159203E+02  0.47787278075E+02  0.20000032053E+02 0.  0.
         12    1    1    2    0    0  0.75191514944E+01 -0.32101998521E+02  0.28223159203E+02  0.43400721925E+02  0.00000000000E+00 0. -1.
         11    1    3    3    0    0 -0.40632951077E+01  0.51141553980E+01  0.14423351856E+01  0.66891915518E+01  0.51100000000E-03 0. -1.
        -11    1    3    3    0    0  0.15243542435E+01  0.49255037552E+01 -0.24420415079E+01  0.57050688067E+01  0.51100000000E-03 0.  1.
         12    1    3    3    0    0 -0.49802106302E+01  0.22062339368E+02 -0.27223452881E+02  0.35393017716E+02  0.00000000000E+00 0. -1.
</event>
<event>
 7    1  0.7357971E-011  0.4778727E+02  0.7816164E-02  0.1312668E+00
        -11   -1    0    0    0    0  0.00000000000E+00  0.00000000000E+00  0.45593999997E+02  0.45594000000E+02  0.51100000000E-03 0. -1.
         11   -1    0    0    0    0 -0.00000000000E+00 -0.00000000000E+00 -0.45593999997E+02  0.45594000000E+02  0.51100000000E-03 0.  1.
    9900012    2    1    2    0    0 -0.14285040401E+02 -0.29194856474E+02  0.28761449178E+02  0.47787274401E+02  0.20000015302E+02 0.  0.
        -12    1    1    2    0    0  0.14285040401E+02  0.29194856474E+02 -0.28761449178E+02  0.43400725599E+02  0.00000000000E+00 0.  1.
         11    1    3    3    0    0 -0.11929800976E+02 -0.21257318393E+02  0.19214979713E+02  0.31038833454E+02  0.51100000000E-03 0. -1.
        -11    1    3    3    0    0  0.40130209008E+01 -0.41680852923E+01  0.66159242571E+01  0.87890685394E+01  0.51100000000E-03 0.  1.
         12    1    3    3    0    0 -0.63682603251E+01 -0.37694527883E+01  0.29305452080E+01  0.79593724066E+01  0.00000000000E+00 0. -1.
</event>
<event>
 7    1  0.7357971E-011  0.4778727E+02  0.7816164E-02  0.1312668E+00
        -11   -1    0    0    0    0  0.00000000000E+00  0.00000000000E+00  0.45593999997E+02  0.45594000000E+02  0.51100000000E-03 0. -1.
         11   -1    0    0    0    0 -0.00000000000E+00 -0.00000000000E+00 -0.45593999997E+02  0.45594000000E+02  0.51100000000E-03 0.  1.
    9900012    2    1    2    0    0 -0.32369858982E+02  0.10239665438E+01  0.28892336237E+02  0.47787269923E+02  0.19999994887E+02 0.  0.
        -12    1    1    2    0    0  0.32369858982E+02 -0.10239665438E+01 -0.28892336237E+02  0.43400730077E+02  0.00000000000E+00 0.  1.
         11    1    3    3    0    0 -0.16318999061E+02 -0.52040706660E+01  0.22719021254E+02  0.28452522012E+02  0.51100000000E-03 0. -1.
        -11    1    3    3    0    0 -0.53616627157E+01  0.25708405129E+01 -0.88783912940E+00  0.60120634229E+01  0.51100000000E-03 0.  1.
         12    1    3    3    0    0 -0.10689197206E+02  0.36571966968E+01  0.70611541124E+01  0.13322684488E+02  0.00000000000E+00 0. -1.
</event>
<event>
 7    1  0.7357971E-011  0.4778727E+02  0.7816164E-02  0.1312668E+00
        -11   -1    0    0    0    0  0.00000000000E+00  0.00000000000E+00  0.45593999997E+02  0.45594000000E+02  0.51100000000E-03 0.  1.
         11   -1    0    0    0    0 -0.00000000000E+00 -0.00000000000E+00 -0.45593999997E+02  0.45594000000E+02  0.51100000000E-03 0. -1.
    9900012    2    1    2    0    0  0.38293490666E+01  0.35822116702E+02 -0.24201965651E+02  0.47787273040E+02  0.20000009100E+02 0.  0.
         12    1    1    2    0    0 -0.38293490666E+01 -0.35822116702E+02  0.24201965651E+02  0.43400726960E+02  0.00000000000E+00 0. -1.
         11    1    3    3    0    0 -0.20260043843E+00  0.20302260044E+02 -0.21340882793E+02  0.29456002589E+02  0.51100000000E-03 0. -1.
        -11    1    3    3    0    0  0.35039969405E+01  0.16318965598E+02 -0.16282867613E+01  0.16770150589E+02  0.51100000000E-03 0.  1.
         12    1    3    3    0    0  0.52795256460E+00 -0.79910894083E+00 -0.12327960961E+01  0.15611198622E+01  0.00000000000E+00 0. -1.
</event>
<event>
 7    1  0.7357971E-011  0.4778727E+02  0.7816164E-02  0.1312668E+00
        -11   -1    0    0    0    0  0.00000000000E+00  0.00000000000E+00  0.45593999997E+02  0.45594000000E+02  0.51100000000E-03 0. -1.
         11   -1    0    0    0    0 -0.00000000000E+00 -0.00000000000E+00 -0.45593999997E+02  0.45594000000E+02  0.51100000000E-03 0.  1.
    9900012    2    1    2    0    0  0.42480145442E+02 -0.86501753332E+01 -0.20578956947E+01  0.47787271611E+02  0.20000002582E+02 0.  0.
         12    1    1    2    0    0 -0.42480145442E+02  0.86501753332E+01  0.20578956947E+01  0.43400728389E+02  0.00000000000E+00 0. -1.
         11    1    3    3    0    0  0.59792777504E+01  0.19892007032E+01  0.29314875230E+01  0.69499856988E+01  0.51100000000E-03 0. -1.
        -11    1    3    3    0    0  0.28953993053E+02 -0.14028498146E+02 -0.50297143413E+01  0.32564251881E+02  0.51100000000E-03 0.  1.
        -12    1    3    3    0    0  0.75468746386E+01  0.33891221097E+01  0.40331123569E-01  0.82730340314E+01  0.00000000000E+00 0.  1.
</event>
<event>
 7    1  0.7357971E-011  0.4778729E+02  0.7816164E-02  0.1312668E+00
        -11   -1    0    0    0    0  0.00000000000E+00  0.00000000000E+00  0.45593999997E+02  0.45594000000E+02  0.51100000000E-03 0.  1.
         11   -1    0    0    0    0 -0.00000000000E+00 -0.00000000000E+00 -0.45593999997E+02  0.45594000000E+02  0.51100000000E-03 0. -1.
    9900012    2    1    2    0    0  0.14414744543E+02  0.39733824787E+02 -0.98518791415E+01  0.47787294763E+02  0.20000108141E+02 0.  0.
         12    1    1    2    0    0 -0.14414744543E+02 -0.39733824787E+02  0.98518791415E+01  0.43400705237E+02  0.00000000000E+00 0. -1.
         11    1    3    3    0    0  0.10262532744E+01  0.88765409302E+01 -0.85838367193E+01  0.12390658891E+02  0.51100000000E-03 0. -1.
        -11    1    3    3    0    0  0.82455200274E+01  0.28398633514E+02 -0.20518399158E+01  0.29642554432E+02  0.51100000000E-03 0.  1.
         12    1    3    3    0    0  0.51429712415E+01  0.24586503436E+01  0.78379749355E+00  0.57540814396E+01  0.00000000000E+00 0. -1.
</event>
<event>
 7    1  0.7357971E-011  0.4778727E+02  0.7816164E-02  0.1312668E+00
        -11   -1    0    0    0    0  0.00000000000E+00  0.00000000000E+00  0.45593999997E+02  0.45594000000E+02  0.51100000000E-03 0. -1.
         11   -1    0    0    0    0 -0.00000000000E+00 -0.00000000000E+00 -0.45593999997E+02  0.45594000000E+02  0.51100000000E-03 0.  1.
    9900012    2    1    2    0    0 -0.21443314892E+01  0.38288859592E+00 -0.43346031949E+02  0.47787271355E+02  0.20000001417E+02 0.  0.
         12    1    1    2    0    0  0.21443314892E+01 -0.38288859592E+00  0.43346031949E+02  0.43400728645E+02  0.00000000000E+00 0. -1.
         11    1    3    3    0    0 -0.82086577243E+01 -0.66967483517E+01 -0.20699939066E+02  0.23253300362E+02  0.51100000000E-03 0. -1.
        -11    1    3    3    0    0  0.44556908114E+01  0.59654697187E+01 -0.18743839633E+02  0.20168577888E+02  0.51100000000E-03 0.  1.
         12    1    3    3    0    0  0.16086354237E+01  0.11141672290E+01 -0.39022532489E+01  0.43653931047E+01  0.00000000000E+00 0. -1.
</event>
<event>
 7    1  0.7357971E-011  0.4778727E+02  0.7816164E-02  0.1312668E+00
        -11   -1    0    0    0    0  0.00000000000E+00  0.00000000000E+00  0.45593999997E+02  0.45594000000E+02  0.51100000000E-03 0. -1.
         11   -1    0    0    0    0 -0.00000000000E+00 -0.00000000000E+00 -0.45593999997E+02  0.45594000000E+02  0.51100000000E-03 0.  1.
    9900012    2    1    2    0    0  0.43164775435E+02 -0.33591125354E+01  0.30235066917E+01  0.47787273415E+02  0.20000010809E+02 0.  0.
         12    1    1    2    0    0 -0.43164775435E+02  0.33591125354E+01 -0.30235066917E+01  0.43400726585E+02  0.00000000000E+00 0. -1.
         11    1    3    3    0    0  0.17734769817E+02 -0.79260209174E+01  0.56143477548E+01  0.20220404769E+02  0.51100000000E-03 0. -1.
        -11    1    3    3    0    0  0.14142003831E+02  0.22472604623E+01 -0.60351295954E+01  0.15539280596E+02  0.51100000000E-03 0.  1.
         12    1    3    3    0    0  0.11288001787E+02  0.23196479196E+01  0.34442885323E+01  0.12027588051E+02  0.00000000000E+00 0. -1.
</event>
<event>
 7    1  0.7357971E-011  0.4778727E+02  0.7816164E-02  0.1312668E+00
        -11   -1    0    0    0    0  0.00000000000E+00  0.00000000000E+00  0.45593999997E+02  0.45594000000E+02  0.51100000000E-03 0. -1.
         11   -1    0    0    0    0 -0.00000000000E+00 -0.00000000000E+00 -0.45593999997E+02  0.45594000000E+02  0.51100000000E-03 0.  1.
    9900012    2    1    2    0    0 -0.33000820660E+01 -0.28179832016E+02  0.32842498377E+02  0.47787272198E+02  0.20000005258E+02 0.  0.
        -12    1    1    2    0    0  0.33000820660E+01  0.28179832016E+02 -0.32842498377E+02  0.43400727802E+02  0.00000000000E+00 0.  1.
         11    1    3    3    0    0  0.46872229420E+01 -0.55898581320E+01  0.23308491867E+01  0.76582916525E+01  0.51100000000E-03 0. -1.
        -11    1    3    3    0    0 -0.73079800683E+00 -0.38985529060E+01  0.44693135613E+00  0.39915571380E+01  0.51100000000E-03 0.  1.
         12    1    3    3    0    0 -0.72565070012E+01 -0.18691420978E+02  0.30064717834E+02  0.36137423407E+02  0.00000000000E+00 0. -1.
</event>
<event>
 7    1  0.7357971E-011  0.4778727E+02  0.7816164E-02  0.1312668E+00
        -11   -1    0    0    0    0  0.00000000000E+00  0.00000000000E+00  0.45593999997E+02  0.45594000000E+02  0.51100000000E-03 0. -1.
         11   -1    0    0    0    0 -0.00000000000E+00 -0.00000000000E+00 -0.45593999997E+02  0.45594000000E+02  0.51100000000E-03 0.  1.
    9900012    2    1    2    0    0 -0.39135552752E+02  0.26745650829E+01  0.18570914083E+02  0.47787266855E+02  0.19999980899E+02 0.  0.
        -12    1    1    2    0    0  0.39135552752E+02 -0.26745650829E+01 -0.18570914083E+02  0.43400733145E+02  0.00000000000E+00 0.  1.
         11    1    3    3    0    0 -0.22181967441E+02  0.62272479531E+01  0.39523298839E+01  0.23376039194E+02  0.51100000000E-03 0.  1.
        -11    1    3    3    0    0 -0.17070486749E+02 -0.16823348880E+01  0.14618309167E+02  0.22537229903E+02  0.51100000000E-03 0. -1.
        -12    1    3    3    0    0  0.11690143789E+00 -0.18703479823E+01  0.27503206387E-03  0.18739977579E+01  0.00000000000E+00 0.  1.
</event>
<event>
 7    1  0.7357971E-011  0.4778727E+02  0.7816164E-02  0.1312668E+00
        -11   -1    0    0    0    0  0.00000000000E+00  0.00000000000E+00  0.45593999997E+02  0.45594000000E+02  0.51100000000E-03 0.  1.
         11   -1    0    0    0    0 -0.00000000000E+00 -0.00000000000E+00 -0.45593999997E+02  0.45594000000E+02  0.51100000000E-03 0. -1.
    9900012    2    1    2    0    0  0.24930523402E+02  0.20949972797E+02  0.28691304554E+02  0.47787270579E+02  0.19999997879E+02 0.  0.
        -12    1    1    2    0    0 -0.24930523402E+02 -0.20949972797E+02 -0.28691304554E+02  0.43400729421E+02  0.00000000000E+00 0.  1.
         11    1    3    3    0    0  0.22403886117E+02  0.96771074728E+01  0.25594991126E+02  0.35365012275E+02  0.51100000000E-03 0. -1.
        -11    1    3    3    0    0  0.38599636820E+00  0.68289798905E+01  0.30509038919E+01  0.74894575478E+01  0.51100000000E-03 0.  1.
         12    1    3    3    0    0  0.21406409161E+01  0.44438854336E+01  0.45409535901E-01  0.49328007566E+01  0.00000000000E+00 0. -1.
</event>
<event>
 7    1  0.7357971E-011  0.4778727E+02  0.7816164E-02  0.1312668E+00
        -11   -1    0    0    0    0  0.00000000000E+00  0.00000000000E+00  0.45593999997E+02  0.45594000000E+02  0.51100000000E-03 0. -1.
         11   -1    0    0    0    0 -0.00000000000E+00 -0.00000000000E+00 -0.45593999997E+02  0.45594000000E+02  0.51100000000E-03 0.  1.
    9900012    2    1    2    0    0  0.35436190746E+01 -0.94008880263E+01  0.42221908896E+02  0.47787268179E+02  0.19999986935E+02 0.  0.
        -12    1    1    2    0    0 -0.35436190746E+01  0.94008880263E+01 -0.42221908896E+02  0.43400731821E+02  0.00000000000E+00 0.  1.
         11    1    3    3    0    0 -0.43738257968E+00  0.36865728366E+01  0.18152509530E+02  0.18528241290E+02  0.51100000000E-03 0. -1.
        -11    1    3    3    0    0  0.70557467653E+01 -0.96222323390E+01  0.16076443125E+02  0.20020562964E+02  0.51100000000E-03 0.  1.
        -12    1    3    3    0    0 -0.30747451110E+01 -0.34652285239E+01  0.79929562414E+01  0.92384639252E+01  0.00000000000E+00 0.  1.
</event>
<event>
 7    1  0.8524535E-011  0.4778727E+02  0.7816164E-02  0.1312668E+00
        -11   -1    0    0    0    0  0.00000000000E+00  0.00000000000E+00  0.45593999997E+02  0.45594000000E+02  0.51100000000E-03 0. -1.
         11   -1    0    0    0    0 -0.00000000000E+00 -0.00000000000E+00 -0.45593999997E+02  0.45594000000E+02  0.51100000000E-03 0.  1.
    9900012    2    1    2    0    0  0.87123134227E+01 -0.17655165292E+02 -0.38678342380E+02  0.47787269178E+02  0.19999991489E+02 0.  0.
         12    1    1    2    0    0 -0.87123134227E+01  0.17655165292E+02  0.38678342380E+02  0.43400730822E+02  0.00000000000E+00 0. -1.
         11    1    3    3    0    0  0.67805681549E+01 -0.61973785893E+01 -0.69852819050E+01  0.11540267303E+02  0.51100000000E-03 0. -1.
        -11    1    3    3    0    0 -0.36491866135E+01 -0.10713149951E+02 -0.16193395189E+02  0.19756370942E+02  0.51100000000E-03 0.  1.
        -12    1    3    3    0    0  0.55809318813E+01 -0.74463675187E+00 -0.15499665286E+02  0.16490630932E+02  0.00000000000E+00 0.  1.
</event>
<event>
 7    1  0.7357971E-011  0.4778727E+02  0.7816164E-02  0.1312668E+00
        -11   -1    0    0    0    0  0.00000000000E+00  0.00000000000E+00  0.45593999997E+02  0.45594000000E+02  0.51100000000E-03 0. -1.
         11   -1    0    0    0    0 -0.00000000000E+00 -0.00000000000E+00 -0.45593999997E+02  0.45594000000E+02  0.51100000000E-03 0.  1.
    9900012    2    1    2    0    0  0.14447786194E+02 -0.38530986126E+01  0.40743565253E+02  0.47787274149E+02  0.20000014156E+02 0.  0.
        -12    1    1    2    0    0 -0.14447786194E+02  0.38530986126E+01 -0.40743565253E+02  0.43400725851E+02  0.00000000000E+00 0.  1.
         11    1    3    3    0    0  0.18775337985E+01  0.39953462016E+01  0.14711198497E+02  0.15359273613E+02  0.51100000000E-03 0. -1.
        -11    1    3    3    0    0 -0.11060899640E+01  0.19269232664E+01  0.52286812109E+01  0.56811597187E+01  0.51100000000E-03 0.  1.
         12    1    3    3    0    0  0.13676342360E+02 -0.97753680807E+01  0.20803685546E+02  0.26746840818E+02  0.00000000000E+00 0. -1.
</event>
<event>
 7    1  0.7357971E-011  0.4778727E+02  0.7816164E-02  0.1312668E+00
        -11   -1    0    0    0    0  0.00000000000E+00  0.00000000000E+00  0.45593999997E+02  0.45594000000E+02  0.51100000000E-03 0. -1.
         11   -1    0    0    0    0 -0.00000000000E+00 -0.00000000000E+00 -0.45593999997E+02  0.45594000000E+02  0.51100000000E-03 0.  1.
    9900012    2    1    2    0    0  0.13431705558E+02  0.23389304774E+02  0.34002249691E+02  0.47787271019E+02  0.19999999885E+02 0.  0.
        -12    1    1    2    0    0 -0.13431705558E+02 -0.23389304774E+02 -0.34002249691E+02  0.43400728981E+02  0.00000000000E+00 0.  1.
         11    1    3    3    0    0  0.90978351307E+01  0.21051242887E+02  0.21601452792E+02  0.31504732885E+02  0.51100000000E-03 0. -1.
        -11    1    3    3    0    0 -0.23564413392E+01 -0.54834463256E+00  0.64038592391E+01  0.68456490588E+01  0.51100000000E-03 0.  1.
        -12    1    3    3    0    0  0.66903117662E+01  0.28864065198E+01  0.59969376599E+01  0.94368890755E+01  0.00000000000E+00 0.  1.
</event>
<event>
 7    1  0.7357971E-011  0.4778727E+02  0.7816164E-02  0.1312668E+00
        -11   -1    0    0    0    0  0.00000000000E+00  0.00000000000E+00  0.45593999997E+02  0.45594000000E+02  0.51100000000E-03 0. -1.
         11   -1    0    0    0    0 -0.00000000000E+00 -0.00000000000E+00 -0.45593999997E+02  0.45594000000E+02  0.51100000000E-03 0.  1.
    9900012    2    1    2    0    0 -0.15823752512E+02  0.62899611940E+01 -0.39920777890E+02  0.47787271173E+02  0.20000000587E+02 0.  0.
         12    1    1    2    0    0  0.15823752512E+02 -0.62899611940E+01  0.39920777890E+02  0.43400728827E+02  0.00000000000E+00 0. -1.
         11    1    3    3    0    0 -0.23342280128E+01 -0.23894092182E+01 -0.32667391195E+01  0.46722030739E+01  0.51100000000E-03 0. -1.
        -11    1    3    3    0    0 -0.25892278328E+01 -0.36568106906E+01 -0.16472526110E+02  0.17071042203E+02  0.51100000000E-03 0.  1.
        -12    1    3    3    0    0 -0.10900296667E+02  0.12336181103E+02 -0.20181512660E+02  0.26044025896E+02  0.00000000000E+00 0.  1.
</event>
<event>
 7    1  0.7357971E-011  0.4778728E+02  0.7816164E-02  0.1312668E+00
        -11   -1    0    0    0    0  0.00000000000E+00  0.00000000000E+00  0.45593999997E+02  0.45594000000E+02  0.51100000000E-03 0.  1.
         11   -1    0    0    0    0 -0.00000000000E+00 -0.00000000000E+00 -0.45593999997E+02  0.45594000000E+02  0.51100000000E-03 0. -1.
    9900012    2    1    2    0    0  0.14201036825E+02  0.28715745769E+02  0.29280698983E+02  0.47787276102E+02  0.20000023058E+02 0.  0.
        -12    1    1    2    0    0 -0.14201036825E+02 -0.28715745769E+02 -0.29280698983E+02  0.43400723898E+02  0.00000000000E+00 0.  1.
         11    1    3    3    0    0  0.73433453085E+00  0.13506806760E+02  0.36385126002E+01  0.14007564037E+02  0.51100000000E-03 0. -1.
        -11    1    3    3    0    0 -0.70391014744E+00  0.36073903534E+01  0.43512102177E+01  0.56957690681E+01  0.51100000000E-03 0.  1.
         12    1    3    3    0    0  0.14170612441E+02  0.11601548656E+02  0.21290976165E+02  0.28083942997E+02  0.00000000000E+00 0. -1.
</event>
<event>
 7    1  0.7357971E-011  0.4778727E+02  0.7816164E-02  0.1312668E+00
        -11   -1    0    0    0    0  0.00000000000E+00  0.00000000000E+00  0.45593999997E+02  0.45594000000E+02  0.51100000000E-03 0. -1.
         11   -1    0    0    0    0 -0.00000000000E+00 -0.00000000000E+00 -0.45593999997E+02  0.45594000000E+02  0.51100000000E-03 0.  1.
    9900012    2    1    2    0    0 -0.25163976827E+02  0.37558006192E+01 -0.35160935260E+02  0.47787272628E+02  0.20000007218E+02 0.  0.
         12    1    1    2    0    0  0.25163976827E+02 -0.37558006192E+01  0.35160935260E+02  0.43400727372E+02  0.00000000000E+00 0. -1.
         11    1    3    3    0    0  0.12616040921E+01  0.14736840412E+00 -0.26579719571E+01  0.29458746608E+01  0.51100000000E-03 0. -1.
        -11    1    3    3    0    0 -0.10836333671E+02  0.63070781707E+01 -0.58255927728E+01  0.13825443714E+02  0.51100000000E-03 0.  1.
        -12    1    3    3    0    0 -0.15589247248E+02 -0.26986459556E+01 -0.26677370531E+02  0.31015954252E+02  0.00000000000E+00 0.  1.
</event>
<event>
 7    1  0.7357971E-011  0.4778727E+02  0.7816164E-02  0.1312668E+00
        -11   -1    0    0    0    0  0.00000000000E+00  0.00000000000E+00  0.45593999997E+02  0.45594000000E+02  0.51100000000E-03 0. -1.
         11   -1    0    0    0    0 -0.00000000000E+00 -0.00000000000E+00 -0.45593999997E+02  0.45594000000E+02  0.51100000000E-03 0.  1.
    9900012    2    1    2    0    0 -0.21103067402E+02  0.36488071626E+02  0.10339449971E+02  0.47787273618E+02  0.20000011736E+02 0.  0.
        -12    1    1    2    0    0  0.21103067402E+02 -0.36488071626E+02 -0.10339449971E+02  0.43400726382E+02  0.00000000000E+00 0.  1.
         11    1    3    3    0    0 -0.18578231816E+02  0.25399501343E+02  0.15493458552E+02  0.35076097617E+02  0.51100000000E-03 0. -1.
        -11    1    3    3    0    0 -0.15289054095E+00  0.49474364560E+01 -0.29829279699E+01  0.57791316423E+01  0.51100000000E-03 0.  1.
         12    1    3    3    0    0 -0.23719450455E+01  0.61411338270E+01 -0.21710806114E+01  0.69320443595E+01  0.00000000000E+00 0. -1.
</event>
<event>
 7    1  0.7357971E-011  0.4778728E+02  0.7816164E-02  0.1312668E+00
        -11   -1    0    0    0    0  0.00000000000E+00  0.00000000000E+00  0.45593999997E+02  0.45594000000E+02  0.51100000000E-03 0. -1.
         11   -1    0    0    0    0 -0.00000000000E+00 -0.00000000000E+00 -0.45593999997E+02  0.45594000000E+02  0.51100000000E-03 0.  1.
    9900012    2    1    2    0    0  0.40395320544E+02  0.91491067988E+01  0.12966650788E+02  0.47787284456E+02  0.20000061150E+02 0.  0.
        -12    1    1    2    0    0 -0.40395320544E+02 -0.91491067988E+01 -0.12966650788E+02  0.43400715544E+02  0.00000000000E+00 0.  1.
         11    1    3    3    0    0  0.71227042142E+01  0.29781167114E-01 -0.66298640967E+00  0.71535553035E+01  0.51100000000E-03 0. -1.
        -11    1    3    3    0    0  0.46896706049E+01  0.40639329217E+00 -0.37919112691E+01  0.60445642708E+01  0.51100000000E-03 0.  1.
        -12    1    3    3    0    0  0.28582945725E+02  0.87129323395E+01  0.17421548467E+02  0.34589164882E+02  0.00000000000E+00 0.  1.
</event>
<event>
 7    1  0.1142007E-010  0.4778728E+02  0.7816164E-02  0.1312668E+00
        -11   -1    0    0    0    0  0.00000000000E+00  0.00000000000E+00  0.45593999997E+02  0.45594000000E+02  0.51100000000E-03 0. -1.
         11   -1    0    0    0    0 -0.00000000000E+00 -0.00000000000E+00 -0.45593999997E+02  0.45594000000E+02  0.51100000000E-03 0.  1.
    9900012    2    1    2    0    0  0.14584369833E+02 -0.25101305673E+02 -0.32262104792E+02  0.47787276555E+02  0.20000025125E+02 0.  0.
         12    1    1    2    0    0 -0.14584369833E+02  0.25101305673E+02  0.32262104792E+02  0.43400723445E+02  0.00000000000E+00 0. -1.
         11    1    3    3    0    0 -0.30142127348E+01  0.71073164733E+00 -0.20452799977E+01  0.37113054867E+01  0.51100000000E-03 0. -1.
        -11    1    3    3    0    0  0.10792626121E+02 -0.19712738230E+02 -0.24730400915E+02  0.33416546153E+02  0.51100000000E-03 0.  1.
         12    1    3    3    0    0  0.68059564462E+01 -0.60992990904E+01 -0.54864238794E+01  0.10659424915E+02  0.00000000000E+00 0. -1.
</event>
<event>
 7    1  0.7357971E-011  0.4778727E+02  0.7816164E-02  0.1312668E+00
        -11   -1    0    0    0    0  0.00000000000E+00  0.00000000000E+00  0.45593999997E+02  0.45594000000E+02  0.51100000000E-03 0. -1.
         11   -1    0    0    0    0 -0.00000000000E+00 -0.00000000000E+00 -0.45593999997E+02  0.45594000000E+02  0.51100000000E-03 0.  1.
    9900012    2    1    2    0    0 -0.30653220823E+02  0.79867202506E+01 -0.29668428623E+02  0.47787270696E+02  0.19999998411E+02 0.  0.
         12    1    1    2    0    0  0.30653220823E+02 -0.79867202506E+01  0.29668428623E+02  0.43400729304E+02  0.00000000000E+00 0. -1.
         11    1    3    3    0    0  0.15756802887E+01  0.29167930930E+01 -0.33594318305E+01  0.47197704186E+01  0.51100000000E-03 0. -1.
        -11    1    3    3    0    0 -0.18462297337E+02  0.42257079103E+00 -0.92338147807E+01  0.20646993115E+02  0.51100000000E-03 0.  1.
         12    1    3    3    0    0 -0.13766603775E+02  0.46473563666E+01 -0.17075182012E+02  0.22420507163E+02  0.00000000000E+00 0. -1.
</event>
<event>
 7    1  0.7357971E-011  0.4778727E+02  0.7816164E-02  0.1312668E+00
        -11   -1    0    0    0    0  0.00000000000E+00  0.00000000000E+00  0.45593999997E+02  0.45594000000E+02  0.51100000000E-03 0. -1.
         11   -1    0    0    0    0 -0.00000000000E+00 -0.00000000000E+00 -0.45593999997E+02  0.45594000000E+02  0.51100000000E-03 0.  1.
    9900012    2    1    2    0    0 -0.25152296037E+02 -0.82246034527E+00 -0.35359702361E+02  0.47787274338E+02  0.20000015016E+02 0.  0.
         12    1    1    2    0    0  0.25152296037E+02  0.82246034527E+00  0.35359702361E+02  0.43400725662E+02  0.00000000000E+00 0. -1.
         11    1    3    3    0    0 -0.47885741708E+01  0.20047668895E+01  0.14016185549E+01  0.53771802746E+01  0.51100000000E-03 0. -1.
        -11    1    3    3    0    0 -0.10635883762E+02 -0.20420506207E+01 -0.24119461947E+02  0.26439372893E+02  0.51100000000E-03 0.  1.
        -12    1    3    3    0    0 -0.97278381045E+01 -0.78517661411E+00 -0.12641858969E+02  0.15970721170E+02  0.00000000000E+00 0.  1.
</event>
<event>
 7    1  0.7753858E-011  0.4778726E+02  0.7816164E-02  0.1312668E+00
        -11   -1    0    0    0    0  0.00000000000E+00  0.00000000000E+00  0.45593999997E+02  0.45594000000E+02  0.51100000000E-03 0. -1.
         11   -1    0    0    0    0 -0.00000000000E+00 -0.00000000000E+00 -0.45593999997E+02  0.45594000000E+02  0.51100000000E-03 0.  1.
    9900012    2    1    2    0    0 -0.11798939950E+02  0.23392378512E+02  0.34600667208E+02  0.47787256600E+02  0.19999934144E+02 0.  0.
        -12    1    1    2    0    0  0.11798939950E+02 -0.23392378512E+02 -0.34600667208E+02  0.43400743400E+02  0.00000000000E+00 0.  1.
         11    1    3    3    0    0 -0.12026044272E+02  0.17563715772E+02  0.18299217474E+02  0.28070824943E+02  0.51100000000E-03 0. -1.
        -11    1    3    3    0    0  0.18019470408E+01  0.57737301095E+00 -0.57033353051E+00  0.19762725846E+01  0.51100000000E-03 0.  1.
         12    1    3    3    0    0 -0.15748427196E+01  0.52512897285E+01  0.16871783265E+02  0.17740159073E+02  0.00000000000E+00 0. -1.
</event>
<event>
 7    1  0.7357971E-011  0.4778727E+02  0.7816164E-02  0.1312668E+00
        -11   -1    0    0    0    0  0.00000000000E+00  0.00000000000E+00  0.45593999997E+02  0.45594000000E+02  0.51100000000E-03 0.  1.
         11   -1    0    0    0    0 -0.00000000000E+00 -0.00000000000E+00 -0.45593999997E+02  0.45594000000E+02  0.51100000000E-03 0. -1.
    9900012    2    1    2    0    0  0.93317979898E+01  0.38032532609E+02 -0.18710076253E+02  0.47787274848E+02  0.20000017340E+02 0.  0.
         12    1    1    2    0    0 -0.93317979898E+01 -0.38032532609E+02  0.18710076253E+02  0.43400725152E+02  0.00000000000E+00 0. -1.
         11    1    3    3    0    0 -0.49774682391E+01  0.15872660652E+02 -0.49221829690E+01  0.17347750047E+02  0.51100000000E-03 0. -1.
        -11    1    3    3    0    0  0.10234273931E+02  0.15958024815E+02 -0.12978334330E+02  0.22974683483E+02  0.51100000000E-03 0.  1.
         12    1    3    3    0    0  0.40749922979E+01  0.62018471413E+01 -0.80955895360E+00  0.74648413172E+01  0.00000000000E+00 0. -1.
</event>
<event>
 7    1  0.7357971E-011  0.4778727E+02  0.7816164E-02  0.1312668E+00
        -11   -1    0    0    0    0  0.00000000000E+00  0.00000000000E+00  0.45593999997E+02  0.45594000000E+02  0.51100000000E-03 0. -1.
         11   -1    0    0    0    0 -0.00000000000E+00 -0.00000000000E+00 -0.45593999997E+02  0.45594000000E+02  0.51100000000E-03 0.  1.
    9900012    2    1    2    0    0 -0.16103846536E+02  0.38262692164E+02  0.12659221783E+02  0.47787269809E+02  0.19999994369E+02 0.  0.
        -12    1    1    2    0    0  0.16103846536E+02 -0.38262692164E+02 -0.12659221783E+02  0.43400730191E+02  0.00000000000E+00 0.  1.
         11    1    3    3    0    0 -0.47488911428E+01  0.13538117067E+02  0.13594377371E+02  0.19764606679E+02  0.51100000000E-03 0. -1.
        -11    1    3    3    0    0 -0.25966750441E+01  0.13485448343E+02 -0.10529122442E+01  0.13773476786E+02  0.51100000000E-03 0.  1.
         12    1    3    3    0    0 -0.87582803495E+01  0.11239126753E+02  0.11775665680E+00  0.14249186345E+02  0.00000000000E+00 0. -1.
</event>
<event>
 7    1  0.7357971E-011  0.4778727E+02  0.7816164E-02  0.1312668E+00
        -11   -1    0    0    0    0  0.00000000000E+00  0.00000000000E+00  0.45593999997E+02  0.45594000000E+02  0.51100000000E-03 0. -1.
         11   -1    0    0    0    0 -0.00000000000E+00 -0.00000000000E+00 -0.45593999997E+02  0.45594000000E+02  0.51100000000E-03 0.  1.
    9900012    2    1    2    0    0  0.29788269476E+02 -0.30606517012E+02 -0.77151558955E+01  0.47787268295E+02  0.19999987466E+02 0.  0.
         12    1    1    2    0    0 -0.29788269476E+02  0.30606517012E+02  0.77151558955E+01  0.43400731705E+02  0.00000000000E+00 0. -1.
         11    1    3    3    0    0  0.91662706112E+01 -0.11274583499E+01 -0.20651328096E+01  0.94634271293E+01  0.51100000000E-03 0. -1.
        -11    1    3    3    0    0  0.87547089607E+01 -0.21421445939E+02 -0.70830185893E+00  0.23152213002E+02  0.51100000000E-03 0.  1.
        -12    1    3    3    0    0  0.11867289905E+02 -0.80576127235E+01 -0.49417212269E+01  0.15171628165E+02  0.00000000000E+00 0.  1.
</event>
<event>
 7    1  0.7357971E-011  0.4778727E+02  0.7816164E-02  0.1312668E+00
        -11   -1    0    0    0    0  0.00000000000E+00  0.00000000000E+00  0.45593999997E+02  0.45594000000E+02  0.51100000000E-03 0. -1.
         11   -1    0    0    0    0 -0.00000000000E+00 -0.00000000000E+00 -0.45593999997E+02  0.45594000000E+02  0.51100000000E-03 0.  1.
    9900012    2    1    2    0    0  0.37388624045E+02 -0.97757378289E+01 -0.19752190909E+02  0.47787270699E+02  0.19999998427E+02 0.  0.
         12    1    1    2    0    0 -0.37388624045E+02  0.97757378289E+01  0.19752190909E+02  0.43400729301E+02  0.00000000000E+00 0. -1.
         11    1    3    3    0    0 -0.14937379747E+01 -0.15334795415E+01 -0.15633000726E+01  0.26507961105E+01  0.51100000000E-03 0. -1.
        -11    1    3    3    0    0  0.28544283552E+02 -0.10791531601E+02 -0.11793797764E+02  0.32715851567E+02  0.51100000000E-03 0.  1.
        -12    1    3    3    0    0  0.10338078468E+02  0.25492733140E+01 -0.63950930729E+01  0.12420623022E+02  0.00000000000E+00 0.  1.
</event>
<event>
 7    1  0.7357971E-011  0.4778727E+02  0.7816164E-02  0.1312668E+00
        -11   -1    0    0    0    0  0.00000000000E+00  0.00000000000E+00  0.45593999997E+02  0.45594000000E+02  0.51100000000E-03 0. -1.
         11   -1    0    0    0    0 -0.00000000000E+00 -0.00000000000E+00 -0.45593999997E+02  0.45594000000E+02  0.51100000000E-03 0.  1.
    9900012    2    1    2    0    0 -0.39140265819E+02  0.61821579432E+01  0.17704357780E+02  0.47787265333E+02  0.19999973961E+02 0.  0.
        -12    1    1    2    0    0  0.39140265819E+02 -0.61821579432E+01 -0.17704357780E+02  0.43400734667E+02  0.00000000000E+00 0.  1.
         11    1    3    3    0    0 -0.65898573076E+00 -0.33958181548E+01  0.45349711685E+01  0.57036660925E+01  0.51100000000E-03 0. -1.
        -11    1    3    3    0    0 -0.87415371952E+01  0.33960515318E+01  0.12835040609E+01  0.94654646731E+01  0.51100000000E-03 0.  1.
         12    1    3    3    0    0 -0.29739742893E+02  0.61819245662E+01  0.11885882551E+02  0.32618134568E+02  0.00000000000E+00 0. -1.
</event>
<event>
 7    1  0.7357971E-011  0.4778726E+02  0.7816164E-02  0.1312668E+00
        -11   -1    0    0    0    0  0.00000000000E+00  0.00000000000E+00  0.45593999997E+02  0.45594000000E+02  0.51100000000E-03 0. -1.
         11   -1    0    0    0    0 -0.00000000000E+00 -0.00000000000E+00 -0.45593999997E+02  0.45594000000E+02  0.51100000000E-03 0.  1.
    9900012    2    1    2    0    0 -0.15993015479E+02  0.27936219660E+01 -0.40249761598E+02  0.47787260646E+02  0.19999952588E+02 0.  0.
         12    1    1    2    0    0  0.15993015479E+02 -0.27936219660E+01  0.40249761598E+02  0.43400739354E+02  0.00000000000E+00 0. -1.
         11    1    3    3    0    0  0.54885623812E+00  0.33850007495E+01 -0.28084807000E+01  0.44324978677E+01  0.51100000000E-03 0. -1.
        -11    1    3    3    0    0  0.72426046729E+00 -0.24756403768E+01 -0.13687260212E+02  0.13928188714E+02  0.51100000000E-03 0.  1.
        -12    1    3    3    0    0 -0.17266132184E+02  0.18842615933E+01 -0.23754020687E+02  0.29426574064E+02  0.00000000000E+00 0.  1.
</event>
<event>
 7    1  0.7357971E-011  0.4778727E+02  0.7816164E-02  0.1312668E+00
        -11   -1    0    0    0    0  0.00000000000E+00  0.00000000000E+00  0.45593999997E+02  0.45594000000E+02  0.51100000000E-03 0. -1.
         11   -1    0    0    0    0 -0.00000000000E+00 -0.00000000000E+00 -0.45593999997E+02  0.45594000000E+02  0.51100000000E-03 0.  1.
    9900012    2    1    2    0    0 -0.18377922326E+02 -0.22087927700E+02  0.32526889691E+02  0.47787272678E+02  0.20000007448E+02 0.  0.
        -12    1    1    2    0    0  0.18377922326E+02  0.22087927700E+02 -0.32526889691E+02  0.43400727322E+02  0.00000000000E+00 0.  1.
         11    1    3    3    0    0 -0.11703994152E+02 -0.47887809203E+01  0.16372071630E+02  0.20687209370E+02  0.51100000000E-03 0. -1.
        -11    1    3    3    0    0 -0.15187019746E+01 -0.75960400762E+01  0.22652363447E+00  0.77496834610E+01  0.51100000000E-03 0.  1.
        -12    1    3    3    0    0 -0.51552261994E+01 -0.97031067034E+01  0.15928294427E+02  0.19350379847E+02  0.00000000000E+00 0.  1.
</event>
<event>
 7    1  0.7357971E-011  0.4778727E+02  0.7816164E-02  0.1312668E+00
        -11   -1    0    0    0    0  0.00000000000E+00  0.00000000000E+00  0.45593999997E+02  0.45594000000E+02  0.51100000000E-03 0. -1.
         11   -1    0    0    0    0 -0.00000000000E+00 -0.00000000000E+00 -0.45593999997E+02  0.45594000000E+02  0.51100000000E-03 0.  1.
    9900012    2    1    2    0    0  0.17680714683E+02  0.36795671351E+02 -0.14734117370E+02  0.47787270553E+02  0.19999997759E+02 0.  0.
         12    1    1    2    0    0 -0.17680714683E+02 -0.36795671351E+02  0.14734117370E+02  0.43400729447E+02  0.00000000000E+00 0. -1.
         11    1    3    3    0    0 -0.19005070277E+01  0.12298839642E+02 -0.62909044150E+01  0.13944492178E+02  0.51100000000E-03 0. -1.
        -11    1    3    3    0    0  0.11296810372E+02  0.77728404422E+01 -0.61861053990E+01  0.15043366425E+02  0.51100000000E-03 0.  1.
         12    1    3    3    0    0  0.82844113390E+01  0.16723991267E+02 -0.22571075555E+01  0.18799411950E+02  0.00000000000E+00 0. -1.
</event>
<event>
 7    1  0.7357971E-011  0.4778727E+02  0.7816164E-02  0.1312668E+00
        -11   -1    0    0    0    0  0.00000000000E+00  0.00000000000E+00  0.45593999997E+02  0.45594000000E+02  0.51100000000E-03 0. -1.
         11   -1    0    0    0    0 -0.00000000000E+00 -0.00000000000E+00 -0.45593999997E+02  0.45594000000E+02  0.51100000000E-03 0.  1.
    9900012    2    1    2    0    0  0.36013284364E+02 -0.22206913637E+02  0.96705458211E+01  0.47787272812E+02  0.20000008059E+02 0.  0.
        -12    1    1    2    0    0 -0.36013284364E+02  0.22206913637E+02 -0.96705458211E+01  0.43400727188E+02  0.00000000000E+00 0.  1.
         11    1    3    3    0    0  0.29805177519E+02 -0.11067780342E+02  0.24413386679E+00  0.31794716074E+02  0.51100000000E-03 0. -1.
        -11    1    3    3    0    0  0.56548346561E+01 -0.85749902010E+01  0.71031406300E+01  0.12488483455E+02  0.51100000000E-03 0.  1.
         12    1    3    3    0    0  0.55327218865E+00 -0.25641430946E+01  0.23232713244E+01  0.35040732828E+01  0.00000000000E+00 0. -1.
</event>
<event>
 7    1  0.7357971E-011  0.4778727E+02  0.7816164E-02  0.1312668E+00
        -11   -1    0    0    0    0  0.00000000000E+00  0.00000000000E+00  0.45593999997E+02  0.45594000000E+02  0.51100000000E-03 0. -1.
         11   -1    0    0    0    0 -0.00000000000E+00 -0.00000000000E+00 -0.45593999997E+02  0.45594000000E+02  0.51100000000E-03 0.  1.
    9900012    2    1    2    0    0  0.21669423365E+02  0.55056534275E+01  0.37198753627E+02  0.47787269591E+02  0.19999993372E+02 0.  0.
        -12    1    1    2    0    0 -0.21669423365E+02 -0.55056534275E+01 -0.37198753627E+02  0.43400730409E+02  0.00000000000E+00 0.  1.
         11    1    3    3    0    0  0.19955057011E+02  0.45176798576E+01  0.35896783550E+02  0.41318189712E+02  0.51100000000E-03 0. -1.
        -11    1    3    3    0    0  0.18489964207E+01  0.17574512516E+01 -0.18951597043E+01  0.31779007586E+01  0.51100000000E-03 0.  1.
         12    1    3    3    0    0 -0.13463006680E+00 -0.76947768169E+00  0.31971297819E+01  0.32911791200E+01  0.00000000000E+00 0. -1.
</event>
<event>
 7    1  0.7357971E-011  0.4778726E+02  0.7816164E-02  0.1312668E+00
        -11   -1    0    0    0    0  0.00000000000E+00  0.00000000000E+00  0.45593999997E+02  0.45594000000E+02  0.51100000000E-03 0. -1.
         11   -1    0    0    0    0 -0.00000000000E+00 -0.00000000000E+00 -0.45593999997E+02  0.45594000000E+02  0.51100000000E-03 0.  1.
    9900012    2    1    2    0    0 -0.13630045866E+02  0.10650819436E+02  0.39804595324E+02  0.47787263671E+02  0.19999966381E+02 0.  0.
        -12    1    1    2    0    0  0.13630045866E+02 -0.10650819436E+02 -0.39804595324E+02  0.43400736329E+02  0.00000000000E+00 0.  1.
         11    1    3    3    0    0 -0.18003098084E+01 -0.32996568843E+01  0.15608042475E+02  0.16054277969E+02  0.51100000000E-03 0. -1.
        -11    1    3    3    0    0  0.15244204382E+01  0.14787868170E+01  0.15247575964E+01  0.26144892639E+01  0.51100000000E-03 0.  1.
         12    1    3    3    0    0 -0.13354156496E+02  0.12471689503E+02  0.22671795253E+02  0.29118496438E+02  0.00000000000E+00 0. -1.
</event>
<event>
 7    1  0.7357971E-011  0.4778727E+02  0.7816164E-02  0.1312668E+00
        -11   -1    0    0    0    0  0.00000000000E+00  0.00000000000E+00  0.45593999997E+02  0.45594000000E+02  0.51100000000E-03 0. -1.
         11   -1    0    0    0    0 -0.00000000000E+00 -0.00000000000E+00 -0.45593999997E+02  0.45594000000E+02  0.51100000000E-03 0.  1.
    9900012    2    1    2    0    0  0.65587484975E+01  0.52750958450E+01  0.42576752862E+02  0.47787266109E+02  0.19999977498E+02 0.  0.
        -12    1    1    2    0    0 -0.65587484975E+01 -0.52750958450E+01 -0.42576752862E+02  0.43400733891E+02  0.00000000000E+00 0.  1.
         11    1    3    3    0    0 -0.35206729589E+01 -0.22726406572E+01  0.66772193404E+01  0.78832285278E+01  0.51100000000E-03 0. -1.
        -11    1    3    3    0    0  0.76249593153E+01  0.73516783827E+01  0.35912331232E+02  0.37441724244E+02  0.51100000000E-03 0.  1.
        -12    1    3    3    0    0  0.24544621410E+01  0.19605811945E+00 -0.12797711094E-01  0.24623133370E+01  0.00000000000E+00 0.  1.
</event>
<event>
 7    1  0.7357971E-011  0.4778728E+02  0.7816164E-02  0.1312668E+00
        -11   -1    0    0    0    0  0.00000000000E+00  0.00000000000E+00  0.45593999997E+02  0.45594000000E+02  0.51100000000E-03 0. -1.
         11   -1    0    0    0    0 -0.00000000000E+00 -0.00000000000E+00 -0.45593999997E+02  0.45594000000E+02  0.51100000000E-03 0.  1.
    9900012    2    1    2    0    0 -0.32824042504E+02 -0.81903206818E+01  0.27186819253E+02  0.47787282722E+02  0.20000053242E+02 0.  0.
        -12    1    1    2    0    0  0.32824042504E+02  0.81903206818E+01 -0.27186819253E+02  0.43400717278E+02  0.00000000000E+00 0.  1.
         11    1    3    3    0    0 -0.12540696855E+01 -0.20002024796E+01  0.61403729335E+01  0.65785774115E+01  0.51100000000E-03 0. -1.
        -11    1    3    3    0    0 -0.32947371260E+02 -0.51939600949E+01  0.18483475661E+02  0.38133258019E+02  0.51100000000E-03 0.  1.
        -12    1    3    3    0    0  0.13773984417E+01 -0.99615810732E+00  0.25629706590E+01  0.30754472912E+01  0.00000000000E+00 0.  1.
</event>
<event>
 7    1  0.7357971E-011  0.4778727E+02  0.7816164E-02  0.1312668E+00
        -11   -1    0    0    0    0  0.00000000000E+00  0.00000000000E+00  0.45593999997E+02  0.45594000000E+02  0.51100000000E-03 0. -1.
         11   -1    0    0    0    0 -0.00000000000E+00 -0.00000000000E+00 -0.45593999997E+02  0.45594000000E+02  0.51100000000E-03 0.  1.
    9900012    2    1    2    0    0  0.37470678944E+02 -0.39044433328E+01 -0.21548241928E+02  0.47787272029E+02  0.20000004487E+02 0.  0.
         12    1    1    2    0    0 -0.37470678944E+02  0.39044433328E+01  0.21548241928E+02  0.43400727971E+02  0.00000000000E+00 0. -1.
         11    1    3    3    0    0  0.27407399889E+02  0.57333634832E+01 -0.14010997782E+02  0.31310462862E+02  0.51100000000E-03 0. -1.
        -11    1    3    3    0    0  0.59043130806E+01 -0.60987699271E+01 -0.69756707313E+01  0.10987078319E+02  0.51100000000E-03 0.  1.
         12    1    3    3    0    0  0.41589659743E+01 -0.35390368890E+01 -0.56157341408E+00  0.54897308474E+01  0.00000000000E+00 0. -1.
</event>
<event>
 7    1  0.9607282E-011  0.4778727E+02  0.7816164E-02  0.1312668E+00
        -11   -1    0    0    0    0  0.00000000000E+00  0.00000000000E+00  0.45593999997E+02  0.45594000000E+02  0.51100000000E-03 0. -1.
         11   -1    0    0    0    0 -0.00000000000E+00 -0.00000000000E+00 -0.45593999997E+02  0.45594000000E+02  0.51100000000E-03 0.  1.
    9900012    2    1    2    0    0 -0.11229005802E+02 -0.17093235262E+02 -0.38279942760E+02  0.47787270965E+02  0.19999999637E+02 0.  0.
         12    1    1    2    0    0  0.11229005802E+02  0.17093235262E+02  0.38279942760E+02  0.43400729035E+02  0.00000000000E+00 0. -1.
         11    1    3    3    0    0  0.11998436872E+01 -0.82995423172E+00  0.22134604830E+00  0.14756162220E+01  0.51100000000E-03 0. -1.
        -11    1    3    3    0    0 -0.44449098761E+01 -0.12541478792E+02 -0.10477069010E+02  0.16935610098E+02  0.51100000000E-03 0.  1.
        -12    1    3    3    0    0 -0.79839396132E+01 -0.37218022389E+01 -0.28024219798E+02  0.29376044645E+02  0.00000000000E+00 0.  1.
</event>
<event>
 7    1  0.7357971E-011  0.4778727E+02  0.7816164E-02  0.1312668E+00
        -11   -1    0    0    0    0  0.00000000000E+00  0.00000000000E+00  0.45593999997E+02  0.45594000000E+02  0.51100000000E-03 0. -1.
         11   -1    0    0    0    0 -0.00000000000E+00 -0.00000000000E+00 -0.45593999997E+02  0.45594000000E+02  0.51100000000E-03 0.  1.
    9900012    2    1    2    0    0 -0.30890462796E+02 -0.23472151921E+02  0.19454068009E+02  0.47787269941E+02  0.19999994970E+02 0.  0.
        -12    1    1    2    0    0  0.30890462796E+02  0.23472151921E+02 -0.19454068009E+02  0.43400730059E+02  0.00000000000E+00 0.  1.
         11    1    3    3    0    0 -0.67641689518E+01 -0.32688623750E+01 -0.29202024683E+01  0.80602125005E+01  0.51100000000E-03 0. -1.
        -11    1    3    3    0    0 -0.12119826999E+02 -0.54781776045E+01  0.57839974612E+01  0.14503629313E+02  0.51100000000E-03 0.  1.
         12    1    3    3    0    0 -0.12006466846E+02 -0.14725111941E+02  0.16590273016E+02  0.25223428128E+02  0.00000000000E+00 0. -1.
</event>
<event>
 7    1  0.7357971E-011  0.4778727E+02  0.7816164E-02  0.1312668E+00
        -11   -1    0    0    0    0  0.00000000000E+00  0.00000000000E+00  0.45593999997E+02  0.45594000000E+02  0.51100000000E-03 0. -1.
         11   -1    0    0    0    0 -0.00000000000E+00 -0.00000000000E+00 -0.45593999997E+02  0.45594000000E+02  0.51100000000E-03 0.  1.
    9900012    2    1    2    0    0 -0.13656042073E+02  0.27672128887E+02  0.30518669249E+02  0.47787269880E+02  0.19999994691E+02 0.  0.
        -12    1    1    2    0    0  0.13656042073E+02 -0.27672128887E+02 -0.30518669249E+02  0.43400730120E+02  0.00000000000E+00 0.  1.
         11    1    3    3    0    0 -0.28047936521E+01  0.23075316226E+02  0.25002037382E+02  0.34138526035E+02  0.51100000000E-03 0. -1.
        -11    1    3    3    0    0 -0.10769482899E+02  0.36478970396E+01  0.56327865110E+01  0.12689255252E+02  0.51100000000E-03 0.  1.
         12    1    3    3    0    0 -0.81765522045E-01  0.94891562135E+00 -0.11615464420E+00  0.95948859212E+00  0.00000000000E+00 0. -1.
</event>
<event>
 7    1  0.7357971E-011  0.4778727E+02  0.7816164E-02  0.1312668E+00
        -11   -1    0    0    0    0  0.00000000000E+00  0.00000000000E+00  0.45593999997E+02  0.45594000000E+02  0.51100000000E-03 0. -1.
         11   -1    0    0    0    0 -0.00000000000E+00 -0.00000000000E+00 -0.45593999997E+02  0.45594000000E+02  0.51100000000E-03 0.  1.
    9900012    2    1    2    0    0  0.22046751050E+02 -0.27745818017E+02  0.25054613688E+02  0.47787270556E+02  0.19999997771E+02 0.  0.
        -12    1    1    2    0    0 -0.22046751050E+02  0.27745818017E+02 -0.25054613688E+02  0.43400729444E+02  0.00000000000E+00 0.  1.
         11    1    3    3    0    0  0.15741209949E+02 -0.19903434776E+02  0.22785382423E+02  0.34104340764E+02  0.51100000000E-03 0. -1.
        -11    1    3    3    0    0  0.49476629232E+00 -0.40260364420E+01 -0.29282760102E+01  0.50028555615E+01  0.51100000000E-03 0.  1.
        -12    1    3    3    0    0  0.58107748084E+01 -0.38163467989E+01  0.51975072751E+01  0.86800742300E+01  0.00000000000E+00 0.  1.
</event>
<event>
 7    1  0.7357971E-011  0.4778728E+02  0.7816164E-02  0.1312668E+00
        -11   -1    0    0    0    0  0.00000000000E+00  0.00000000000E+00  0.45593999997E+02  0.45594000000E+02  0.51100000000E-03 0. -1.
         11   -1    0    0    0    0 -0.00000000000E+00 -0.00000000000E+00 -0.45593999997E+02  0.45594000000E+02  0.51100000000E-03 0.  1.
    9900012    2    1    2    0    0  0.19975215585E+01  0.12058773412E+02 -0.41643952087E+02  0.47787275882E+02  0.20000022057E+02 0.  0.
         12    1    1    2    0    0 -0.19975215585E+01 -0.12058773412E+02  0.41643952087E+02  0.43400724118E+02  0.00000000000E+00 0. -1.
         11    1    3    3    0    0  0.44379051821E+01  0.17363391314E+01 -0.29495138686E+02  0.29877635153E+02  0.51100000000E-03 0. -1.
        -11    1    3    3    0    0  0.96063287125E+00  0.84983908633E+00 -0.59556348291E+01  0.60921776455E+01  0.51100000000E-03 0.  1.
         12    1    3    3    0    0 -0.34010164949E+01  0.94725951938E+01 -0.61931785713E+01  0.11817463083E+02  0.00000000000E+00 0. -1.
</event>
<event>
 7    1  0.7357971E-011  0.4778727E+02  0.7816164E-02  0.1312668E+00
        -11   -1    0    0    0    0  0.00000000000E+00  0.00000000000E+00  0.45593999997E+02  0.45594000000E+02  0.51100000000E-03 0. -1.
         11   -1    0    0    0    0 -0.00000000000E+00 -0.00000000000E+00 -0.45593999997E+02  0.45594000000E+02  0.51100000000E-03 0.  1.
    9900012    2    1    2    0    0 -0.32514265785E+02  0.16191723789E+02  0.23754449656E+02  0.47787271005E+02  0.19999999821E+02 0.  0.
        -12    1    1    2    0    0  0.32514265785E+02 -0.16191723789E+02 -0.23754449656E+02  0.43400728995E+02  0.00000000000E+00 0.  1.
         11    1    3    3    0    0  0.14697945561E+01  0.53895892191E+01  0.41404636946E+01  0.69535176605E+01  0.51100000000E-03 0. -1.
        -11    1    3    3    0    0 -0.18258507787E+02  0.74970807061E+01  0.10389062421E+02  0.22304975767E+02  0.51100000000E-03 0.  1.
         12    1    3    3    0    0 -0.15725552554E+02  0.33050538641E+01  0.92249235405E+01  0.18528777577E+02  0.00000000000E+00 0. -1.
</event>
<event>
 7    1  0.7357971E-011  0.4778727E+02  0.7816164E-02  0.1312668E+00
        -11   -1    0    0    0    0  0.00000000000E+00  0.00000000000E+00  0.45593999997E+02  0.45594000000E+02  0.51100000000E-03 0. -1.
         11   -1    0    0    0    0 -0.00000000000E+00 -0.00000000000E+00 -0.45593999997E+02  0.45594000000E+02  0.51100000000E-03 0.  1.
    9900012    2    1    2    0    0  0.28205600162E+01 -0.22218213533E+02  0.37175510922E+02  0.47787272083E+02  0.20000004736E+02 0.  0.
        -12    1    1    2    0    0 -0.28205600162E+01  0.22218213533E+02 -0.37175510922E+02  0.43400727917E+02  0.00000000000E+00 0.  1.
         11    1    3    3    0    0 -0.56719642103E+01 -0.18312790475E+02  0.27565373726E+02  0.33576469467E+02  0.51100000000E-03 0. -1.
        -11    1    3    3    0    0  0.81196033340E+01 -0.18020714795E+01  0.79478938861E+01  0.11504105241E+02  0.51100000000E-03 0.  1.
        -12    1    3    3    0    0  0.37292089251E+00 -0.21033515785E+01  0.16622433100E+01  0.27066973744E+01  0.00000000000E+00 0.  1.
</event>
<event>
 7    1  0.7357971E-011  0.4778727E+02  0.7816164E-02  0.1312668E+00
        -11   -1    0    0    0    0  0.00000000000E+00  0.00000000000E+00  0.45593999997E+02  0.45594000000E+02  0.51100000000E-03 0. -1.
         11   -1    0    0    0    0 -0.00000000000E+00 -0.00000000000E+00 -0.45593999997E+02  0.45594000000E+02  0.51100000000E-03 0.  1.
    9900012    2    1    2    0    0  0.14979948248E+02 -0.17325158359E+02  0.36865476347E+02  0.47787270652E+02  0.19999998209E+02 0.  0.
        -12    1    1    2    0    0 -0.14979948248E+02  0.17325158359E+02 -0.36865476347E+02  0.43400729348E+02  0.00000000000E+00 0.  1.
         11    1    3    3    0    0  0.16243375345E+02 -0.10861519680E+02  0.21554696890E+02  0.29093380873E+02  0.51100000000E-03 0. -1.
        -11    1    3    3    0    0 -0.57736426384E+00  0.95099491969E+00  0.85942687161E+01  0.86659792208E+01  0.51100000000E-03 0.  1.
        -12    1    3    3    0    0 -0.68606283323E+00 -0.74146335988E+01  0.67165107410E+01  0.10027910557E+02  0.00000000000E+00 0.  1.
</event>
<event>
 7    1  0.7357971E-011  0.4778727E+02  0.7816164E-02  0.1312668E+00
        -11   -1    0    0    0    0  0.00000000000E+00  0.00000000000E+00  0.45593999997E+02  0.45594000000E+02  0.51100000000E-03 0. -1.
         11   -1    0    0    0    0 -0.00000000000E+00 -0.00000000000E+00 -0.45593999997E+02  0.45594000000E+02  0.51100000000E-03 0.  1.
    9900012    2    1    2    0    0  0.32989628003E+02  0.47183518224E+01  0.27803679549E+02  0.47787274244E+02  0.20000014589E+02 0.  0.
        -12    1    1    2    0    0 -0.32989628003E+02 -0.47183518224E+01 -0.27803679549E+02  0.43400725756E+02  0.00000000000E+00 0.  1.
         11    1    3    3    0    0  0.14490266269E+01  0.86934327129E+00  0.98835049069E+01  0.10026919038E+02  0.51100000000E-03 0. -1.
        -11    1    3    3    0    0  0.18424035252E+02  0.69738853093E+01  0.11687882922E+02  0.22906041970E+02  0.51100000000E-03 0.  1.
         12    1    3    3    0    0  0.13116566124E+02 -0.31248767582E+01  0.62322917201E+01  0.14854313236E+02  0.00000000000E+00 0. -1.
</event>
<event>
 7    1  0.7357971E-011  0.4778728E+02  0.7816164E-02  0.1312668E+00
        -11   -1    0    0    0    0  0.00000000000E+00  0.00000000000E+00  0.45593999997E+02  0.45594000000E+02  0.51100000000E-03 0. -1.
         11   -1    0    0    0    0 -0.00000000000E+00 -0.00000000000E+00 -0.45593999997E+02  0.45594000000E+02  0.51100000000E-03 0.  1.
    9900012    2    1    2    0    0  0.17377582975E+02  0.15645113296E+02  0.36563268137E+02  0.47787279534E+02  0.20000038708E+02 0.  0.
        -12    1    1    2    0    0 -0.17377582975E+02 -0.15645113296E+02 -0.36563268137E+02  0.43400720466E+02  0.00000000000E+00 0.  1.
         11    1    3    3    0    0 -0.11274824816E+01 -0.31645893049E+01  0.30396981397E+01  0.45305195350E+01  0.51100000000E-03 0. -1.
        -11    1    3    3    0    0  0.46725424185E+01  0.24326529568E+01  0.33480574384E+01  0.62417899623E+01  0.51100000000E-03 0.  1.
         12    1    3    3    0    0  0.13832523038E+02  0.16377049644E+02  0.30175512559E+02  0.37014970037E+02  0.00000000000E+00 0. -1.
</event>
<event>
 7    1  0.7357971E-011  0.4778727E+02  0.7816164E-02  0.1312668E+00
        -11   -1    0    0    0    0  0.00000000000E+00  0.00000000000E+00  0.45593999997E+02  0.45594000000E+02  0.51100000000E-03 0. -1.
         11   -1    0    0    0    0 -0.00000000000E+00 -0.00000000000E+00 -0.45593999997E+02  0.45594000000E+02  0.51100000000E-03 0.  1.
    9900012    2    1    2    0    0  0.25355776468E+02 -0.33054086531E+00 -0.35222129960E+02  0.47787273088E+02  0.20000009318E+02 0.  0.
         12    1    1    2    0    0 -0.25355776468E+02  0.33054086531E+00  0.35222129960E+02  0.43400726912E+02  0.00000000000E+00 0. -1.
         11    1    3    3    0    0  0.23836123863E+02  0.10693039731E+01 -0.30617663347E+02  0.38816820077E+02  0.51100000000E-03 0. -1.
        -11    1    3    3    0    0  0.24463825097E+01  0.10985992550E+01 -0.55329124231E+01  0.61485630720E+01  0.51100000000E-03 0.  1.
         12    1    3    3    0    0 -0.92672990534E+00 -0.24984440934E+01  0.92844580999E+00  0.28218899389E+01  0.00000000000E+00 0. -1.
</event>
<event>
 7    1  0.7357971E-011  0.4778727E+02  0.7816164E-02  0.1312668E+00
        -11   -1    0    0    0    0  0.00000000000E+00  0.00000000000E+00  0.45593999997E+02  0.45594000000E+02  0.51100000000E-03 0. -1.
         11   -1    0    0    0    0 -0.00000000000E+00 -0.00000000000E+00 -0.45593999997E+02  0.45594000000E+02  0.51100000000E-03 0.  1.
    9900012    2    1    2    0    0 -0.55731644806E+01 -0.20345459941E+02  0.37929214427E+02  0.47787271785E+02  0.20000003378E+02 0.  0.
        -12    1    1    2    0    0  0.55731644806E+01  0.20345459941E+02 -0.37929214427E+02  0.43400728215E+02  0.00000000000E+00 0.  1.
         11    1    3    3    0    0  0.29590823229E+01 -0.18834566937E+02  0.27341232589E+02  0.33332267845E+02  0.51100000000E-03 0. -1.
        -11    1    3    3    0    0 -0.77620671319E+01 -0.27001614737E+01  0.99387001205E+01  0.12896445964E+02  0.51100000000E-03 0.  1.
        -12    1    3    3    0    0 -0.77017967165E+00  0.11892684701E+01  0.64928171695E+00  0.15585579773E+01  0.00000000000E+00 0.  1.
</event>
<event>
 7    1  0.7357971E-011  0.4778727E+02  0.7816164E-02  0.1312668E+00
        -11   -1    0    0    0    0  0.00000000000E+00  0.00000000000E+00  0.45593999997E+02  0.45594000000E+02  0.51100000000E-03 0. -1.
         11   -1    0    0    0    0 -0.00000000000E+00 -0.00000000000E+00 -0.45593999997E+02  0.45594000000E+02  0.51100000000E-03 0.  1.
    9900012    2    1    2    0    0  0.49171175883E+01  0.14934471892E+02 -0.40452531229E+02  0.47787265226E+02  0.19999973472E+02 0.  0.
         12    1    1    2    0    0 -0.49171175883E+01 -0.14934471892E+02  0.40452531229E+02  0.43400734774E+02  0.00000000000E+00 0. -1.
         11    1    3    3    0    0 -0.16931124042E+01 -0.73109402643E+00 -0.98959103101E+01  0.10066288751E+02  0.51100000000E-03 0. -1.
        -11    1    3    3    0    0  0.79081085434E+01  0.14848544133E+02 -0.16442865979E+02  0.23524142609E+02  0.51100000000E-03 0.  1.
        -12    1    3    3    0    0 -0.12978785508E+01  0.81702178518E+00 -0.14113754940E+02  0.14196833866E+02  0.00000000000E+00 0.  1.
</event>
<event>
 7    1  0.7357971E-011  0.4778728E+02  0.7816164E-02  0.1312668E+00
        -11   -1    0    0    0    0  0.00000000000E+00  0.00000000000E+00  0.45593999997E+02  0.45594000000E+02  0.51100000000E-03 0. -1.
         11   -1    0    0    0    0 -0.00000000000E+00 -0.00000000000E+00 -0.45593999997E+02  0.45594000000E+02  0.51100000000E-03 0.  1.
    9900012    2    1    2    0    0  0.19765648194E+02 -0.63124468278E+01 -0.38119484408E+02  0.47787275064E+02  0.20000018325E+02 0.  0.
         12    1    1    2    0    0 -0.19765648194E+02  0.63124468278E+01  0.38119484408E+02  0.43400724936E+02  0.00000000000E+00 0. -1.
         11    1    3    3    0    0  0.12325221876E+02 -0.12509813065E+02 -0.30592370055E+02  0.35274631437E+02  0.51100000000E-03 0. -1.
        -11    1    3    3    0    0  0.40455295236E+01  0.35567880182E+01 -0.56912326753E+01  0.78362733336E+01  0.51100000000E-03 0.  1.
         12    1    3    3    0    0  0.33948967948E+01  0.26405782193E+01 -0.18358816779E+01  0.46763702927E+01  0.00000000000E+00 0. -1.
</event>
<event>
 7    1  0.7357971E-011  0.4778727E+02  0.7816164E-02  0.1312668E+00
        -11   -1    0    0    0    0  0.00000000000E+00  0.00000000000E+00  0.45593999997E+02  0.45594000000E+02  0.51100000000E-03 0. -1.
         11   -1    0    0    0    0 -0.00000000000E+00 -0.00000000000E+00 -0.45593999997E+02  0.45594000000E+02  0.51100000000E-03 0.  1.
    9900012    2    1    2    0    0  0.53383922312E+01  0.91018939615E+01 -0.42098459338E+02  0.47787272081E+02  0.20000004724E+02 0.  0.
         12    1    1    2    0    0 -0.53383922312E+01 -0.91018939615E+01  0.42098459338E+02  0.43400727919E+02  0.00000000000E+00 0. -1.
         11    1    3    3    0    0 -0.27016576711E+01 -0.51023327339E+01 -0.72046161698E+01  0.92325103799E+01  0.51100000000E-03 0. -1.
        -11    1    3    3    0    0  0.25226944656E+01  0.53655081596E+01 -0.11244591454E+02  0.12711943298E+02  0.51100000000E-03 0.  1.
         12    1    3    3    0    0  0.55173554367E+01  0.88387185358E+01 -0.23649251714E+02  0.25842818403E+02  0.00000000000E+00 0. -1.
</event>
<event>
 7    1  0.7357971E-011  0.4778729E+02  0.7816164E-02  0.1312668E+00
        -11   -1    0    0    0    0  0.00000000000E+00  0.00000000000E+00  0.45593999997E+02  0.45594000000E+02  0.51100000000E-03 0.  1.
         11   -1    0    0    0    0 -0.00000000000E+00 -0.00000000000E+00 -0.45593999997E+02  0.45594000000E+02  0.51100000000E-03 0. -1.
    9900012    2    1    2    0    0  0.36415024186E+02  0.14216756614E+02 -0.18853420435E+02  0.47787290130E+02  0.20000087019E+02 0.  0.
         12    1    1    2    0    0 -0.36415024186E+02 -0.14216756614E+02  0.18853420435E+02  0.43400709870E+02  0.00000000000E+00 0. -1.
         11    1    3    3    0    0  0.64227621489E+01  0.77513582793E+01  0.72801558636E+00  0.10092840817E+02  0.51100000000E-03 0. -1.
        -11    1    3    3    0    0  0.16895083273E+02  0.69837003189E+01 -0.15494998559E+02  0.23964784363E+02  0.51100000000E-03 0.  1.
         12    1    3    3    0    0  0.13097178764E+02 -0.51830198438E+00 -0.40864374629E+01  0.13729664951E+02  0.00000000000E+00 0. -1.
</event>
<event>
 7    1  0.7357971E-011  0.4778727E+02  0.7816164E-02  0.1312668E+00
        -11   -1    0    0    0    0  0.00000000000E+00  0.00000000000E+00  0.45593999997E+02  0.45594000000E+02  0.51100000000E-03 0. -1.
         11   -1    0    0    0    0 -0.00000000000E+00 -0.00000000000E+00 -0.45593999997E+02  0.45594000000E+02  0.51100000000E-03 0.  1.
    9900012    2    1    2    0    0 -0.12058748311E+02 -0.10991662549E+02 -0.40216833596E+02  0.47787265434E+02  0.19999974419E+02 0.  0.
         12    1    1    2    0    0  0.12058748311E+02  0.10991662549E+02  0.40216833596E+02  0.43400734566E+02  0.00000000000E+00 0. -1.
         11    1    3    3    0    0  0.46357031751E-01 -0.53469701936E+01 -0.27672367980E+02  0.28184254276E+02  0.51100000000E-03 0. -1.
        -11    1    3    3    0    0 -0.89183222954E+01 -0.64777682766E+01 -0.67139224429E+01  0.12906382500E+02  0.51100000000E-03 0.  1.
        -12    1    3    3    0    0 -0.31867830479E+01  0.83307592146E+00 -0.58305431727E+01  0.66966286573E+01  0.00000000000E+00 0.  1.
</event>
<event>
 7    1  0.7357971E-011  0.4778727E+02  0.7816164E-02  0.1312668E+00
        -11   -1    0    0    0    0  0.00000000000E+00  0.00000000000E+00  0.45593999997E+02  0.45594000000E+02  0.51100000000E-03 0.  1.
         11   -1    0    0    0    0 -0.00000000000E+00 -0.00000000000E+00 -0.45593999997E+02  0.45594000000E+02  0.51100000000E-03 0. -1.
    9900012    2    1    2    0    0 -0.13632466817E+02 -0.36167104166E+02 -0.19741320304E+02  0.47787270713E+02  0.19999998490E+02 0.  0.
         12    1    1    2    0    0  0.13632466817E+02  0.36167104166E+02  0.19741320304E+02  0.43400729287E+02  0.00000000000E+00 0. -1.
         11    1    3    3    0    0 -0.43321368017E+01 -0.12232471707E+01 -0.19272474141E+00  0.45056504521E+01  0.51100000000E-03 0. -1.
        -11    1    3    3    0    0 -0.11404474734E+02 -0.34643971378E+02 -0.18759507252E+02  0.41014459760E+02  0.51100000000E-03 0.  1.
         12    1    3    3    0    0  0.21041447183E+01 -0.29988561776E+00 -0.78908830964E+00  0.22671605015E+01  0.00000000000E+00 0. -1.
</event>
<event>
 7    1  0.7357971E-011  0.4778727E+02  0.7816164E-02  0.1312668E+00
        -11   -1    0    0    0    0  0.00000000000E+00  0.00000000000E+00  0.45593999997E+02  0.45594000000E+02  0.51100000000E-03 0. -1.
         11   -1    0    0    0    0 -0.00000000000E+00 -0.00000000000E+00 -0.45593999997E+02  0.45594000000E+02  0.51100000000E-03 0.  1.
    9900012    2    1    2    0    0 -0.16207809391E+02  0.13440291528E+02 -0.37951140195E+02  0.47787267705E+02  0.19999984774E+02 0.  0.
         12    1    1    2    0    0  0.16207809391E+02 -0.13440291528E+02  0.37951140195E+02  0.43400732295E+02  0.00000000000E+00 0. -1.
         11    1    3    3    0    0 -0.40593135788E+01  0.20261220529E+01 -0.18580106822E+02  0.19125991924E+02  0.51100000000E-03 0. -1.
        -11    1    3    3    0    0 -0.10390577633E+02  0.13522548740E+02 -0.12158564563E+02  0.20944071249E+02  0.51100000000E-03 0.  1.
        -12    1    3    3    0    0 -0.17579181797E+01 -0.21083792652E+01 -0.72124688102E+01  0.77172045321E+01  0.00000000000E+00 0.  1.
</event>
<event>
 7    1  0.7357971E-011  0.4778727E+02  0.7816164E-02  0.1312668E+00
        -11   -1    0    0    0    0  0.00000000000E+00  0.00000000000E+00  0.45593999997E+02  0.45594000000E+02  0.51100000000E-03 0. -1.
         11   -1    0    0    0    0 -0.00000000000E+00 -0.00000000000E+00 -0.45593999997E+02  0.45594000000E+02  0.51100000000E-03 0.  1.
    9900012    2    1    2    0    0 -0.17049819780E+02 -0.18116963108E+02  0.35562660248E+02  0.47787268316E+02  0.19999987561E+02 0.  0.
        -12    1    1    2    0    0  0.17049819780E+02  0.18116963108E+02 -0.35562660248E+02  0.43400731684E+02  0.00000000000E+00 0.  1.
         11    1    3    3    0    0 -0.13410954546E+01 -0.13799613592E+02  0.18803955201E+02  0.23362718244E+02  0.51100000000E-03 0. -1.
        -11    1    3    3    0    0 -0.14638060229E+02 -0.30196645642E+01  0.11370354459E+02  0.18779673643E+02  0.51100000000E-03 0.  1.
        -12    1    3    3    0    0 -0.10706640964E+01 -0.12976849518E+01  0.53883505877E+01  0.56448764289E+01  0.00000000000E+00 0.  1.
</event>
<event>
 7    1  0.7357971E-011  0.4778727E+02  0.7816164E-02  0.1312668E+00
        -11   -1    0    0    0    0  0.00000000000E+00  0.00000000000E+00  0.45593999997E+02  0.45594000000E+02  0.51100000000E-03 0. -1.
         11   -1    0    0    0    0 -0.00000000000E+00 -0.00000000000E+00 -0.45593999997E+02  0.45594000000E+02  0.51100000000E-03 0.  1.
    9900012    2    1    2    0    0  0.24343791566E+02  0.34922972394E+02 -0.84492035418E+01  0.47787271560E+02  0.20000002353E+02 0.  0.
         12    1    1    2    0    0 -0.24343791566E+02 -0.34922972394E+02  0.84492035418E+01  0.43400728440E+02  0.00000000000E+00 0. -1.
         11    1    3    3    0    0 -0.90322194508E+00  0.71494901234E+01 -0.38621643675E+01  0.81760218180E+01  0.51100000000E-03 0. -1.
        -11    1    3    3    0    0  0.17768460370E+02  0.19765333321E+02  0.22873254265E+01  0.26676177445E+02  0.51100000000E-03 0.  1.
        -12    1    3    3    0    0  0.74785531410E+01  0.80081489489E+01 -0.68743646008E+01  0.12935072297E+02  0.00000000000E+00 0.  1.
</event>
<event>
 7    1  0.7357971E-011  0.4778727E+02  0.7816164E-02  0.1312668E+00
        -11   -1    0    0    0    0  0.00000000000E+00  0.00000000000E+00  0.45593999997E+02  0.45594000000E+02  0.51100000000E-03 0. -1.
         11   -1    0    0    0    0 -0.00000000000E+00 -0.00000000000E+00 -0.45593999997E+02  0.45594000000E+02  0.51100000000E-03 0.  1.
    9900012    2    1    2    0    0  0.16376007419E+01  0.20752449276E+02 -0.38082512300E+02  0.47787266939E+02  0.19999981281E+02 0.  0.
         12    1    1    2    0    0 -0.16376007419E+01 -0.20752449276E+02  0.38082512300E+02  0.43400733061E+02  0.00000000000E+00 0. -1.
         11    1    3    3    0    0 -0.39688248285E+01 -0.53654236721E-01 -0.54524112429E+01  0.67441261790E+01  0.51100000000E-03 0. -1.
        -11    1    3    3    0    0  0.89979115152E+01  0.18378189279E+02 -0.29126226109E+02  0.35595748348E+02  0.51100000000E-03 0.  1.
        -12    1    3    3    0    0 -0.33914859448E+01  0.24279142338E+01 -0.35038749482E+01  0.54473924122E+01  0.00000000000E+00 0.  1.
</event>
<event>
 7    1  0.7357971E-011  0.4778727E+02  0.7816164E-02  0.1312668E+00
        -11   -1    0    0    0    0  0.00000000000E+00  0.00000000000E+00  0.45593999997E+02  0.45594000000E+02  0.51100000000E-03 0.  1.
         11   -1    0    0    0    0 -0.00000000000E+00 -0.00000000000E+00 -0.45593999997E+02  0.45594000000E+02  0.51100000000E-03 0. -1.
    9900012    2    1    2    0    0  0.18139980178E+02 -0.39130717039E+02 -0.48323548755E+01  0.47787267857E+02  0.19999985469E+02 0.  0.
        -12    1    1    2    0    0 -0.18139980178E+02  0.39130717039E+02  0.48323548755E+01  0.43400732143E+02  0.00000000000E+00 0.  1.
         11    1    3    3    0    0  0.40219875945E+01 -0.97076806428E+01 -0.14416115838E+01  0.10606304347E+02  0.51100000000E-03 0. -1.
        -11    1    3    3    0    0  0.11808892580E+02 -0.22475067229E+02 -0.10029391200E+02  0.27297752270E+02  0.51100000000E-03 0.  1.
        -12    1    3    3    0    0  0.23091000036E+01 -0.69479691673E+01  0.66386479081E+01  0.98832112405E+01  0.00000000000E+00 0.  1.
</event>
<event>
 7    1  0.7357971E-011  0.4778727E+02  0.7816164E-02  0.1312668E+00
        -11   -1    0    0    0    0  0.00000000000E+00  0.00000000000E+00  0.45593999997E+02  0.45594000000E+02  0.51100000000E-03 0. -1.
         11   -1    0    0    0    0 -0.00000000000E+00 -0.00000000000E+00 -0.45593999997E+02  0.45594000000E+02  0.51100000000E-03 0.  1.
    9900012    2    1    2    0    0 -0.18944254472E+02 -0.82169326130E+00 -0.39039257973E+02  0.47787267053E+02  0.19999981800E+02 0.  0.
         12    1    1    2    0    0  0.18944254472E+02  0.82169326130E+00  0.39039257973E+02  0.43400732947E+02  0.00000000000E+00 0. -1.
         11    1    3    3    0    0 -0.81369810999E+01  0.22241414715E+01 -0.60069819637E+01  0.10355727849E+02  0.51100000000E-03 0. -1.
        -11    1    3    3    0    0 -0.37664226082E+01  0.14190253152E+01 -0.26596485704E+02  0.26899305274E+02  0.51100000000E-03 0.  1.
        -12    1    3    3    0    0 -0.70408507636E+01 -0.44648600480E+01 -0.64357903044E+01  0.10532233930E+02  0.00000000000E+00 0.  1.
</event>
<event>
 7    1  0.7357971E-011  0.4778727E+02  0.7816164E-02  0.1312668E+00
        -11   -1    0    0    0    0  0.00000000000E+00  0.00000000000E+00  0.45593999997E+02  0.45594000000E+02  0.51100000000E-03 0. -1.
         11   -1    0    0    0    0 -0.00000000000E+00 -0.00000000000E+00 -0.45593999997E+02  0.45594000000E+02  0.51100000000E-03 0.  1.
    9900012    2    1    2    0    0 -0.20346301567E+02 -0.10180281370E+02 -0.36959617115E+02  0.47787269435E+02  0.19999992664E+02 0.  0.
         12    1    1    2    0    0  0.20346301567E+02  0.10180281370E+02  0.36959617115E+02  0.43400730565E+02  0.00000000000E+00 0. -1.
         11    1    3    3    0    0 -0.60884504192E+01  0.43223498847E+01 -0.81019310068E+01  0.11017859290E+02  0.51100000000E-03 0. -1.
        -11    1    3    3    0    0 -0.63176845472E+01 -0.10433523950E+02 -0.23182189875E+02  0.26195142445E+02  0.51100000000E-03 0.  1.
         12    1    3    3    0    0 -0.79401666009E+01 -0.40691073045E+01 -0.56754962335E+01  0.10574267701E+02  0.00000000000E+00 0. -1.
</event>
<event>
 7    1  0.7357971E-011  0.4778727E+02  0.7816164E-02  0.1312668E+00
        -11   -1    0    0    0    0  0.00000000000E+00  0.00000000000E+00  0.45593999997E+02  0.45594000000E+02  0.51100000000E-03 0. -1.
         11   -1    0    0    0    0 -0.00000000000E+00 -0.00000000000E+00 -0.45593999997E+02  0.45594000000E+02  0.51100000000E-03 0.  1.
    9900012    2    1    2    0    0 -0.77604873669E+01  0.86807871873E-02 -0.42701265954E+02  0.47787270126E+02  0.19999995814E+02 0.  0.
         12    1    1    2    0    0  0.77604873669E+01 -0.86807871873E-02  0.42701265954E+02  0.43400729874E+02  0.00000000000E+00 0. -1.
         11    1    3    3    0    0 -0.10088772579E+01  0.36757932367E+01 -0.36894855581E+01  0.53048650487E+01  0.51100000000E-03 0.  1.
        -11    1    3    3    0    0 -0.10560412843E+02  0.12096502516E+01 -0.24519798640E+02  0.26724634680E+02  0.51100000000E-03 0. -1.
        -12    1    3    3    0    0  0.38088027344E+01 -0.48767627011E+01 -0.14491981756E+02  0.15757770398E+02  0.00000000000E+00 0.  1.
</event>
<event>
 7    1  0.7357971E-011  0.4778728E+02  0.7816164E-02  0.1312668E+00
        -11   -1    0    0    0    0  0.00000000000E+00  0.00000000000E+00  0.45593999997E+02  0.45594000000E+02  0.51100000000E-03 0. -1.
         11   -1    0    0    0    0 -0.00000000000E+00 -0.00000000000E+00 -0.45593999997E+02  0.45594000000E+02  0.51100000000E-03 0.  1.
    9900012    2    1    2    0    0 -0.14475731555E+02 -0.39697949776E+02 -0.99070096387E+01  0.47787275807E+02  0.20000021715E+02 0.  0.
         12    1    1    2    0    0  0.14475731555E+02  0.39697949776E+02  0.99070096387E+01  0.43400724193E+02  0.00000000000E+00 0. -1.
         11    1    3    3    0    0 -0.64776810395E+01 -0.16990303394E+02 -0.33228571453E+00  0.18186290856E+02  0.51100000000E-03 0. -1.
        -11    1    3    3    0    0  0.12763892480E+01 -0.36960891564E+01  0.30569071435E+01  0.49633583499E+01  0.51100000000E-03 0.  1.
        -12    1    3    3    0    0 -0.92744397636E+01 -0.19011557226E+02 -0.12631631068E+02  0.24637626601E+02  0.00000000000E+00 0.  1.
</event>
<event>
 7    1  0.7357971E-011  0.4778727E+02  0.7816164E-02  0.1312668E+00
        -11   -1    0    0    0    0  0.00000000000E+00  0.00000000000E+00  0.45593999997E+02  0.45594000000E+02  0.51100000000E-03 0. -1.
         11   -1    0    0    0    0 -0.00000000000E+00 -0.00000000000E+00 -0.45593999997E+02  0.45594000000E+02  0.51100000000E-03 0.  1.
    9900012    2    1    2    0    0  0.15649331665E+01  0.62012366024E+01 -0.42926900012E+02  0.47787273095E+02  0.20000009350E+02 0.  0.
         12    1    1    2    0    0 -0.15649331665E+01 -0.62012366024E+01  0.42926900012E+02  0.43400726905E+02  0.00000000000E+00 0. -1.
         11    1    3    3    0    0 -0.36580988259E+01  0.73718114824E+01 -0.32101554483E+02  0.33139630233E+02  0.51100000000E-03 0. -1.
        -11    1    3    3    0    0  0.58505193571E+01 -0.33180310495E+01 -0.10376723178E+02  0.12365851809E+02  0.51100000000E-03 0.  1.
         12    1    3    3    0    0 -0.62748736471E+00  0.21474561695E+01 -0.44862235138E+00  0.22817910525E+01  0.00000000000E+00 0. -1.
</event>
<event>
 7    1  0.7357971E-011  0.4778727E+02  0.7816164E-02  0.1312668E+00
        -11   -1    0    0    0    0  0.00000000000E+00  0.00000000000E+00  0.45593999997E+02  0.45594000000E+02  0.51100000000E-03 0. -1.
         11   -1    0    0    0    0 -0.00000000000E+00 -0.00000000000E+00 -0.45593999997E+02  0.45594000000E+02  0.51100000000E-03 0.  1.
    9900012    2    1    2    0    0  0.24637781506E+02 -0.16458439918E+02 -0.31713130412E+02  0.47787272327E+02  0.20000005847E+02 0.  0.
         12    1    1    2    0    0 -0.24637781506E+02  0.16458439918E+02  0.31713130412E+02  0.43400727673E+02  0.00000000000E+00 0. -1.
         11    1    3    3    0    0  0.80912512461E+01 -0.82005535831E+01 -0.19490846422E+01  0.11684021440E+02  0.51100000000E-03 0. -1.
        -11    1    3    3    0    0  0.74906824502E+01 -0.76985632296E+01 -0.20456446431E+02  0.23105073041E+02  0.51100000000E-03 0.  1.
         12    1    3    3    0    0  0.90558478093E+01 -0.55932310509E+00 -0.93075993382E+01  0.12998177846E+02  0.00000000000E+00 0. -1.
</event>
<event>
 7    1  0.7357971E-011  0.4778727E+02  0.7816164E-02  0.1312668E+00
        -11   -1    0    0    0    0  0.00000000000E+00  0.00000000000E+00  0.45593999997E+02  0.45594000000E+02  0.51100000000E-03 0. -1.
         11   -1    0    0    0    0 -0.00000000000E+00 -0.00000000000E+00 -0.45593999997E+02  0.45594000000E+02  0.51100000000E-03 0.  1.
    9900012    2    1    2    0    0 -0.13945220853E+02  0.32925136662E+02 -0.24598561621E+02  0.47787273708E+02  0.20000012144E+02 0.  0.
         12    1    1    2    0    0  0.13945220853E+02 -0.32925136662E+02  0.24598561621E+02  0.43400726292E+02  0.00000000000E+00 0. -1.
         11    1    3    3    0    0 -0.52227095924E+01  0.17638090152E+01 -0.98135947089E+01  0.11255858879E+02  0.51100000000E-03 0. -1.
        -11    1    3    3    0    0 -0.86448406382E+01  0.24523519719E+02 -0.14746443433E+02  0.29893040716E+02  0.51100000000E-03 0.  1.
         12    1    3    3    0    0 -0.77670622351E-01  0.66378079279E+01 -0.38523479846E-01  0.66383741136E+01  0.00000000000E+00 0. -1.
</event>
<event>
 7    1  0.7357971E-011  0.4778726E+02  0.7816164E-02  0.1312668E+00
        -11   -1    0    0    0    0  0.00000000000E+00  0.00000000000E+00  0.45593999997E+02  0.45594000000E+02  0.51100000000E-03 0. -1.
         11   -1    0    0    0    0 -0.00000000000E+00 -0.00000000000E+00 -0.45593999997E+02  0.45594000000E+02  0.51100000000E-03 0.  1.
    9900012    2    1    2    0    0 -0.17847856379E+02 -0.33868102825E+02 -0.20445772459E+02  0.47787262935E+02  0.19999963027E+02 0.  0.
         12    1    1    2    0    0  0.17847856379E+02  0.33868102825E+02  0.20445772459E+02  0.43400737065E+02  0.00000000000E+00 0. -1.
         11    1    3    3    0    0 -0.25332530191E+01 -0.79502161307E+00  0.26526273050E+01  0.37531136546E+01  0.51100000000E-03 0. -1.
        -11    1    3    3    0    0 -0.75550634633E+01 -0.10376573171E+02 -0.12124944524E+02  0.17656911810E+02  0.51100000000E-03 0.  1.
         12    1    3    3    0    0 -0.77595398964E+01 -0.22696508041E+02 -0.10973455240E+02  0.26377237470E+02  0.00000000000E+00 0. -1.
</event>
<event>
 7    1  0.7357971E-011  0.4778727E+02  0.7816164E-02  0.1312668E+00
        -11   -1    0    0    0    0  0.00000000000E+00  0.00000000000E+00  0.45593999997E+02  0.45594000000E+02  0.51100000000E-03 0. -1.
         11   -1    0    0    0    0 -0.00000000000E+00 -0.00000000000E+00 -0.45593999997E+02  0.45594000000E+02  0.51100000000E-03 0.  1.
    9900012    2    1    2    0    0  0.24681237580E+02 -0.28620159480E+02 -0.21338843770E+02  0.47787271083E+02  0.20000000175E+02 0.  0.
         12    1    1    2    0    0 -0.24681237580E+02  0.28620159480E+02  0.21338843770E+02  0.43400728917E+02  0.00000000000E+00 0. -1.
         11    1    3    3    0    0  0.10506026137E+02 -0.14961438673E+02 -0.31631495245E+01  0.18553348688E+02  0.51100000000E-03 0. -1.
        -11    1    3    3    0    0  0.88851028984E+01 -0.14850275411E+01 -0.41341729516E+01  0.99116974614E+01  0.51100000000E-03 0.  1.
        -12    1    3    3    0    0  0.52901085445E+01 -0.12173693266E+02 -0.14041521294E+02  0.19322224933E+02  0.00000000000E+00 0.  1.
</event>
<event>
 7    1  0.7357971E-011  0.4778726E+02  0.7816164E-02  0.1312668E+00
        -11   -1    0    0    0    0  0.00000000000E+00  0.00000000000E+00  0.45593999997E+02  0.45594000000E+02  0.51100000000E-03 0. -1.
         11   -1    0    0    0    0 -0.00000000000E+00 -0.00000000000E+00 -0.45593999997E+02  0.45594000000E+02  0.51100000000E-03 0.  1.
    9900012    2    1    2    0    0 -0.22362607886E+02 -0.35920087845E+02 -0.96584283858E+01  0.47787260592E+02  0.19999952345E+02 0.  0.
         12    1    1    2    0    0  0.22362607886E+02  0.35920087845E+02  0.96584283858E+01  0.43400739408E+02  0.00000000000E+00 0. -1.
         11    1    3    3    0    0  0.33074807483E+01 -0.53387463859E+01 -0.12659874599E+01  0.64065877332E+01  0.51100000000E-03 0. -1.
        -11    1    3    3    0    0 -0.19126643430E+02 -0.22412396740E+02 -0.30279503122E+01  0.29619461505E+02  0.51100000000E-03 0.  1.
         12    1    3    3    0    0 -0.65434452046E+01 -0.81689447191E+01 -0.53644906137E+01  0.11761211354E+02  0.00000000000E+00 0. -1.
</event>
<event>
 7    1  0.7357971E-011  0.4778727E+02  0.7816164E-02  0.1312668E+00
        -11   -1    0    0    0    0  0.00000000000E+00  0.00000000000E+00  0.45593999997E+02  0.45594000000E+02  0.51100000000E-03 0. -1.
         11   -1    0    0    0    0 -0.00000000000E+00 -0.00000000000E+00 -0.45593999997E+02  0.45594000000E+02  0.51100000000E-03 0.  1.
    9900012    2    1    2    0    0  0.27656122172E+01 -0.93712728077E+01  0.42286571653E+02  0.47787268357E+02  0.19999987748E+02 0.  0.
        -12    1    1    2    0    0 -0.27656122172E+01  0.93712728077E+01 -0.42286571653E+02  0.43400731643E+02  0.00000000000E+00 0.  1.
         11    1    3    3    0    0 -0.62966525274E+01 -0.89130066917E+01  0.15738396431E+02  0.19151674700E+02  0.51100000000E-03 0. -1.
        -11    1    3    3    0    0  0.28521471207E+01  0.25535268170E+01  0.97755624600E+01  0.10498421980E+02  0.51100000000E-03 0.  1.
         12    1    3    3    0    0  0.62101176239E+01 -0.30117929330E+01  0.16772612762E+02  0.18137171677E+02  0.00000000000E+00 0. -1.
</event>
<event>
 7    1  0.7357971E-011  0.4778727E+02  0.7816164E-02  0.1312668E+00
        -11   -1    0    0    0    0  0.00000000000E+00  0.00000000000E+00  0.45593999997E+02  0.45594000000E+02  0.51100000000E-03 0. -1.
         11   -1    0    0    0    0 -0.00000000000E+00 -0.00000000000E+00 -0.45593999997E+02  0.45594000000E+02  0.51100000000E-03 0.  1.
    9900012    2    1    2    0    0  0.21725757688E+02 -0.22974477267E+02  0.29728571336E+02  0.47787272973E+02  0.20000008794E+02 0.  0.
        -12    1    1    2    0    0 -0.21725757688E+02  0.22974477267E+02 -0.29728571336E+02  0.43400727027E+02  0.00000000000E+00 0.  1.
         11    1    3    3    0    0  0.59634274933E+01  0.15117505689E+01  0.86526412363E+01  0.10616781898E+02  0.51100000000E-03 0. -1.
        -11    1    3    3    0    0  0.51106572707E+01 -0.12887898987E+02  0.51945913240E+01  0.14805422565E+02  0.51100000000E-03 0.  1.
        -12    1    3    3    0    0  0.10651672924E+02 -0.11598328848E+02  0.15881338776E+02  0.22365068510E+02  0.00000000000E+00 0.  1.
</event>
<event>
 7    1  0.7357971E-011  0.4778727E+02  0.7816164E-02  0.1312668E+00
        -11   -1    0    0    0    0  0.00000000000E+00  0.00000000000E+00  0.45593999997E+02  0.45594000000E+02  0.51100000000E-03 0. -1.
         11   -1    0    0    0    0 -0.00000000000E+00 -0.00000000000E+00 -0.45593999997E+02  0.45594000000E+02  0.51100000000E-03 0.  1.
    9900012    2    1    2    0    0  0.13751486155E+02 -0.17065214052E+02  0.37460628128E+02  0.47787267727E+02  0.19999984874E+02 0.  0.
        -12    1    1    2    0    0 -0.13751486155E+02  0.17065214052E+02 -0.37460628128E+02  0.43400732273E+02  0.00000000000E+00 0.  1.
         11    1    3    3    0    0  0.57044984608E+01 -0.12267184709E+02  0.11073252595E+02  0.17482621276E+02  0.51100000000E-03 0. -1.
        -11    1    3    3    0    0  0.16361008375E+01 -0.42969799784E+01  0.22106495634E+02  0.22579592830E+02  0.51100000000E-03 0.  1.
        -12    1    3    3    0    0  0.64108868564E+01 -0.50104936541E+00  0.42808798984E+01  0.77250536216E+01  0.00000000000E+00 0.  1.
</event>
<event>
 7    1  0.7357971E-011  0.4778724E+02  0.7816164E-02  0.1312668E+00
        -11   -1    0    0    0    0  0.00000000000E+00  0.00000000000E+00  0.45593999997E+02  0.45594000000E+02  0.51100000000E-03 0. -1.
         11   -1    0    0    0    0 -0.00000000000E+00 -0.00000000000E+00 -0.45593999997E+02  0.45594000000E+02  0.51100000000E-03 0.  1.
    9900012    2    1    2    0    0 -0.12054248771E+02  0.29698569347E+02  0.29262879846E+02  0.47787238813E+02  0.19999853044E+02 0.  0.
        -12    1    1    2    0    0  0.12054248771E+02 -0.29698569347E+02 -0.29262879846E+02  0.43400761187E+02  0.00000000000E+00 0.  1.
         11    1    3    3    0    0 -0.13695296766E+02  0.12865604403E+02  0.16957897323E+02  0.25311167733E+02  0.51100000000E-03 0. -1.
        -11    1    3    3    0    0  0.46242145020E+01  0.99031955341E+01  0.51650836969E+01  0.12088619913E+02  0.51100000000E-03 0.  1.
         12    1    3    3    0    0 -0.29831665078E+01  0.69297694099E+01  0.71398988264E+01  0.10387451167E+02  0.00000000000E+00 0. -1.
</event>
<event>
 7    1  0.7357971E-011  0.4778727E+02  0.7816164E-02  0.1312668E+00
        -11   -1    0    0    0    0  0.00000000000E+00  0.00000000000E+00  0.45593999997E+02  0.45594000000E+02  0.51100000000E-03 0. -1.
         11   -1    0    0    0    0 -0.00000000000E+00 -0.00000000000E+00 -0.45593999997E+02  0.45594000000E+02  0.51100000000E-03 0.  1.
    9900012    2    1    2    0    0 -0.17758439517E+02 -0.18087601515E+02  0.35229245729E+02  0.47787271236E+02  0.20000000872E+02 0.  0.
        -12    1    1    2    0    0  0.17758439517E+02  0.18087601515E+02 -0.35229245729E+02  0.43400728764E+02  0.00000000000E+00 0.  1.
         11    1    3    3    0    0 -0.90727177193E+01 -0.86313305712E+01  0.33134600077E+01  0.12953497278E+02  0.51100000000E-03 0. -1.
        -11    1    3    3    0    0 -0.62104627184E+01 -0.69181433077E+01  0.28222320235E+02  0.29714136598E+02  0.51100000000E-03 0.  1.
         12    1    3    3    0    0 -0.24752590797E+01 -0.25381276358E+01  0.36934654857E+01  0.51196373603E+01  0.00000000000E+00 0. -1.
</event>
<event>
 7    1  0.7357971E-011  0.4778726E+02  0.7816164E-02  0.1312668E+00
        -11   -1    0    0    0    0  0.00000000000E+00  0.00000000000E+00  0.45593999997E+02  0.45594000000E+02  0.51100000000E-03 0. -1.
         11   -1    0    0    0    0 -0.00000000000E+00 -0.00000000000E+00 -0.45593999997E+02  0.45594000000E+02  0.51100000000E-03 0.  1.
    9900012    2    1    2    0    0  0.98223447325E+01 -0.28140204218E+02 -0.31547969348E+02  0.47787263607E+02  0.19999966088E+02 0.  0.
         12    1    1    2    0    0 -0.98223447325E+01  0.28140204218E+02  0.31547969348E+02  0.43400736393E+02  0.00000000000E+00 0. -1.
         11    1    3    3    0    0  0.12157612301E+02 -0.10035183898E+02 -0.12552769179E+02  0.20151537585E+02  0.51100000000E-03 0. -1.
        -11    1    3    3    0    0  0.29264021760E+00 -0.13386243586E+02 -0.17493788609E+02  0.22029747973E+02  0.51100000000E-03 0.  1.
         12    1    3    3    0    0 -0.26279077859E+01 -0.47187767343E+01 -0.15014115612E+01  0.56059780481E+01  0.00000000000E+00 0. -1.
</event>
<event>
 7    1  0.7357971E-011  0.4778727E+02  0.7816164E-02  0.1312668E+00
        -11   -1    0    0    0    0  0.00000000000E+00  0.00000000000E+00  0.45593999997E+02  0.45594000000E+02  0.51100000000E-03 0. -1.
         11   -1    0    0    0    0 -0.00000000000E+00 -0.00000000000E+00 -0.45593999997E+02  0.45594000000E+02  0.51100000000E-03 0.  1.
    9900012    2    1    2    0    0  0.26465574898E+02 -0.72326160681E+01  0.33628641831E+02  0.47787274876E+02  0.20000017469E+02 0.  0.
        -12    1    1    2    0    0 -0.26465574898E+02  0.72326160681E+01 -0.33628641831E+02  0.43400725124E+02  0.00000000000E+00 0.  1.
         11    1    3    3    0    0  0.26264442882E+02 -0.58732382975E+01  0.22401525338E+02  0.35016342266E+02  0.51100000000E-03 0. -1.
        -11    1    3    3    0    0 -0.16383696829E+01  0.15662676532E+01  0.24484467169E+01  0.33365163218E+01  0.51100000000E-03 0.  1.
         12    1    3    3    0    0  0.18395016995E+01 -0.29256454237E+01  0.87786697766E+01  0.94344162879E+01  0.00000000000E+00 0. -1.
</event>
<event>
 7    1  0.7357971E-011  0.4778728E+02  0.7816164E-02  0.1312668E+00
        -11   -1    0    0    0    0  0.00000000000E+00  0.00000000000E+00  0.45593999997E+02  0.45594000000E+02  0.51100000000E-03 0. -1.
         11   -1    0    0    0    0 -0.00000000000E+00 -0.00000000000E+00 -0.45593999997E+02  0.45594000000E+02  0.51100000000E-03 0.  1.
    9900012    2    1    2    0    0 -0.39345844301E+00 -0.23921771747E+02  0.36210724523E+02  0.47787279459E+02  0.20000038363E+02 0.  0.
        -12    1    1    2    0    0  0.39345844301E+00  0.23921771747E+02 -0.36210724523E+02  0.43400720541E+02  0.00000000000E+00 0.  1.
         11    1    3    3    0    0  0.35091116939E+01  0.15100210024E+01  0.96038642906E+01  0.10335774663E+02  0.51100000000E-03 0.  1.
        -11    1    3    3    0    0 -0.53863989448E+00 -0.22454697336E+01  0.53067485306E+01  0.57873869309E+01  0.51100000000E-03 0. -1.
         12    1    3    3    0    0 -0.33639302424E+01 -0.23186323015E+02  0.21300111702E+02  0.31664117865E+02  0.00000000000E+00 0. -1.
</event>
<event>
 7    1  0.7357971E-011  0.4778727E+02  0.7816164E-02  0.1312668E+00
        -11   -1    0    0    0    0  0.00000000000E+00  0.00000000000E+00  0.45593999997E+02  0.45594000000E+02  0.51100000000E-03 0.  1.
         11   -1    0    0    0    0 -0.00000000000E+00 -0.00000000000E+00 -0.45593999997E+02  0.45594000000E+02  0.51100000000E-03 0. -1.
    9900012    2    1    2    0    0  0.27329844020E+02 -0.35018685112E+01 -0.33532666172E+02  0.47787272381E+02  0.20000006093E+02 0.  0.
         12    1    1    2    0    0 -0.27329844020E+02  0.35018685112E+01  0.33532666172E+02  0.43400727619E+02  0.00000000000E+00 0. -1.
         11    1    3    3    0    0  0.48725189205E+01 -0.33075784496E+00 -0.20824570471E+02  0.21389567012E+02  0.51100000000E-03 0. -1.
        -11    1    3    3    0    0  0.17846450484E+02 -0.10938479168E+01 -0.11287639635E+02  0.21144812767E+02  0.51100000000E-03 0.  1.
        -12    1    3    3    0    0  0.46108746158E+01 -0.20772627495E+01 -0.14204560658E+01  0.52528926020E+01  0.00000000000E+00 0.  1.
</event>
<event>
 7    1  0.7357971E-011  0.4778727E+02  0.7816164E-02  0.1312668E+00
        -11   -1    0    0    0    0  0.00000000000E+00  0.00000000000E+00  0.45593999997E+02  0.45594000000E+02  0.51100000000E-03 0. -1.
         11   -1    0    0    0    0 -0.00000000000E+00 -0.00000000000E+00 -0.45593999997E+02  0.45594000000E+02  0.51100000000E-03 0.  1.
    9900012    2    1    2    0    0 -0.21267912317E+02  0.19649542957E+02 -0.32329467622E+02  0.47787272939E+02  0.20000008637E+02 0.  0.
         12    1    1    2    0    0  0.21267912317E+02 -0.19649542957E+02  0.32329467622E+02  0.43400727061E+02  0.00000000000E+00 0. -1.
         11    1    3    3    0    0 -0.36881589280E+01  0.31320127490E+01 -0.10673700980E+01  0.49549267729E+01  0.51100000000E-03 0. -1.
        -11    1    3    3    0    0 -0.12710336885E+02  0.14782165473E+02 -0.12008652823E+02  0.22897004667E+02  0.51100000000E-03 0.  1.
        -12    1    3    3    0    0 -0.48694165036E+01  0.17353647351E+01 -0.19253444701E+02  0.19935341499E+02  0.00000000000E+00 0.  1.
</event>
<event>
 7    1  0.7357971E-011  0.4778727E+02  0.7816164E-02  0.1312668E+00
        -11   -1    0    0    0    0  0.00000000000E+00  0.00000000000E+00  0.45593999997E+02  0.45594000000E+02  0.51100000000E-03 0. -1.
         11   -1    0    0    0    0 -0.00000000000E+00 -0.00000000000E+00 -0.45593999997E+02  0.45594000000E+02  0.51100000000E-03 0.  1.
    9900012    2    1    2    0    0 -0.23861778891E+02  0.17661917937E+00 -0.36251997958E+02  0.47787273714E+02  0.20000012174E+02 0.  0.
         12    1    1    2    0    0  0.23861778891E+02 -0.17661917937E+00  0.36251997958E+02  0.43400726286E+02  0.00000000000E+00 0. -1.
         11    1    3    3    0    0  0.59326307184E-01 -0.45476287670E+01 -0.66972152007E+01  0.80955011407E+01  0.51100000000E-03 0. -1.
        -11    1    3    3    0    0 -0.24526117842E+02  0.34349745215E+01 -0.29066395861E+02  0.38186186965E+02  0.51100000000E-03 0.  1.
        -12    1    3    3    0    0  0.60501264389E+00  0.12892734249E+01 -0.48838689667E+00  0.15055856085E+01  0.00000000000E+00 0.  1.
</event>
<event>
 7    1  0.7357971E-011  0.4778727E+02  0.7816164E-02  0.1312668E+00
        -11   -1    0    0    0    0  0.00000000000E+00  0.00000000000E+00  0.45593999997E+02  0.45594000000E+02  0.51100000000E-03 0. -1.
         11   -1    0    0    0    0 -0.00000000000E+00 -0.00000000000E+00 -0.45593999997E+02  0.45594000000E+02  0.51100000000E-03 0.  1.
    9900012    2    1    2    0    0  0.85528147729E+01 -0.10984894769E+02  0.41107235876E+02  0.47787269649E+02  0.19999993639E+02 0.  0.
        -12    1    1    2    0    0 -0.85528147729E+01  0.10984894769E+02 -0.41107235876E+02  0.43400730351E+02  0.00000000000E+00 0.  1.
         11    1    3    3    0    0  0.34045659063E+00 -0.40350150368E+01  0.47914002630E+01  0.62733383281E+01  0.51100000000E-03 0. -1.
        -11    1    3    3    0    0 -0.53147825130E+00  0.21842188218E+01 -0.73483050570E+00  0.23650067920E+01  0.51100000000E-03 0.  1.
        -12    1    3    3    0    0  0.87438364336E+01 -0.91340985543E+01  0.37050666118E+02  0.39148924529E+02  0.00000000000E+00 0.  1.
</event>
<event>
 7    1  0.7357971E-011  0.4778727E+02  0.7816164E-02  0.1312668E+00
        -11   -1    0    0    0    0  0.00000000000E+00  0.00000000000E+00  0.45593999997E+02  0.45594000000E+02  0.51100000000E-03 0. -1.
         11   -1    0    0    0    0 -0.00000000000E+00 -0.00000000000E+00 -0.45593999997E+02  0.45594000000E+02  0.51100000000E-03 0.  1.
    9900012    2    1    2    0    0  0.25565744429E+02  0.86200764442E+01 -0.33995741236E+02  0.47787269266E+02  0.19999991891E+02 0.  0.
         12    1    1    2    0    0 -0.25565744429E+02 -0.86200764442E+01  0.33995741236E+02  0.43400730734E+02  0.00000000000E+00 0. -1.
         11    1    3    3    0    0  0.17008813886E+02 -0.49279331461E+00 -0.12276617833E+02  0.20982324484E+02  0.51100000000E-03 0. -1.
        -11    1    3    3    0    0  0.96627451211E+01  0.52515491537E+01 -0.19004118751E+02  0.21956865476E+02  0.51100000000E-03 0.  1.
         12    1    3    3    0    0 -0.11058145783E+01  0.38613206051E+01 -0.27150046517E+01  0.48480793059E+01  0.00000000000E+00 0. -1.
</event>
<event>
 7    1  0.7357971E-011  0.4778727E+02  0.7816164E-02  0.1312668E+00
        -11   -1    0    0    0    0  0.00000000000E+00  0.00000000000E+00  0.45593999997E+02  0.45594000000E+02  0.51100000000E-03 0.  1.
         11   -1    0    0    0    0 -0.00000000000E+00 -0.00000000000E+00 -0.45593999997E+02  0.45594000000E+02  0.51100000000E-03 0. -1.
    9900012    2    1    2    0    0 -0.28083511282E+02  0.32996312975E+02 -0.24864999850E+01  0.47787274683E+02  0.20000016589E+02 0.  0.
         12    1    1    2    0    0  0.28083511282E+02 -0.32996312975E+02  0.24864999850E+01  0.43400725317E+02  0.00000000000E+00 0. -1.
         11    1    3    3    0    0 -0.77466352148E+01  0.10161409856E+01  0.26055285662E+01  0.82359989694E+01  0.51100000000E-03 0. -1.
        -11    1    3    3    0    0 -0.18591416620E+02  0.32070202813E+02 -0.60474142756E+01  0.37559418260E+02  0.51100000000E-03 0.  1.
        -12    1    3    3    0    0 -0.17454594471E+01 -0.90030823051E-01  0.95538572433E+00  0.19918574529E+01  0.00000000000E+00 0.  1.
</event>
<event>
 7    1  0.7357971E-011  0.4778728E+02  0.7816164E-02  0.1312668E+00
        -11   -1    0    0    0    0  0.00000000000E+00  0.00000000000E+00  0.45593999997E+02  0.45594000000E+02  0.51100000000E-03 0. -1.
         11   -1    0    0    0    0 -0.00000000000E+00 -0.00000000000E+00 -0.45593999997E+02  0.45594000000E+02  0.51100000000E-03 0.  1.
    9900012    2    1    2    0    0 -0.43567323145E+01 -0.22250383084E+02  0.37007589217E+02  0.47787281993E+02  0.20000049919E+02 0.  0.
        -12    1    1    2    0    0  0.43567323145E+01  0.22250383084E+02 -0.37007589217E+02  0.43400718007E+02  0.00000000000E+00 0.  1.
         11    1    3    3    0    0 -0.11262154746E+01 -0.59405839734E+01  0.76826060130E+01  0.97765707000E+01  0.51100000000E-03 0. -1.
        -11    1    3    3    0    0 -0.61258990349E+01 -0.14027079185E+02  0.98774091379E+01  0.18216717624E+02  0.51100000000E-03 0.  1.
        -12    1    3    3    0    0  0.28953821950E+01 -0.22827199257E+01  0.19447574066E+02  0.19793993669E+02  0.00000000000E+00 0.  1.
</event>
<event>
 7    1  0.7357971E-011  0.4778726E+02  0.7816164E-02  0.1312668E+00
        -11   -1    0    0    0    0  0.00000000000E+00  0.00000000000E+00  0.45593999997E+02  0.45594000000E+02  0.51100000000E-03 0. -1.
         11   -1    0    0    0    0 -0.00000000000E+00 -0.00000000000E+00 -0.45593999997E+02  0.45594000000E+02  0.51100000000E-03 0.  1.
    9900012    2    1    2    0    0  0.42342220985E+02 -0.95234882176E+01  0.25281036210E+00  0.47787257854E+02  0.19999939860E+02 0.  0.
        -12    1    1    2    0    0 -0.42342220985E+02  0.95234882176E+01 -0.25281036210E+00  0.43400742146E+02  0.00000000000E+00 0.  1.
         11    1    3    3    0    0  0.33267280196E+02 -0.12458253553E+02 -0.16897556322E+01  0.35563679331E+02  0.51100000000E-03 0. -1.
        -11    1    3    3    0    0  0.80076733939E+01  0.51974480654E+01  0.18225036169E+01  0.97189412628E+01  0.51100000000E-03 0.  1.
        -12    1    3    3    0    0  0.10672673951E+01 -0.22626827305E+01  0.12006237731E+00  0.25046372604E+01  0.00000000000E+00 0.  1.
</event>
<event>
 7    1  0.7357971E-011  0.4778727E+02  0.7816164E-02  0.1312668E+00
        -11   -1    0    0    0    0  0.00000000000E+00  0.00000000000E+00  0.45593999997E+02  0.45594000000E+02  0.51100000000E-03 0. -1.
         11   -1    0    0    0    0 -0.00000000000E+00 -0.00000000000E+00 -0.45593999997E+02  0.45594000000E+02  0.51100000000E-03 0.  1.
    9900012    2    1    2    0    0  0.30369398922E+02  0.22199438010E+02 -0.21645042442E+02  0.47787270730E+02  0.19999998568E+02 0.  0.
         12    1    1    2    0    0 -0.30369398922E+02 -0.22199438010E+02  0.21645042442E+02  0.43400729270E+02  0.00000000000E+00 0. -1.
         11    1    3    3    0    0  0.28368337244E+01  0.36824400576E+01 -0.43815344907E+01  0.63879445139E+01  0.51100000000E-03 0. -1.
        -11    1    3    3    0    0  0.12634846097E+02  0.18730734274E+02 -0.12105803342E+02  0.25632600671E+02  0.51100000000E-03 0.  1.
         12    1    3    3    0    0  0.14897719100E+02 -0.21373632174E+00 -0.51577046093E+01  0.15766725546E+02  0.00000000000E+00 0. -1.
</event>
<event>
 7    1  0.7357971E-011  0.4778727E+02  0.7816164E-02  0.1312668E+00
        -11   -1    0    0    0    0  0.00000000000E+00  0.00000000000E+00  0.45593999997E+02  0.45594000000E+02  0.51100000000E-03 0. -1.
         11   -1    0    0    0    0 -0.00000000000E+00 -0.00000000000E+00 -0.45593999997E+02  0.45594000000E+02  0.51100000000E-03 0.  1.
    9900012    2    1    2    0    0  0.29638067540E+01 -0.35877869853E+02 -0.24240818288E+02  0.47787274580E+02  0.20000016122E+02 0.  0.
         12    1    1    2    0    0 -0.29638067540E+01  0.35877869853E+02  0.24240818288E+02  0.43400725420E+02  0.00000000000E+00 0. -1.
         11    1    3    3    0    0  0.45052793424E+01 -0.17956840381E+02 -0.45926222539E+01  0.19074533751E+02  0.51100000000E-03 0. -1.
        -11    1    3    3    0    0 -0.43122784215E+01 -0.15633376674E+02 -0.19135540888E+02  0.25083204276E+02  0.51100000000E-03 0.  1.
        -12    1    3    3    0    0  0.27708058330E+01 -0.22876527982E+01 -0.51265514627E+00  0.36295365528E+01  0.00000000000E+00 0.  1.
</event>
<event>
 7    1  0.7357971E-011  0.4778727E+02  0.7816164E-02  0.1312668E+00
        -11   -1    0    0    0    0  0.00000000000E+00  0.00000000000E+00  0.45593999997E+02  0.45594000000E+02  0.51100000000E-03 0. -1.
         11   -1    0    0    0    0 -0.00000000000E+00 -0.00000000000E+00 -0.45593999997E+02  0.45594000000E+02  0.51100000000E-03 0.  1.
    9900012    2    1    2    0    0 -0.16308371464E+02 -0.34431794101E+02  0.20787300504E+02  0.47787270893E+02  0.19999999308E+02 0.  0.
        -12    1    1    2    0    0  0.16308371464E+02  0.34431794101E+02 -0.20787300504E+02  0.43400729107E+02  0.00000000000E+00 0.  1.
         11    1    3    3    0    0 -0.15880222552E+02 -0.35116457262E+02  0.18616854413E+02  0.42801101708E+02  0.51100000000E-03 0. -1.
        -11    1    3    3    0    0  0.15304023602E+01  0.15483558567E+01  0.17760432805E+01  0.28096026834E+01  0.51100000000E-03 0.  1.
         12    1    3    3    0    0 -0.19585512718E+01 -0.86369269573E+00  0.39440281073E+00  0.21765665012E+01  0.00000000000E+00 0. -1.
</event>
<event>
 7    1  0.7357971E-011  0.4778727E+02  0.7816164E-02  0.1312668E+00
        -11   -1    0    0    0    0  0.00000000000E+00  0.00000000000E+00  0.45593999997E+02  0.45594000000E+02  0.51100000000E-03 0. -1.
         11   -1    0    0    0    0 -0.00000000000E+00 -0.00000000000E+00 -0.45593999997E+02  0.45594000000E+02  0.51100000000E-03 0.  1.
    9900012    2    1    2    0    0  0.14305869597E+02 -0.13376059825E+02 -0.38730435888E+02  0.47787267916E+02  0.19999985735E+02 0.  0.
         12    1    1    2    0    0 -0.14305869597E+02  0.13376059825E+02  0.38730435888E+02  0.43400732084E+02  0.00000000000E+00 0. -1.
         11    1    3    3    0    0  0.59906416630E+01 -0.12242840287E+01 -0.10979583688E+02  0.12567335324E+02  0.51100000000E-03 0. -1.
        -11    1    3    3    0    0  0.81627749783E+01 -0.14631176892E+02 -0.28095793619E+02  0.32712013878E+02  0.51100000000E-03 0.  1.
        -12    1    3    3    0    0  0.15245295570E+00  0.24794010953E+01  0.34494141922E+00  0.25079187143E+01  0.00000000000E+00 0.  1.
</event>
<event>
 7    1  0.7357971E-011  0.4778727E+02  0.7816164E-02  0.1312668E+00
        -11   -1    0    0    0    0  0.00000000000E+00  0.00000000000E+00  0.45593999997E+02  0.45594000000E+02  0.51100000000E-03 0. -1.
         11   -1    0    0    0    0 -0.00000000000E+00 -0.00000000000E+00 -0.45593999997E+02  0.45594000000E+02  0.51100000000E-03 0.  1.
    9900012    2    1    2    0    0  0.25013024828E+02  0.20876730500E+02 -0.28672879898E+02  0.47787270409E+02  0.19999997102E+02 0.  0.
         12    1    1    2    0    0 -0.25013024828E+02 -0.20876730500E+02  0.28672879898E+02  0.43400729591E+02  0.00000000000E+00 0. -1.
         11    1    3    3    0    0 -0.90429966658E+00  0.95487703601E+01 -0.61259018235E+01  0.11380836818E+02  0.51100000000E-03 0. -1.
        -11    1    3    3    0    0  0.16911677565E+02  0.77865721533E+01 -0.12310896967E+02  0.22320253770E+02  0.51100000000E-03 0.  1.
         12    1    3    3    0    0  0.90056469288E+01  0.35413879865E+01 -0.10236081108E+02  0.14086179820E+02  0.00000000000E+00 0. -1.
</event>
<event>
 7    1  0.7357971E-011  0.4778727E+02  0.7816164E-02  0.1312668E+00
        -11   -1    0    0    0    0  0.00000000000E+00  0.00000000000E+00  0.45593999997E+02  0.45594000000E+02  0.51100000000E-03 0. -1.
         11   -1    0    0    0    0 -0.00000000000E+00 -0.00000000000E+00 -0.45593999997E+02  0.45594000000E+02  0.51100000000E-03 0.  1.
    9900012    2    1    2    0    0 -0.14770496704E+02 -0.17779499458E+02  0.36733432690E+02  0.47787271307E+02  0.20000001199E+02 0.  0.
        -12    1    1    2    0    0  0.14770496704E+02  0.17779499458E+02 -0.36733432690E+02  0.43400728693E+02  0.00000000000E+00 0.  1.
         11    1    3    3    0    0 -0.18254701822E+02 -0.15469826030E+02  0.26674126595E+02  0.35833764606E+02  0.51100000000E-03 0. -1.
        -11    1    3    3    0    0  0.43143939061E+01 -0.30713696224E+01  0.77875497494E+01  0.94177087179E+01  0.51100000000E-03 0.  1.
         12    1    3    3    0    0 -0.83018878867E+00  0.76169619453E+00  0.22717563455E+01  0.25357979831E+01  0.00000000000E+00 0. -1.
</event>
<event>
 7    1  0.7357971E-011  0.4778727E+02  0.7816164E-02  0.1312668E+00
        -11   -1    0    0    0    0  0.00000000000E+00  0.00000000000E+00  0.45593999997E+02  0.45594000000E+02  0.51100000000E-03 0. -1.
         11   -1    0    0    0    0 -0.00000000000E+00 -0.00000000000E+00 -0.45593999997E+02  0.45594000000E+02  0.51100000000E-03 0.  1.
    9900012    2    1    2    0    0 -0.15419895922E+01  0.30330434903E+02 -0.31005003622E+02  0.47787271171E+02  0.20000000575E+02 0.  0.
         12    1    1    2    0    0  0.15419895922E+01 -0.30330434903E+02  0.31005003622E+02  0.43400728829E+02  0.00000000000E+00 0. -1.
         11    1    3    3    0    0 -0.10612154987E+02  0.15418022069E+02 -0.14114952054E+02  0.23442805074E+02  0.51100000000E-03 0. -1.
        -11    1    3    3    0    0  0.52430615238E+01  0.74625749931E+01 -0.95881909116E+01  0.13233031583E+02  0.51100000000E-03 0.  1.
         12    1    3    3    0    0  0.38271038707E+01  0.74498378414E+01 -0.73018606561E+01  0.11111434513E+02  0.00000000000E+00 0. -1.
</event>
<event>
 7    1  0.7357971E-011  0.4778728E+02  0.7816164E-02  0.1312668E+00
        -11   -1    0    0    0    0  0.00000000000E+00  0.00000000000E+00  0.45593999997E+02  0.45594000000E+02  0.51100000000E-03 0. -1.
         11   -1    0    0    0    0 -0.00000000000E+00 -0.00000000000E+00 -0.45593999997E+02  0.45594000000E+02  0.51100000000E-03 0.  1.
    9900012    2    1    2    0    0 -0.35513226997E+02  0.62356121349E+01  0.24156795446E+02  0.47787275160E+02  0.20000018766E+02 0.  0.
        -12    1    1    2    0    0  0.35513226997E+02 -0.62356121349E+01 -0.24156795446E+02  0.43400724840E+02  0.00000000000E+00 0.  1.
         11    1    3    3    0    0  0.25404075648E+00  0.42854870319E+01  0.26169476267E+01  0.50277580440E+01  0.51100000000E-03 0. -1.
        -11    1    3    3    0    0 -0.29184331611E+02  0.13968531723E+01  0.13043225600E+02  0.31996908361E+02  0.51100000000E-03 0.  1.
        -12    1    3    3    0    0 -0.65829361419E+01  0.55327193064E+00  0.84966222190E+01  0.10762608755E+02  0.00000000000E+00 0.  1.
</event>
<event>
 7    1  0.7357971E-011  0.4778727E+02  0.7816164E-02  0.1312668E+00
        -11   -1    0    0    0    0  0.00000000000E+00  0.00000000000E+00  0.45593999997E+02  0.45594000000E+02  0.51100000000E-03 0. -1.
         11   -1    0    0    0    0 -0.00000000000E+00 -0.00000000000E+00 -0.45593999997E+02  0.45594000000E+02  0.51100000000E-03 0.  1.
    9900012    2    1    2    0    0 -0.10511246039E+02 -0.15593267384E+02  0.39115048342E+02  0.47787270884E+02  0.19999999267E+02 0.  0.
        -12    1    1    2    0    0  0.10511246039E+02  0.15593267384E+02 -0.39115048342E+02  0.43400729116E+02  0.00000000000E+00 0.  1.
         11    1    3    3    0    0 -0.42755496415E+00 -0.90532040887E+01  0.11100328002E+02  0.14330407863E+02  0.51100000000E-03 0. -1.
        -11    1    3    3    0    0 -0.62134572795E+00  0.19393658572E+01  0.15463902554E+02  0.15597419431E+02  0.51100000000E-03 0.  1.
        -12    1    3    3    0    0 -0.94623453468E+01 -0.84794291525E+01  0.12550817787E+02  0.17859443589E+02  0.00000000000E+00 0.  1.
</event>
<event>
 7    1  0.7357971E-011  0.4778728E+02  0.7816164E-02  0.1312668E+00
        -11   -1    0    0    0    0  0.00000000000E+00  0.00000000000E+00  0.45593999997E+02  0.45594000000E+02  0.51100000000E-03 0. -1.
         11   -1    0    0    0    0 -0.00000000000E+00 -0.00000000000E+00 -0.45593999997E+02  0.45594000000E+02  0.51100000000E-03 0.  1.
    9900012    2    1    2    0    0 -0.29187736089E+02 -0.23043707454E+02 -0.22376024611E+02  0.47787275713E+02  0.20000021288E+02 0.  0.
         12    1    1    2    0    0  0.29187736089E+02  0.23043707454E+02  0.22376024611E+02  0.43400724287E+02  0.00000000000E+00 0. -1.
         11    1    3    3    0    0 -0.13883343172E+01 -0.46168980343E+01  0.57612490326E+00  0.48554237509E+01  0.51100000000E-03 0. -1.
        -11    1    3    3    0    0 -0.16159144265E+02 -0.61321905013E+01 -0.18722964736E+02  0.25480798898E+02  0.51100000000E-03 0.  1.
        -12    1    3    3    0    0 -0.11640257508E+02 -0.12294618918E+02 -0.42291847782E+01  0.17451053065E+02  0.00000000000E+00 0.  1.
</event>
<event>
 7    1  0.7357971E-011  0.4778727E+02  0.7816164E-02  0.1312668E+00
        -11   -1    0    0    0    0  0.00000000000E+00  0.00000000000E+00  0.45593999997E+02  0.45594000000E+02  0.51100000000E-03 0. -1.
         11   -1    0    0    0    0 -0.00000000000E+00 -0.00000000000E+00 -0.45593999997E+02  0.45594000000E+02  0.51100000000E-03 0.  1.
    9900012    2    1    2    0    0 -0.30398215281E+02  0.12112794634E+02  0.28510556524E+02  0.47787272824E+02  0.20000008114E+02 0.  0.
        -12    1    1    2    0    0  0.30398215281E+02 -0.12112794634E+02 -0.28510556524E+02  0.43400727176E+02  0.00000000000E+00 0.  1.
         11    1    3    3    0    0 -0.32248589790E+02  0.13384456936E+02  0.27742015786E+02  0.44595231483E+02  0.51100000000E-03 0. -1.
        -11    1    3    3    0    0  0.14484871398E+01  0.20124256990E+00  0.79608883659E+00  0.16650439223E+01  0.51100000000E-03 0.  1.
         12    1    3    3    0    0  0.40188736936E+00 -0.14729048721E+01 -0.27548097828E-01  0.15269974190E+01  0.00000000000E+00 0. -1.
</event>
<event>
 7    1  0.7357971E-011  0.4778727E+02  0.7816164E-02  0.1312668E+00
        -11   -1    0    0    0    0  0.00000000000E+00  0.00000000000E+00  0.45593999997E+02  0.45594000000E+02  0.51100000000E-03 0. -1.
         11   -1    0    0    0    0 -0.00000000000E+00 -0.00000000000E+00 -0.45593999997E+02  0.45594000000E+02  0.51100000000E-03 0.  1.
    9900012    2    1    2    0    0 -0.28694297749E+02  0.27247488542E+02  0.17827938192E+02  0.47787265728E+02  0.19999975762E+02 0.  0.
        -12    1    1    2    0    0  0.28694297749E+02 -0.27247488542E+02 -0.17827938192E+02  0.43400734272E+02  0.00000000000E+00 0.  1.
         11    1    3    3    0    0 -0.98018603078E+01  0.13596329001E+02  0.38819437874E+01  0.17204828265E+02  0.51100000000E-03 0. -1.
        -11    1    3    3    0    0 -0.11951088803E+02  0.88922594698E+00  0.97830615330E+01  0.15470214594E+02  0.51100000000E-03 0.  1.
        -12    1    3    3    0    0 -0.69413486382E+01  0.12761933594E+02  0.41629328714E+01  0.15112222870E+02  0.00000000000E+00 0.  1.
</event>
<event>
 7    1  0.7357971E-011  0.4778727E+02  0.7816164E-02  0.1312668E+00
        -11   -1    0    0    0    0  0.00000000000E+00  0.00000000000E+00  0.45593999997E+02  0.45594000000E+02  0.51100000000E-03 0. -1.
         11   -1    0    0    0    0 -0.00000000000E+00 -0.00000000000E+00 -0.45593999997E+02  0.45594000000E+02  0.51100000000E-03 0.  1.
    9900012    2    1    2    0    0 -0.89029526931E+01 -0.29152886012E+02  0.30894499643E+02  0.47787269157E+02  0.19999991396E+02 0.  0.
        -12    1    1    2    0    0  0.89029526931E+01  0.29152886012E+02 -0.30894499643E+02  0.43400730843E+02  0.00000000000E+00 0.  1.
         11    1    3    3    0    0 -0.12388357951E+02 -0.21305357851E+02  0.17636844539E+02  0.30305906544E+02  0.51100000000E-03 0. -1.
        -11    1    3    3    0    0  0.47973531587E+01 -0.21835479716E+01  0.43002175056E+01  0.68025252612E+01  0.51100000000E-03 0.  1.
         12    1    3    3    0    0 -0.13119479011E+01 -0.56639801897E+01  0.89574375975E+01  0.10678837352E+02  0.00000000000E+00 0. -1.
</event>
<event>
 7    1  0.7357971E-011  0.4778727E+02  0.7816164E-02  0.1312668E+00
        -11   -1    0    0    0    0  0.00000000000E+00  0.00000000000E+00  0.45593999997E+02  0.45594000000E+02  0.51100000000E-03 0. -1.
         11   -1    0    0    0    0 -0.00000000000E+00 -0.00000000000E+00 -0.45593999997E+02  0.45594000000E+02  0.51100000000E-03 0.  1.
    9900012    2    1    2    0    0  0.25567074497E+02  0.93308007850E+00 -0.35058197120E+02  0.47787272793E+02  0.20000007974E+02 0.  0.
         12    1    1    2    0    0 -0.25567074497E+02 -0.93308007850E+00  0.35058197120E+02  0.43400727207E+02  0.00000000000E+00 0. -1.
         11    1    3    3    0    0  0.87571444941E+00  0.14770781660E+01 -0.91969323551E+00  0.19479403517E+01  0.51100000000E-03 0. -1.
        -11    1    3    3    0    0  0.22863894831E+02  0.58533475065E+01 -0.29244113770E+02  0.37579749259E+02  0.51100000000E-03 0.  1.
        -12    1    3    3    0    0  0.18274652168E+01 -0.63973455939E+01 -0.48943901142E+01  0.82595831830E+01  0.00000000000E+00 0.  1.
</event>
<event>
 7    1  0.7647130E-011  0.4778726E+02  0.7816164E-02  0.1312668E+00
        -11   -1    0    0    0    0  0.00000000000E+00  0.00000000000E+00  0.45593999997E+02  0.45594000000E+02  0.51100000000E-03 0. -1.
         11   -1    0    0    0    0 -0.00000000000E+00 -0.00000000000E+00 -0.45593999997E+02  0.45594000000E+02  0.51100000000E-03 0.  1.
    9900012    2    1    2    0    0 -0.88462066187E+01 -0.84463915787E+01  0.41641648793E+02  0.47787264794E+02  0.19999971502E+02 0.  0.
        -12    1    1    2    0    0  0.88462066187E+01  0.84463915787E+01 -0.41641648793E+02  0.43400735206E+02  0.00000000000E+00 0.  1.
         11    1    3    3    0    0  0.16966818374E+01 -0.34771088368E+01  0.25017035909E+02  0.25314444514E+02  0.51100000000E-03 0. -1.
        -11    1    3    3    0    0 -0.34161901371E+01 -0.18309624376E+01 -0.25424822673E+00  0.38842529427E+01  0.51100000000E-03 0.  1.
         12    1    3    3    0    0 -0.71266983190E+01 -0.31383203042E+01  0.16878861110E+02  0.18588567337E+02  0.00000000000E+00 0. -1.
</event>
<event>
 7    1  0.7357971E-011  0.4778727E+02  0.7816164E-02  0.1312668E+00
        -11   -1    0    0    0    0  0.00000000000E+00  0.00000000000E+00  0.45593999997E+02  0.45594000000E+02  0.51100000000E-03 0. -1.
         11   -1    0    0    0    0 -0.00000000000E+00 -0.00000000000E+00 -0.45593999997E+02  0.45594000000E+02  0.51100000000E-03 0.  1.
    9900012    2    1    2    0    0 -0.30437538665E+02 -0.39597048194E+01 -0.30683875028E+02  0.47787271793E+02  0.20000003412E+02 0.  0.
         12    1    1    2    0    0  0.30437538665E+02  0.39597048194E+01  0.30683875028E+02  0.43400728207E+02  0.00000000000E+00 0. -1.
         11    1    3    3    0    0 -0.22034619061E+02 -0.54487256139E+01 -0.26821839622E+02  0.35137218572E+02  0.51100000000E-03 0. -1.
        -11    1    3    3    0    0 -0.87654635231E+01  0.36990766580E+01 -0.41730277407E+01  0.10388969135E+02  0.51100000000E-03 0.  1.
         12    1    3    3    0    0  0.36254391955E+00 -0.22100558635E+01  0.31099233521E+00  0.22610840864E+01  0.00000000000E+00 0. -1.
</event>
<event>
 7    1  0.7357971E-011  0.4778728E+02  0.7816164E-02  0.1312668E+00
        -11   -1    0    0    0    0  0.00000000000E+00  0.00000000000E+00  0.45593999997E+02  0.45594000000E+02  0.51100000000E-03 0. -1.
         11   -1    0    0    0    0 -0.00000000000E+00 -0.00000000000E+00 -0.45593999997E+02  0.45594000000E+02  0.51100000000E-03 0.  1.
    9900012    2    1    2    0    0 -0.24628819116E+02  0.17947026779E+02 -0.30902226973E+02  0.47787284187E+02  0.20000059920E+02 0.  0.
         12    1    1    2    0    0  0.24628819116E+02 -0.17947026779E+02  0.30902226973E+02  0.43400715813E+02  0.00000000000E+00 0. -1.
         11    1    3    3    0    0 -0.16229464265E+02  0.17186495793E+02 -0.12736518560E+02  0.26851257946E+02  0.51100000000E-03 0. -1.
        -11    1    3    3    0    0 -0.73519939025E+01 -0.18130689309E+01 -0.12271525080E+02  0.14419755939E+02  0.51100000000E-03 0.  1.
        -12    1    3    3    0    0 -0.10473609479E+01  0.25735999174E+01 -0.58941833328E+01  0.65162703021E+01  0.00000000000E+00 0.  1.
</event>
<event>
 7    1  0.7357971E-011  0.4778733E+02  0.7816164E-02  0.1312667E+00
        -11   -1    0    0    0    0  0.00000000000E+00  0.00000000000E+00  0.45593999997E+02  0.45594000000E+02  0.51100000000E-03 0. -1.
         11   -1    0    0    0    0 -0.00000000000E+00 -0.00000000000E+00 -0.45593999997E+02  0.45594000000E+02  0.51100000000E-03 0.  1.
    9900012    2    1    2    0    0  0.22720198794E+02 -0.11254711167E+01 -0.36961379971E+02  0.47787334938E+02  0.20000291314E+02 0.  0.
         12    1    1    2    0    0 -0.22720198794E+02  0.11254711167E+01  0.36961379971E+02  0.43400665062E+02  0.00000000000E+00 0. -1.
         11    1    3    3    0    0  0.22117829808E+02  0.33555939041E+01 -0.29020152610E+02  0.36641884008E+02  0.51100000000E-03 0. -1.
        -11    1    3    3    0    0  0.68100856062E+00 -0.46084026337E+01 -0.89691074570E+01  0.10106732228E+02  0.51100000000E-03 0.  1.
         12    1    3    3    0    0 -0.78639574784E-01  0.12733761289E+00  0.10278800960E+01  0.10387187021E+01  0.00000000000E+00 0. -1.
</event>
<event>
 7    1  0.7357971E-011  0.4778731E+02  0.7816164E-02  0.1312668E+00
        -11   -1    0    0    0    0  0.00000000000E+00  0.00000000000E+00  0.45593999997E+02  0.45594000000E+02  0.51100000000E-03 0. -1.
         11   -1    0    0    0    0 -0.00000000000E+00 -0.00000000000E+00 -0.45593999997E+02  0.45594000000E+02  0.51100000000E-03 0.  1.
    9900012    2    1    2    0    0 -0.27112684108E+02 -0.84621612448E+01  0.32816374373E+02  0.47787306003E+02  0.20000159387E+02 0.  0.
        -12    1    1    2    0    0  0.27112684108E+02  0.84621612448E+01 -0.32816374373E+02  0.43400693997E+02  0.00000000000E+00 0.  1.
         11    1    3    3    0    0 -0.25272281306E+01 -0.28750693027E+01  0.31755211878E+01  0.49736144397E+01  0.51100000000E-03 0. -1.
        -11    1    3    3    0    0 -0.23298057169E+02  0.17722172324E+01  0.21312086613E+02  0.31625073246E+02  0.51100000000E-03 0.  1.
        -12    1    3    3    0    0 -0.12873988080E+01 -0.73593091745E+01  0.83287665727E+01  0.11188618317E+02  0.00000000000E+00 0.  1.
</event>
<event>
 7    1  0.7357971E-011  0.4778726E+02  0.7816164E-02  0.1312668E+00
        -11   -1    0    0    0    0  0.00000000000E+00  0.00000000000E+00  0.45593999997E+02  0.45594000000E+02  0.51100000000E-03 0. -1.
         11   -1    0    0    0    0 -0.00000000000E+00 -0.00000000000E+00 -0.45593999997E+02  0.45594000000E+02  0.51100000000E-03 0.  1.
    9900012    2    1    2    0    0  0.12207104858E+02  0.24447582087E+02 -0.33718336400E+02  0.47787263964E+02  0.19999967717E+02 0.  0.
         12    1    1    2    0    0 -0.12207104858E+02 -0.24447582087E+02  0.33718336400E+02  0.43400736036E+02  0.00000000000E+00 0. -1.
         11    1    3    3    0    0 -0.19602131125E+00  0.13973142938E+01 -0.23921104529E+01  0.27772476070E+01  0.51100000000E-03 0. -1.
        -11    1    3    3    0    0  0.16008264290E+02  0.15770966828E+02 -0.28745334550E+02  0.36486739768E+02  0.51100000000E-03 0.  1.
        -12    1    3    3    0    0 -0.36051381206E+01  0.72793009648E+01 -0.25808913970E+01  0.85232765887E+01  0.00000000000E+00 0.  1.
</event>
<event>
 7    1  0.7357971E-011  0.4778727E+02  0.7816164E-02  0.1312668E+00
        -11   -1    0    0    0    0  0.00000000000E+00  0.00000000000E+00  0.45593999997E+02  0.45594000000E+02  0.51100000000E-03 0. -1.
         11   -1    0    0    0    0 -0.00000000000E+00 -0.00000000000E+00 -0.45593999997E+02  0.45594000000E+02  0.51100000000E-03 0.  1.
    9900012    2    1    2    0    0  0.26368601231E+02 -0.33033989062E+02  0.98526962774E+01  0.47787272032E+02  0.20000004504E+02 0.  0.
        -12    1    1    2    0    0 -0.26368601231E+02  0.33033989062E+02 -0.98526962774E+01  0.43400727968E+02  0.00000000000E+00 0.  1.
         11    1    3    3    0    0  0.11394589826E+01 -0.12773036628E+02  0.69327655037E+01  0.14577793704E+02  0.51100000000E-03 0. -1.
        -11    1    3    3    0    0  0.17671286778E+02 -0.98977360697E+01  0.17579654316E+01  0.20330518892E+02  0.51100000000E-03 0.  1.
         12    1    3    3    0    0  0.75578554699E+01 -0.10363216364E+02  0.11619653421E+01  0.12878959436E+02  0.00000000000E+00 0. -1.
</event>
<event>
 7    1  0.7357971E-011  0.4778727E+02  0.7816164E-02  0.1312668E+00
        -11   -1    0    0    0    0  0.00000000000E+00  0.00000000000E+00  0.45593999997E+02  0.45594000000E+02  0.51100000000E-03 0. -1.
         11   -1    0    0    0    0 -0.00000000000E+00 -0.00000000000E+00 -0.45593999997E+02  0.45594000000E+02  0.51100000000E-03 0.  1.
    9900012    2    1    2    0    0  0.17769730708E+02  0.36658073738E+02  0.14968143931E+02  0.47787273827E+02  0.20000012686E+02 0.  0.
        -12    1    1    2    0    0 -0.17769730708E+02 -0.36658073738E+02 -0.14968143931E+02  0.43400726173E+02  0.00000000000E+00 0.  1.
         11    1    3    3    0    0  0.71669390743E+00  0.15768005509E+02  0.68655741447E+01  0.17212778871E+02  0.51100000000E-03 0. -1.
        -11    1    3    3    0    0  0.16004235595E+02  0.13101769776E+02  0.23099814988E+01  0.20811726094E+02  0.51100000000E-03 0.  1.
        -12    1    3    3    0    0  0.10488012055E+01  0.77882984534E+01  0.57925882877E+01  0.97627688612E+01  0.00000000000E+00 0.  1.
</event>
<event>
 7    1  0.7357971E-011  0.4778729E+02  0.7816164E-02  0.1312668E+00
        -11   -1    0    0    0    0  0.00000000000E+00  0.00000000000E+00  0.45593999997E+02  0.45594000000E+02  0.51100000000E-03 0. -1.
         11   -1    0    0    0    0 -0.00000000000E+00 -0.00000000000E+00 -0.45593999997E+02  0.45594000000E+02  0.51100000000E-03 0.  1.
    9900012    2    1    2    0    0  0.12045300986E+02 -0.21478560892E+02  0.35737984458E+02  0.47787292782E+02  0.20000099112E+02 0.  0.
        -12    1    1    2    0    0 -0.12045300986E+02  0.21478560892E+02 -0.35737984458E+02  0.43400707218E+02  0.00000000000E+00 0.  1.
         11    1    3    3    0    0  0.58106887202E+01 -0.47452454018E+01  0.11162333107E+02  0.13449131496E+02  0.51100000000E-03 0. -1.
        -11    1    3    3    0    0  0.33048369707E+01  0.27057895890E+01  0.35512180522E+01  0.55546732233E+01  0.51100000000E-03 0.  1.
        -12    1    3    3    0    0  0.29297752948E+01 -0.19439105079E+02  0.21024433299E+02  0.28783488063E+02  0.00000000000E+00 0.  1.
</event>
<event>
 7    1  0.7357971E-011  0.4778728E+02  0.7816164E-02  0.1312668E+00
        -11   -1    0    0    0    0  0.00000000000E+00  0.00000000000E+00  0.45593999997E+02  0.45594000000E+02  0.51100000000E-03 0. -1.
         11   -1    0    0    0    0 -0.00000000000E+00 -0.00000000000E+00 -0.45593999997E+02  0.45594000000E+02  0.51100000000E-03 0.  1.
    9900012    2    1    2    0    0 -0.38184813218E+02  0.12109772658E+02 -0.16700170606E+02  0.47787282810E+02  0.20000053644E+02 0.  0.
         12    1    1    2    0    0  0.38184813218E+02 -0.12109772658E+02  0.16700170606E+02  0.43400717190E+02  0.00000000000E+00 0. -1.
         11    1    3    3    0    0 -0.35343713652E+02  0.66449712033E+01 -0.12456048501E+02  0.38058992125E+02  0.51100000000E-03 0. -1.
        -11    1    3    3    0    0 -0.18475056843E+01  0.68163683293E+01 -0.36413765308E+01  0.79458025243E+01  0.51100000000E-03 0.  1.
        -12    1    3    3    0    0 -0.99359388176E+00 -0.13515668745E+01 -0.60274557344E+00  0.17824881611E+01  0.00000000000E+00 0.  1.
</event>
<event>
 7    1  0.7357971E-011  0.4778727E+02  0.7816164E-02  0.1312668E+00
        -11   -1    0    0    0    0  0.00000000000E+00  0.00000000000E+00  0.45593999997E+02  0.45594000000E+02  0.51100000000E-03 0. -1.
         11   -1    0    0    0    0 -0.00000000000E+00 -0.00000000000E+00 -0.45593999997E+02  0.45594000000E+02  0.51100000000E-03 0.  1.
    9900012    2    1    2    0    0 -0.29373545491E+02 -0.56680061254E+01 -0.31443465236E+02  0.47787274497E+02  0.20000015742E+02 0.  0.
         12    1    1    2    0    0  0.29373545491E+02  0.56680061254E+01  0.31443465236E+02  0.43400725503E+02  0.00000000000E+00 0. -1.
         11    1    3    3    0    0 -0.22069972120E+02 -0.20251007497E+01 -0.22515434186E+02  0.31593187229E+02  0.51100000000E-03 0.  1.
        -11    1    3    3    0    0 -0.99018270114E+01 -0.12862295119E+01 -0.62361822166E+01  0.11772448064E+02  0.51100000000E-03 0. -1.
         12    1    3    3    0    0  0.25982536408E+01 -0.23566758639E+01 -0.26918488327E+01  0.44216392037E+01  0.00000000000E+00 0. -1.
</event>
<event>
 7    1  0.7357971E-011  0.4778728E+02  0.7816164E-02  0.1312668E+00
        -11   -1    0    0    0    0  0.00000000000E+00  0.00000000000E+00  0.45593999997E+02  0.45594000000E+02  0.51100000000E-03 0. -1.
         11   -1    0    0    0    0 -0.00000000000E+00 -0.00000000000E+00 -0.45593999997E+02  0.45594000000E+02  0.51100000000E-03 0.  1.
    9900012    2    1    2    0    0  0.32004272532E+02 -0.22650400711E+01  0.29227024591E+02  0.47787276120E+02  0.20000023144E+02 0.  0.
        -12    1    1    2    0    0 -0.32004272532E+02  0.22650400711E+01 -0.29227024591E+02  0.43400723880E+02  0.00000000000E+00 0.  1.
         11    1    3    3    0    0  0.15186152779E+02 -0.14839552878E+01  0.11429883350E+02  0.19064721167E+02  0.51100000000E-03 0. -1.
        -11    1    3    3    0    0  0.75942880591E+01 -0.66204861838E+01  0.33555250205E+01  0.10619020523E+02  0.51100000000E-03 0.  1.
        -12    1    3    3    0    0  0.92238316944E+01  0.58394014005E+01  0.14441616220E+02  0.18103534431E+02  0.00000000000E+00 0.  1.
</event>
<event>
 7    1  0.7357971E-011  0.4778727E+02  0.7816164E-02  0.1312668E+00
        -11   -1    0    0    0    0  0.00000000000E+00  0.00000000000E+00  0.45593999997E+02  0.45594000000E+02  0.51100000000E-03 0. -1.
         11   -1    0    0    0    0 -0.00000000000E+00 -0.00000000000E+00 -0.45593999997E+02  0.45594000000E+02  0.51100000000E-03 0.  1.
    9900012    2    1    2    0    0 -0.20128447830E+02  0.21511804756E+01 -0.38390643649E+02  0.47787268332E+02  0.19999987635E+02 0.  0.
         12    1    1    2    0    0  0.20128447830E+02 -0.21511804756E+01  0.38390643649E+02  0.43400731668E+02  0.00000000000E+00 0. -1.
         11    1    3    3    0    0 -0.30256730969E+01  0.31485593188E+01 -0.23827627644E+01  0.49745032039E+01  0.51100000000E-03 0. -1.
        -11    1    3    3    0    0 -0.51853842488E+01  0.58608388356E+01 -0.61911316136E+01  0.99783642238E+01  0.51100000000E-03 0.  1.
        -12    1    3    3    0    0 -0.11917390484E+02 -0.68582176788E+01 -0.29816749271E+02  0.32834400905E+02  0.00000000000E+00 0.  1.
</event>
<event>
 7    1  0.7357971E-011  0.4778727E+02  0.7816164E-02  0.1312668E+00
        -11   -1    0    0    0    0  0.00000000000E+00  0.00000000000E+00  0.45593999997E+02  0.45594000000E+02  0.51100000000E-03 0. -1.
         11   -1    0    0    0    0 -0.00000000000E+00 -0.00000000000E+00 -0.45593999997E+02  0.45594000000E+02  0.51100000000E-03 0.  1.
    9900012    2    1    2    0    0 -0.10467754953E+02  0.10851277616E+02 -0.40697657865E+02  0.47787268723E+02  0.19999989416E+02 0.  0.
         12    1    1    2    0    0  0.10467754953E+02 -0.10851277616E+02  0.40697657865E+02  0.43400731277E+02  0.00000000000E+00 0. -1.
         11    1    3    3    0    0 -0.10045713534E+02  0.67521165319E+01 -0.16934986530E+02  0.20815888334E+02  0.51100000000E-03 0. -1.
        -11    1    3    3    0    0  0.15528658991E+01 -0.27057738656E+01 -0.12343733075E+01  0.33550383658E+01  0.51100000000E-03 0.  1.
        -12    1    3    3    0    0 -0.19749073180E+01  0.68049349497E+01 -0.22528298027E+02  0.23616342024E+02  0.00000000000E+00 0.  1.
</event>
<event>
 7    1  0.7357971E-011  0.4778727E+02  0.7816164E-02  0.1312668E+00
        -11   -1    0    0    0    0  0.00000000000E+00  0.00000000000E+00  0.45593999997E+02  0.45594000000E+02  0.51100000000E-03 0. -1.
         11   -1    0    0    0    0 -0.00000000000E+00 -0.00000000000E+00 -0.45593999997E+02  0.45594000000E+02  0.51100000000E-03 0.  1.
    9900012    2    1    2    0    0  0.18692856039E+02 -0.67859482739E+01 -0.38576565580E+02  0.47787269905E+02  0.19999994805E+02 0.  0.
         12    1    1    2    0    0 -0.18692856039E+02  0.67859482739E+01  0.38576565580E+02  0.43400730095E+02  0.00000000000E+00 0. -1.
         11    1    3    3    0    0 -0.53203385634E+00 -0.46785399604E+01 -0.33805365995E+00  0.47208131421E+01  0.51100000000E-03 0. -1.
        -11    1    3    3    0    0  0.14477534711E+02 -0.23964843276E+01 -0.24864133899E+02  0.28871565652E+02  0.51100000000E-03 0.  1.
         12    1    3    3    0    0  0.47473551845E+01  0.28907601400E+00 -0.13374378021E+02  0.14194891111E+02  0.00000000000E+00 0. -1.
</event>
<event>
 7    1  0.7357971E-011  0.4778727E+02  0.7816164E-02  0.1312668E+00
        -11   -1    0    0    0    0  0.00000000000E+00  0.00000000000E+00  0.45593999997E+02  0.45594000000E+02  0.51100000000E-03 0. -1.
         11   -1    0    0    0    0 -0.00000000000E+00 -0.00000000000E+00 -0.45593999997E+02  0.45594000000E+02  0.51100000000E-03 0.  1.
    9900012    2    1    2    0    0  0.26469544377E+02  0.21165948627E+02  0.27110686486E+02  0.47787268641E+02  0.19999989040E+02 0.  0.
        -12    1    1    2    0    0 -0.26469544377E+02 -0.21165948627E+02 -0.27110686486E+02  0.43400731359E+02  0.00000000000E+00 0.  1.
         11    1    3    3    0    0  0.50456258799E+01  0.13746902797E+02  0.85360165652E+01  0.16949904309E+02  0.51100000000E-03 0.  1.
        -11    1    3    3    0    0  0.20888391383E+02  0.83742637567E+01  0.19195042703E+02  0.29578756781E+02  0.51100000000E-03 0. -1.
         12    1    3    3    0    0  0.53552711371E+00 -0.95521792704E+00 -0.62037278255E+00  0.12586075508E+01  0.00000000000E+00 0. -1.
</event>
<event>
 7    1  0.7357971E-011  0.4778727E+02  0.7816164E-02  0.1312668E+00
        -11   -1    0    0    0    0  0.00000000000E+00  0.00000000000E+00  0.45593999997E+02  0.45594000000E+02  0.51100000000E-03 0.  1.
         11   -1    0    0    0    0 -0.00000000000E+00 -0.00000000000E+00 -0.45593999997E+02  0.45594000000E+02  0.51100000000E-03 0. -1.
    9900012    2    1    2    0    0 -0.42782516513E+02  0.59074103735E+01 -0.42874166043E+01  0.47787272384E+02  0.20000006106E+02 0.  0.
         12    1    1    2    0    0  0.42782516513E+02 -0.59074103735E+01  0.42874166043E+01  0.43400727616E+02  0.00000000000E+00 0. -1.
         11    1    3    3    0    0 -0.86251443326E+01  0.75945625335E+01 -0.16624486031E+00  0.11493395166E+02  0.51100000000E-03 0. -1.
        -11    1    3    3    0    0 -0.26601154894E+02  0.35071215576E+01 -0.21678445584E+01  0.26918783286E+02  0.51100000000E-03 0.  1.
         12    1    3    3    0    0 -0.75562172863E+01 -0.51942737176E+01 -0.19533271857E+01  0.93750939316E+01  0.00000000000E+00 0. -1.
</event>
<event>
 7    1  0.7357971E-011  0.4778727E+02  0.7816164E-02  0.1312668E+00
        -11   -1    0    0    0    0  0.00000000000E+00  0.00000000000E+00  0.45593999997E+02  0.45594000000E+02  0.51100000000E-03 0. -1.
         11   -1    0    0    0    0 -0.00000000000E+00 -0.00000000000E+00 -0.45593999997E+02  0.45594000000E+02  0.51100000000E-03 0.  1.
    9900012    2    1    2    0    0 -0.13791608164E+02  0.38894182876E+01  0.40966904711E+02  0.47787270606E+02  0.19999997999E+02 0.  0.
        -12    1    1    2    0    0  0.13791608164E+02 -0.38894182876E+01 -0.40966904711E+02  0.43400729394E+02  0.00000000000E+00 0.  1.
         11    1    3    3    0    0 -0.10602018672E+01 -0.13676202991E+00 -0.17036051148E+01  0.20112191577E+01  0.51100000000E-03 0. -1.
        -11    1    3    3    0    0 -0.50866488810E+01  0.37324648421E-01  0.30134207932E+02  0.30560528103E+02  0.51100000000E-03 0.  1.
         12    1    3    3    0    0 -0.76447574157E+01  0.39888556691E+01  0.12536301894E+02  0.15215523345E+02  0.00000000000E+00 0. -1.
</event>
<event>
 7    1  0.7357971E-011  0.4778728E+02  0.7816164E-02  0.1312668E+00
        -11   -1    0    0    0    0  0.00000000000E+00  0.00000000000E+00  0.45593999997E+02  0.45594000000E+02  0.51100000000E-03 0. -1.
         11   -1    0    0    0    0 -0.00000000000E+00 -0.00000000000E+00 -0.45593999997E+02  0.45594000000E+02  0.51100000000E-03 0.  1.
    9900012    2    1    2    0    0  0.28931040059E+01  0.11309828024E+02  0.41801197718E+02  0.47787281211E+02  0.20000046354E+02 0.  0.
        -12    1    1    2    0    0 -0.28931040059E+01 -0.11309828024E+02 -0.41801197718E+02  0.43400718789E+02  0.00000000000E+00 0.  1.
         11    1    3    3    0    0 -0.14255752114E+01  0.11182630871E+02  0.16342969440E+02  0.19853869856E+02  0.51100000000E-03 0. -1.
        -11    1    3    3    0    0  0.38641212923E+01 -0.49374125685E+01  0.16195069063E+02  0.17366339236E+02  0.51100000000E-03 0.  1.
        -12    1    3    3    0    0  0.45455792502E+00  0.50646097209E+01  0.92631592146E+01  0.10567072119E+02  0.00000000000E+00 0.  1.
</event>
<event>
 7    1  0.7357971E-011  0.4778727E+02  0.7816164E-02  0.1312668E+00
        -11   -1    0    0    0    0  0.00000000000E+00  0.00000000000E+00  0.45593999997E+02  0.45594000000E+02  0.51100000000E-03 0. -1.
         11   -1    0    0    0    0 -0.00000000000E+00 -0.00000000000E+00 -0.45593999997E+02  0.45594000000E+02  0.51100000000E-03 0.  1.
    9900012    2    1    2    0    0 -0.16767498019E+02 -0.10576176986E+01  0.40016942987E+02  0.47787271077E+02  0.20000000148E+02 0.  0.
        -12    1    1    2    0    0  0.16767498019E+02  0.10576176986E+01 -0.40016942987E+02  0.43400728923E+02  0.00000000000E+00 0.  1.
         11    1    3    3    0    0 -0.11215515188E+02  0.22123560698E+01  0.33619285472E+02  0.35509698058E+02  0.51100000000E-03 0.  1.
        -11    1    3    3    0    0 -0.72917297049E+01 -0.21409971657E+01  0.67613414142E+01  0.10171967800E+02  0.51100000000E-03 0. -1.
         12    1    3    3    0    0  0.17397468743E+01 -0.11289766028E+01 -0.36368389841E+00  0.21056052181E+01  0.00000000000E+00 0. -1.
</event>
<event>
 7    1  0.7357971E-011  0.4778727E+02  0.7816164E-02  0.1312668E+00
        -11   -1    0    0    0    0  0.00000000000E+00  0.00000000000E+00  0.45593999997E+02  0.45594000000E+02  0.51100000000E-03 0. -1.
         11   -1    0    0    0    0 -0.00000000000E+00 -0.00000000000E+00 -0.45593999997E+02  0.45594000000E+02  0.51100000000E-03 0.  1.
    9900012    2    1    2    0    0  0.20514865625E+02  0.14011162591E+02 -0.35587228443E+02  0.47787271699E+02  0.20000002986E+02 0.  0.
         12    1    1    2    0    0 -0.20514865625E+02 -0.14011162591E+02  0.35587228443E+02  0.43400728301E+02  0.00000000000E+00 0. -1.
         11    1    3    3    0    0  0.87220659024E+01  0.97419180520E+01 -0.10142405093E+02  0.16548346814E+02  0.51100000000E-03 0. -1.
        -11    1    3    3    0    0 -0.13169318235E+01 -0.25284145588E+01 -0.18322727922E+01  0.33888661017E+01  0.51100000000E-03 0.  1.
        -12    1    3    3    0    0  0.13109731546E+02  0.67976590973E+01 -0.23612550558E+02  0.27850058784E+02  0.00000000000E+00 0.  1.
</event>
<event>
 7    1  0.7357971E-011  0.4778727E+02  0.7816164E-02  0.1312668E+00
        -11   -1    0    0    0    0  0.00000000000E+00  0.00000000000E+00  0.45593999997E+02  0.45594000000E+02  0.51100000000E-03 0. -1.
         11   -1    0    0    0    0 -0.00000000000E+00 -0.00000000000E+00 -0.45593999997E+02  0.45594000000E+02  0.51100000000E-03 0.  1.
    9900012    2    1    2    0    0  0.21026418539E+02 -0.30195901981E+02  0.23015661285E+02  0.47787269160E+02  0.19999991409E+02 0.  0.
        -12    1    1    2    0    0 -0.21026418539E+02  0.30195901981E+02 -0.23015661285E+02  0.43400730840E+02  0.00000000000E+00 0.  1.
         11    1    3    3    0    0  0.20099830158E+02 -0.19469738133E+02  0.16436954310E+02  0.32453772394E+02  0.51100000000E-03 0. -1.
        -11    1    3    3    0    0  0.38108021656E+01 -0.91852341816E+01  0.27891737972E+01  0.10328128139E+02  0.51100000000E-03 0.  1.
         12    1    3    3    0    0 -0.28842137843E+01 -0.15409296665E+01  0.37895331783E+01  0.50053686278E+01  0.00000000000E+00 0. -1.
</event>
<event>
 7    1  0.7357971E-011  0.4778727E+02  0.7816164E-02  0.1312668E+00
        -11   -1    0    0    0    0  0.00000000000E+00  0.00000000000E+00  0.45593999997E+02  0.45594000000E+02  0.51100000000E-03 0. -1.
         11   -1    0    0    0    0 -0.00000000000E+00 -0.00000000000E+00 -0.45593999997E+02  0.45594000000E+02  0.51100000000E-03 0.  1.
    9900012    2    1    2    0    0 -0.10376812083E+02 -0.33717893716E+02  0.25279415124E+02  0.47787269422E+02  0.19999992603E+02 0.  0.
        -12    1    1    2    0    0  0.10376812083E+02  0.33717893716E+02 -0.25279415124E+02  0.43400730578E+02  0.00000000000E+00 0.  1.
         11    1    3    3    0    0 -0.50301968743E+01 -0.80492558418E+01  0.12422818031E+02  0.15633931313E+02  0.51100000000E-03 0. -1.
        -11    1    3    3    0    0 -0.21998456789E+01 -0.25887158475E+02  0.12882201663E+02  0.28998886442E+02  0.51100000000E-03 0.  1.
        -12    1    3    3    0    0 -0.31467695300E+01  0.21852060039E+00 -0.25604569690E-01  0.31544516674E+01  0.00000000000E+00 0.  1.
</event>
<event>
 7    1  0.7357971E-011  0.4778728E+02  0.7816164E-02  0.1312668E+00
        -11   -1    0    0    0    0  0.00000000000E+00  0.00000000000E+00  0.45593999997E+02  0.45594000000E+02  0.51100000000E-03 0. -1.
         11   -1    0    0    0    0 -0.00000000000E+00 -0.00000000000E+00 -0.45593999997E+02  0.45594000000E+02  0.51100000000E-03 0.  1.
    9900012    2    1    2    0    0  0.26908297690E+02  0.54163474901E+01 -0.33618882106E+02  0.47787279513E+02  0.20000038613E+02 0.  0.
         12    1    1    2    0    0 -0.26908297690E+02 -0.54163474901E+01  0.33618882106E+02  0.43400720487E+02  0.00000000000E+00 0. -1.
         11    1    3    3    0    0  0.10838811433E+02  0.92450923955E+01 -0.86272838032E+01  0.16654776875E+02  0.51100000000E-03 0. -1.
        -11    1    3    3    0    0  0.15390350873E+02 -0.14696037991E+01 -0.23855940215E+02  0.28427601361E+02  0.51100000000E-03 0.  1.
        -12    1    3    3    0    0  0.67913538400E+00 -0.23591411063E+01 -0.11356580879E+01  0.27049012777E+01  0.00000000000E+00 0.  1.
</event>
<event>
 7    1  0.7357971E-011  0.4778727E+02  0.7816164E-02  0.1312668E+00
        -11   -1    0    0    0    0  0.00000000000E+00  0.00000000000E+00  0.45593999997E+02  0.45594000000E+02  0.51100000000E-03 0. -1.
         11   -1    0    0    0    0 -0.00000000000E+00 -0.00000000000E+00 -0.45593999997E+02  0.45594000000E+02  0.51100000000E-03 0.  1.
    9900012    2    1    2    0    0 -0.29222908509E+02 -0.29179332367E+02  0.13349601572E+02  0.47787266351E+02  0.19999978602E+02 0.  0.
        -12    1    1    2    0    0  0.29222908509E+02  0.29179332367E+02 -0.13349601572E+02  0.43400733649E+02  0.00000000000E+00 0.  1.
         11    1    3    3    0    0 -0.57819224706E+01  0.15211793536E+00  0.76001421186E+01  0.95507030007E+01  0.51100000000E-03 0.  1.
        -11    1    3    3    0    0 -0.15737605614E+02 -0.16402042457E+02  0.40750512971E+01  0.23093403182E+02  0.51100000000E-03 0. -1.
        -12    1    3    3    0    0 -0.77033804243E+01 -0.12929407846E+02  0.16744081560E+01  0.15143160169E+02  0.00000000000E+00 0.  1.
</event>
<event>
 7    1  0.7357971E-011  0.4778727E+02  0.7816164E-02  0.1312668E+00
        -11   -1    0    0    0    0  0.00000000000E+00  0.00000000000E+00  0.45593999997E+02  0.45594000000E+02  0.51100000000E-03 0. -1.
         11   -1    0    0    0    0 -0.00000000000E+00 -0.00000000000E+00 -0.45593999997E+02  0.45594000000E+02  0.51100000000E-03 0.  1.
    9900012    2    1    2    0    0  0.71413244008E+01  0.41135135372E+02 -0.11854340013E+02  0.47787271280E+02  0.20000001076E+02 0.  0.
         12    1    1    2    0    0 -0.71413244008E+01 -0.41135135372E+02  0.11854340013E+02  0.43400728720E+02  0.00000000000E+00 0. -1.
         11    1    3    3    0    0 -0.73145241506E+00  0.15273571181E+02  0.41753296564E+01  0.15850879384E+02  0.51100000000E-03 0. -1.
        -11    1    3    3    0    0  0.80461247022E+01  0.19927721859E+02 -0.10931136396E+02  0.24111075554E+02  0.51100000000E-03 0.  1.
         12    1    3    3    0    0 -0.17334788630E+00  0.59338423319E+01 -0.50985332742E+01  0.78253163423E+01  0.00000000000E+00 0. -1.
</event>
<event>
 7    1  0.7357971E-011  0.4778727E+02  0.7816164E-02  0.1312668E+00
        -11   -1    0    0    0    0  0.00000000000E+00  0.00000000000E+00  0.45593999997E+02  0.45594000000E+02  0.51100000000E-03 0. -1.
         11   -1    0    0    0    0 -0.00000000000E+00 -0.00000000000E+00 -0.45593999997E+02  0.45594000000E+02  0.51100000000E-03 0.  1.
    9900012    2    1    2    0    0 -0.18425841478E+02  0.16347727596E+02  0.35733228191E+02  0.47787269261E+02  0.19999991869E+02 0.  0.
        -12    1    1    2    0    0  0.18425841478E+02 -0.16347727596E+02 -0.35733228191E+02  0.43400730739E+02  0.00000000000E+00 0.  1.
         11    1    3    3    0    0 -0.13361085454E+02  0.12402070594E+02  0.30420157574E+02  0.35464291147E+02  0.51100000000E-03 0. -1.
        -11    1    3    3    0    0 -0.45569385114E+01 -0.21037614555E+01  0.28483811935E+01  0.57710290714E+01  0.51100000000E-03 0.  1.
         12    1    3    3    0    0 -0.50781751304E+00  0.60494184572E+01  0.24646894240E+01  0.65519490423E+01  0.00000000000E+00 0. -1.
</event>
<event>
 7    1  0.7357971E-011  0.4778726E+02  0.7816164E-02  0.1312668E+00
        -11   -1    0    0    0    0  0.00000000000E+00  0.00000000000E+00  0.45593999997E+02  0.45594000000E+02  0.51100000000E-03 0. -1.
         11   -1    0    0    0    0 -0.00000000000E+00 -0.00000000000E+00 -0.45593999997E+02  0.45594000000E+02  0.51100000000E-03 0.  1.
    9900012    2    1    2    0    0  0.11262646031E+02  0.34113378135E+02 -0.24352704213E+02  0.47787263072E+02  0.19999963648E+02 0.  0.
         12    1    1    2    0    0 -0.11262646031E+02 -0.34113378135E+02  0.24352704213E+02  0.43400736928E+02  0.00000000000E+00 0. -1.
         11    1    3    3    0    0 -0.49193438105E+00  0.52456323203E+01 -0.12528803463E+02  0.13591525829E+02  0.51100000000E-03 0. -1.
        -11    1    3    3    0    0  0.10287609833E+02  0.28638519961E+02 -0.11978434330E+02  0.32702945294E+02  0.51100000000E-03 0.  1.
        -12    1    3    3    0    0  0.14669705794E+01  0.22922585353E+00  0.15453358053E+00  0.14927919481E+01  0.00000000000E+00 0.  1.
</event>
<event>
 7    1  0.7357971E-011  0.4778727E+02  0.7816164E-02  0.1312668E+00
        -11   -1    0    0    0    0  0.00000000000E+00  0.00000000000E+00  0.45593999997E+02  0.45594000000E+02  0.51100000000E-03 0. -1.
         11   -1    0    0    0    0 -0.00000000000E+00 -0.00000000000E+00 -0.45593999997E+02  0.45594000000E+02  0.51100000000E-03 0.  1.
    9900012    2    1    2    0    0 -0.30355557898E+02 -0.12731026250E+02  0.28285765367E+02  0.47787269049E+02  0.19999990903E+02 0.  0.
        -12    1    1    2    0    0  0.30355557898E+02  0.12731026250E+02 -0.28285765367E+02  0.43400730951E+02  0.00000000000E+00 0.  1.
         11    1    3    3    0    0 -0.19980500828E+02 -0.11378985715E+02  0.26395837166E+02  0.35006312991E+02  0.51100000000E-03 0. -1.
        -11    1    3    3    0    0 -0.91266701430E+00 -0.11639371568E+01  0.29075549798E+01  0.32621445408E+01  0.51100000000E-03 0.  1.
         12    1    3    3    0    0 -0.94623900558E+01 -0.18810337773E+00 -0.10176267789E+01  0.95188115178E+01  0.00000000000E+00 0. -1.
</event>
<event>
 7    1  0.7357971E-011  0.4778727E+02  0.7816164E-02  0.1312668E+00
        -11   -1    0    0    0    0  0.00000000000E+00  0.00000000000E+00  0.45593999997E+02  0.45594000000E+02  0.51100000000E-03 0. -1.
         11   -1    0    0    0    0 -0.00000000000E+00 -0.00000000000E+00 -0.45593999997E+02  0.45594000000E+02  0.51100000000E-03 0.  1.
    9900012    2    1    2    0    0  0.21863123978E+02 -0.30685409114E+02  0.21541426280E+02  0.47787267647E+02  0.19999984512E+02 0.  0.
        -12    1    1    2    0    0 -0.21863123978E+02  0.30685409114E+02 -0.21541426280E+02  0.43400732353E+02  0.00000000000E+00 0.  1.
         11    1    3    3    0    0  0.10392048984E+02 -0.18541490901E+02  0.16649849872E+02  0.26999982740E+02  0.51100000000E-03 0. -1.
        -11    1    3    3    0    0 -0.17300260153E+01 -0.20393569147E+01 -0.13921053712E+01  0.30149501264E+01  0.51100000000E-03 0.  1.
        -12    1    3    3    0    0  0.13201101009E+02 -0.10104561299E+02  0.62836817791E+01  0.17772334781E+02  0.00000000000E+00 0.  1.
</event>
<event>
 7    1  0.7357971E-011  0.4778728E+02  0.7816164E-02  0.1312668E+00
        -11   -1    0    0    0    0  0.00000000000E+00  0.00000000000E+00  0.45593999997E+02  0.45594000000E+02  0.51100000000E-03 0. -1.
         11   -1    0    0    0    0 -0.00000000000E+00 -0.00000000000E+00 -0.45593999997E+02  0.45594000000E+02  0.51100000000E-03 0.  1.
    9900012    2    1    2    0    0  0.26833884237E+01  0.20579210504E+02  0.38117161737E+02  0.47787279991E+02  0.20000040790E+02 0.  0.
        -12    1    1    2    0    0 -0.26833884237E+01 -0.20579210504E+02 -0.38117161737E+02  0.43400720009E+02  0.00000000000E+00 0.  1.
         11    1    3    3    0    0 -0.68006977775E+00  0.76851758765E+01  0.22681026842E+02  0.23957324601E+02  0.51100000000E-03 0. -1.
        -11    1    3    3    0    0 -0.11625358049E+01  0.65683825414E+01  0.14243214835E+00  0.66719881509E+01  0.51100000000E-03 0.  1.
        -12    1    3    3    0    0  0.45259940063E+01  0.63256520864E+01  0.15293702747E+02  0.17157967239E+02  0.00000000000E+00 0.  1.
</event>
<event>
 7    1  0.7357971E-011  0.4778727E+02  0.7816164E-02  0.1312668E+00
        -11   -1    0    0    0    0  0.00000000000E+00  0.00000000000E+00  0.45593999997E+02  0.45594000000E+02  0.51100000000E-03 0. -1.
         11   -1    0    0    0    0 -0.00000000000E+00 -0.00000000000E+00 -0.45593999997E+02  0.45594000000E+02  0.51100000000E-03 0.  1.
    9900012    2    1    2    0    0  0.72335719277E+01  0.38518567934E+01  0.42619969976E+02  0.47787271846E+02  0.20000003654E+02 0.  0.
        -12    1    1    2    0    0 -0.72335719277E+01 -0.38518567934E+01 -0.42619969976E+02  0.43400728154E+02  0.00000000000E+00 0.  1.
         11    1    3    3    0    0  0.45431997700E+01 -0.31592547637E+00  0.42106907089E+02  0.42352474519E+02  0.51100000000E-03 0. -1.
        -11    1    3    3    0    0  0.16774749694E+01  0.15267144949E+01 -0.67539940870E+00  0.23666313705E+01  0.51100000000E-03 0.  1.
         12    1    3    3    0    0  0.10128971884E+01  0.26410677749E+01  0.11884622954E+01  0.30681659560E+01  0.00000000000E+00 0. -1.
</event>
<event>
 7    1  0.7357971E-011  0.4778729E+02  0.7816164E-02  0.1312668E+00
        -11   -1    0    0    0    0  0.00000000000E+00  0.00000000000E+00  0.45593999997E+02  0.45594000000E+02  0.51100000000E-03 0. -1.
         11   -1    0    0    0    0 -0.00000000000E+00 -0.00000000000E+00 -0.45593999997E+02  0.45594000000E+02  0.51100000000E-03 0.  1.
    9900012    2    1    2    0    0 -0.16206727994E+02 -0.98046871708E+00  0.40249256808E+02  0.47787285435E+02  0.20000065612E+02 0.  0.
        -12    1    1    2    0    0  0.16206727994E+02  0.98046871708E+00 -0.40249256808E+02  0.43400714565E+02  0.00000000000E+00 0.  1.
         11    1    3    3    0    0 -0.10858013171E+01  0.70101556194E+01  0.53816902068E+01  0.89041471265E+01  0.51100000000E-03 0. -1.
        -11    1    3    3    0    0 -0.11751890140E+02 -0.70055233727E+01  0.28432864949E+02  0.31553321363E+02  0.51100000000E-03 0.  1.
         12    1    3    3    0    0 -0.33690365370E+01 -0.98510096377E+00  0.64347016521E+01  0.73298169451E+01  0.00000000000E+00 0. -1.
</event>
<event>
 7    1  0.7357971E-011  0.4778727E+02  0.7816164E-02  0.1312668E+00
        -11   -1    0    0    0    0  0.00000000000E+00  0.00000000000E+00  0.45593999997E+02  0.45594000000E+02  0.51100000000E-03 0. -1.
         11   -1    0    0    0    0 -0.00000000000E+00 -0.00000000000E+00 -0.45593999997E+02  0.45594000000E+02  0.51100000000E-03 0.  1.
    9900012    2    1    2    0    0 -0.22925321920E+02  0.22917639825E+02  0.28858879316E+02  0.47787268259E+02  0.19999987299E+02 0.  0.
        -12    1    1    2    0    0  0.22925321920E+02 -0.22917639825E+02 -0.28858879316E+02  0.43400731741E+02  0.00000000000E+00 0.  1.
         11    1    3    3    0    0 -0.17032435015E+02  0.14390558180E+02  0.98806390719E+01  0.24388912153E+02  0.51100000000E-03 0. -1.
        -11    1    3    3    0    0 -0.17013851174E+01  0.99013332279E+00 -0.55564812217E+00  0.20454389288E+01  0.51100000000E-03 0.  1.
         12    1    3    3    0    0 -0.41915017873E+01  0.75369483227E+01  0.19533888367E+02  0.21352917177E+02  0.00000000000E+00 0. -1.
</event>
<event>
 7    1  0.7357971E-011  0.4778727E+02  0.7816164E-02  0.1312668E+00
        -11   -1    0    0    0    0  0.00000000000E+00  0.00000000000E+00  0.45593999997E+02  0.45594000000E+02  0.51100000000E-03 0. -1.
         11   -1    0    0    0    0 -0.00000000000E+00 -0.00000000000E+00 -0.45593999997E+02  0.45594000000E+02  0.51100000000E-03 0.  1.
    9900012    2    1    2    0    0 -0.34162781404E+02 -0.18986827524E+02  0.18868702872E+02  0.47787271886E+02  0.20000003838E+02 0.  0.
        -12    1    1    2    0    0  0.34162781404E+02  0.18986827524E+02 -0.18868702872E+02  0.43400728114E+02  0.00000000000E+00 0.  1.
         11    1    3    3    0    0 -0.92337853343E+01 -0.28341586529E+01  0.19268438195E+01  0.98492626239E+01  0.51100000000E-03 0. -1.
        -11    1    3    3    0    0 -0.20748270124E+02 -0.98975387444E+01  0.45394786004E+01  0.23432004877E+02  0.51100000000E-03 0.  1.
        -12    1    3    3    0    0 -0.41807259464E+01 -0.62551301268E+01  0.12402380452E+02  0.14506004385E+02  0.00000000000E+00 0.  1.
</event>
<event>
 7    1  0.7357971E-011  0.4778727E+02  0.7816164E-02  0.1312668E+00
        -11   -1    0    0    0    0  0.00000000000E+00  0.00000000000E+00  0.45593999997E+02  0.45594000000E+02  0.51100000000E-03 0. -1.
         11   -1    0    0    0    0 -0.00000000000E+00 -0.00000000000E+00 -0.45593999997E+02  0.45594000000E+02  0.51100000000E-03 0.  1.
    9900012    2    1    2    0    0  0.21617089286E+02 -0.23618621511E+02 -0.29299925501E+02  0.47787268835E+02  0.19999989927E+02 0.  0.
         12    1    1    2    0    0 -0.21617089286E+02  0.23618621511E+02  0.29299925501E+02  0.43400731165E+02  0.00000000000E+00 0. -1.
         11    1    3    3    0    0  0.66116648910E+01  0.98122703441E+00 -0.28471274143E+01  0.72651946910E+01  0.51100000000E-03 0. -1.
        -11    1    3    3    0    0  0.72753469455E+01 -0.19565985133E+02 -0.21828186706E+02  0.30203115444E+02  0.51100000000E-03 0.  1.
        -12    1    3    3    0    0  0.77300774493E+01 -0.50338634124E+01 -0.46246113806E+01  0.10318958700E+02  0.00000000000E+00 0.  1.
</event>
<event>
 7    1  0.7357971E-011  0.4778727E+02  0.7816164E-02  0.1312668E+00
        -11   -1    0    0    0    0  0.00000000000E+00  0.00000000000E+00  0.45593999997E+02  0.45594000000E+02  0.51100000000E-03 0.  1.
         11   -1    0    0    0    0 -0.00000000000E+00 -0.00000000000E+00 -0.45593999997E+02  0.45594000000E+02  0.51100000000E-03 0. -1.
    9900012    2    1    2    0    0  0.98996010325E+01  0.34893411519E+02 -0.23834237851E+02  0.47787272333E+02  0.20000005875E+02 0.  0.
         12    1    1    2    0    0 -0.98996010325E+01 -0.34893411519E+02  0.23834237851E+02  0.43400727667E+02  0.00000000000E+00 0. -1.
         11    1    3    3    0    0 -0.41758321976E+01  0.63913673815E+01  0.14340169077E+00  0.76359489163E+01  0.51100000000E-03 0. -1.
        -11    1    3    3    0    0  0.13165660785E+02  0.21987824889E+02 -0.19044264893E+02  0.31929345324E+02  0.51100000000E-03 0.  1.
         12    1    3    3    0    0  0.90977244471E+00  0.65142192488E+01 -0.49333746490E+01  0.82219780923E+01  0.00000000000E+00 0. -1.
</event>
<event>
 7    1  0.7357971E-011  0.4778727E+02  0.7816164E-02  0.1312668E+00
        -11   -1    0    0    0    0  0.00000000000E+00  0.00000000000E+00  0.45593999997E+02  0.45594000000E+02  0.51100000000E-03 0. -1.
         11   -1    0    0    0    0 -0.00000000000E+00 -0.00000000000E+00 -0.45593999997E+02  0.45594000000E+02  0.51100000000E-03 0.  1.
    9900012    2    1    2    0    0 -0.37447502799E+02  0.68328207081E+01 -0.20847553238E+02  0.47787269814E+02  0.19999994390E+02 0.  0.
         12    1    1    2    0    0  0.37447502799E+02 -0.68328207081E+01  0.20847553238E+02  0.43400730186E+02  0.00000000000E+00 0. -1.
         11    1    3    3    0    0 -0.38250416965E+01 -0.79599532563E+00  0.19987292875E+01  0.43885614459E+01  0.51100000000E-03 0. -1.
        -11    1    3    3    0    0 -0.22787996163E+02  0.11130011868E+02 -0.13913576609E+02  0.28926761790E+02  0.51100000000E-03 0.  1.
        -12    1    3    3    0    0 -0.10834464939E+02 -0.35011958343E+01 -0.89327059161E+01  0.14471946578E+02  0.00000000000E+00 0.  1.
</event>
<event>
 7    1  0.7357971E-011  0.4778727E+02  0.7816164E-02  0.1312668E+00
        -11   -1    0    0    0    0  0.00000000000E+00  0.00000000000E+00  0.45593999997E+02  0.45594000000E+02  0.51100000000E-03 0.  1.
         11   -1    0    0    0    0 -0.00000000000E+00 -0.00000000000E+00 -0.45593999997E+02  0.45594000000E+02  0.51100000000E-03 0. -1.
    9900012    2    1    2    0    0  0.37324903008E+02  0.10003328770E+02  0.19758745171E+02  0.47787274410E+02  0.20000015344E+02 0.  0.
        -12    1    1    2    0    0 -0.37324903008E+02 -0.10003328770E+02 -0.19758745171E+02  0.43400725590E+02  0.00000000000E+00 0.  1.
         11    1    3    3    0    0  0.16928182418E+02  0.97645472049E+01  0.13990496973E+02  0.24034220351E+02  0.51100000000E-03 0. -1.
        -11    1    3    3    0    0  0.76484967425E+01  0.46206801543E+00 -0.30535872911E+01  0.82484789432E+01  0.51100000000E-03 0.  1.
         12    1    3    3    0    0  0.12748223847E+02 -0.22328645081E+00  0.88218354894E+01  0.15504575115E+02  0.00000000000E+00 0. -1.
</event>
<event>
 7    1  0.7357971E-011  0.4778727E+02  0.7816164E-02  0.1312668E+00
        -11   -1    0    0    0    0  0.00000000000E+00  0.00000000000E+00  0.45593999997E+02  0.45594000000E+02  0.51100000000E-03 0. -1.
         11   -1    0    0    0    0 -0.00000000000E+00 -0.00000000000E+00 -0.45593999997E+02  0.45594000000E+02  0.51100000000E-03 0.  1.
    9900012    2    1    2    0    0  0.16468239582E+02 -0.30717861393E+02  0.25861815162E+02  0.47787269511E+02  0.19999993007E+02 0.  0.
        -12    1    1    2    0    0 -0.16468239582E+02  0.30717861393E+02 -0.25861815162E+02  0.43400730489E+02  0.00000000000E+00 0.  1.
         11    1    3    3    0    0  0.80623821030E+01 -0.16073153845E+02  0.35565929651E+01  0.18330238228E+02  0.51100000000E-03 0. -1.
        -11    1    3    3    0    0  0.89583290631E+01 -0.15163686158E+02  0.18367760757E+02  0.25447272408E+02  0.51100000000E-03 0.  1.
        -12    1    3    3    0    0 -0.55247158395E+00  0.51897860968E+00  0.39374614396E+01  0.40097588752E+01  0.00000000000E+00 0.  1.
</event>
<event>
 7    1  0.7357971E-011  0.4778724E+02  0.7816164E-02  0.1312668E+00
        -11   -1    0    0    0    0  0.00000000000E+00  0.00000000000E+00  0.45593999997E+02  0.45594000000E+02  0.51100000000E-03 0. -1.
         11   -1    0    0    0    0 -0.00000000000E+00 -0.00000000000E+00 -0.45593999997E+02  0.45594000000E+02  0.51100000000E-03 0.  1.
    9900012    2    1    2    0    0  0.20589246071E+02  0.34649490396E+02 -0.16097247065E+02  0.47787244229E+02  0.19999877736E+02 0.  0.
         12    1    1    2    0    0 -0.20589246071E+02 -0.34649490396E+02  0.16097247065E+02  0.43400755771E+02  0.00000000000E+00 0. -1.
         11    1    3    3    0    0  0.78248075903E+01  0.56134272104E+01 -0.90622848585E+01  0.13223584461E+02  0.51100000000E-03 0. -1.
        -11    1    3    3    0    0  0.83427863652E+01  0.27815153633E+02 -0.73834868460E+01  0.29963323151E+02  0.51100000000E-03 0.  1.
        -12    1    3    3    0    0  0.44216521157E+01  0.12209095519E+01  0.34852463966E+00  0.46003366171E+01  0.00000000000E+00 0.  1.
</event>
<event>
 7    1  0.7357971E-011  0.4778727E+02  0.7816164E-02  0.1312668E+00
        -11   -1    0    0    0    0  0.00000000000E+00  0.00000000000E+00  0.45593999997E+02  0.45594000000E+02  0.51100000000E-03 0. -1.
         11   -1    0    0    0    0 -0.00000000000E+00 -0.00000000000E+00 -0.45593999997E+02  0.45594000000E+02  0.51100000000E-03 0.  1.
    9900012    2    1    2    0    0  0.85371152374E+01  0.34297176940E+02 -0.25188178583E+02  0.47787273935E+02  0.20000013177E+02 0.  0.
         12    1    1    2    0    0 -0.85371152374E+01 -0.34297176940E+02  0.25188178583E+02  0.43400726065E+02  0.00000000000E+00 0. -1.
         11    1    3    3    0    0  0.64949573552E+01  0.12552968296E+02 -0.17034395323E+01  0.14235982249E+02  0.51100000000E-03 0. -1.
        -11    1    3    3    0    0  0.30513553867E+01  0.22240927163E+02 -0.23393773347E+02  0.32422804358E+02  0.51100000000E-03 0.  1.
         12    1    3    3    0    0 -0.10091975045E+01 -0.49671851857E+00 -0.90965704046E-01  0.11284873278E+01  0.00000000000E+00 0. -1.
</event>
<event>
 7    1  0.7357971E-011  0.4778728E+02  0.7816164E-02  0.1312668E+00
        -11   -1    0    0    0    0  0.00000000000E+00  0.00000000000E+00  0.45593999997E+02  0.45594000000E+02  0.51100000000E-03 0. -1.
         11   -1    0    0    0    0 -0.00000000000E+00 -0.00000000000E+00 -0.45593999997E+02  0.45594000000E+02  0.51100000000E-03 0.  1.
    9900012    2    1    2    0    0  0.46976271231E+01  0.30398028976E+01 -0.43038523068E+02  0.47787279153E+02  0.20000036968E+02 0.  0.
         12    1    1    2    0    0 -0.46976271231E+01 -0.30398028976E+01  0.43038523068E+02  0.43400720847E+02  0.00000000000E+00 0. -1.
         11    1    3    3    0    0  0.11903195572E+01 -0.29488883843E+01  0.85250600273E+00  0.32923502391E+01  0.51100000000E-03 0. -1.
        -11    1    3    3    0    0  0.15721987604E+01  0.13998013541E+01 -0.18558212997E+02  0.18677219351E+02  0.51100000000E-03 0.  1.
         12    1    3    3    0    0  0.19351088056E+01  0.45888899278E+01 -0.25332816073E+02  0.25817709563E+02  0.00000000000E+00 0. -1.
</event>
<event>
 7    1  0.7357971E-011  0.4778727E+02  0.7816164E-02  0.1312668E+00
        -11   -1    0    0    0    0  0.00000000000E+00  0.00000000000E+00  0.45593999997E+02  0.45594000000E+02  0.51100000000E-03 0. -1.
         11   -1    0    0    0    0 -0.00000000000E+00 -0.00000000000E+00 -0.45593999997E+02  0.45594000000E+02  0.51100000000E-03 0.  1.
    9900012    2    1    2    0    0  0.18407641302E+02 -0.17818790310E+02 -0.35032450776E+02  0.47787272428E+02  0.20000006308E+02 0.  0.
         12    1    1    2    0    0 -0.18407641302E+02  0.17818790310E+02  0.35032450776E+02  0.43400727572E+02  0.00000000000E+00 0. -1.
         11    1    3    3    0    0 -0.22402668649E+00  0.14242475377E+01 -0.64055539281E+01  0.65658046263E+01  0.51100000000E-03 0. -1.
        -11    1    3    3    0    0  0.91731533796E+01 -0.17174619921E+02 -0.15374631927E+02  0.24809143869E+02  0.51100000000E-03 0.  1.
        -12    1    3    3    0    0  0.94585146092E+01 -0.20684179262E+01 -0.13252264921E+02  0.16412323933E+02  0.00000000000E+00 0.  1.
</event>
<event>
 7    1  0.7357971E-011  0.4778727E+02  0.7816164E-02  0.1312668E+00
        -11   -1    0    0    0    0  0.00000000000E+00  0.00000000000E+00  0.45593999997E+02  0.45594000000E+02  0.51100000000E-03 0. -1.
         11   -1    0    0    0    0 -0.00000000000E+00 -0.00000000000E+00 -0.45593999997E+02  0.45594000000E+02  0.51100000000E-03 0.  1.
    9900012    2    1    2    0    0 -0.15299622505E+01  0.35375238073E+02 -0.25097312128E+02  0.47787270406E+02  0.19999997091E+02 0.  0.
         12    1    1    2    0    0  0.15299622505E+01 -0.35375238073E+02  0.25097312128E+02  0.43400729594E+02  0.00000000000E+00 0. -1.
         11    1    3    3    0    0  0.63374219598E+00 -0.18011695509E+01 -0.20403976764E+00  0.19202795135E+01  0.51100000000E-03 0. -1.
        -11    1    3    3    0    0  0.19278981439E+01  0.29595310049E+02 -0.17010571629E+02  0.34190038250E+02  0.51100000000E-03 0.  1.
        -12    1    3    3    0    0 -0.40916025903E+01  0.75810975750E+01 -0.78827007316E+01  0.11676952643E+02  0.00000000000E+00 0.  1.
</event>
<event>
 7    1  0.7357971E-011  0.4778726E+02  0.7816164E-02  0.1312668E+00
        -11   -1    0    0    0    0  0.00000000000E+00  0.00000000000E+00  0.45593999997E+02  0.45594000000E+02  0.51100000000E-03 0.  1.
         11   -1    0    0    0    0 -0.00000000000E+00 -0.00000000000E+00 -0.45593999997E+02  0.45594000000E+02  0.51100000000E-03 0. -1.
    9900012    2    1    2    0    0 -0.32014482979E+02  0.20523314009E+02  0.20916267913E+02  0.47787264963E+02  0.19999972273E+02 0.  0.
        -12    1    1    2    0    0  0.32014482979E+02 -0.20523314009E+02 -0.20916267913E+02  0.43400735037E+02  0.00000000000E+00 0.  1.
         11    1    3    3    0    0 -0.14841193602E+02  0.15909168695E+02  0.52384213380E+01  0.22378644607E+02  0.51100000000E-03 0. -1.
        -11    1    3    3    0    0 -0.16188473936E+02  0.64842190264E+01  0.15421701154E+02  0.23279618801E+02  0.51100000000E-03 0.  1.
         12    1    3    3    0    0 -0.98481544124E+00 -0.18700737129E+01  0.25614542166E+00  0.21290015552E+01  0.00000000000E+00 0. -1.
</event>
<event>
 7    1  0.7357971E-011  0.4778727E+02  0.7816164E-02  0.1312668E+00
        -11   -1    0    0    0    0  0.00000000000E+00  0.00000000000E+00  0.45593999997E+02  0.45594000000E+02  0.51100000000E-03 0. -1.
         11   -1    0    0    0    0 -0.00000000000E+00 -0.00000000000E+00 -0.45593999997E+02  0.45594000000E+02  0.51100000000E-03 0.  1.
    9900012    2    1    2    0    0  0.24293191098E+00  0.30583265087E+02  0.30793312469E+02  0.47787271756E+02  0.20000003243E+02 0.  0.
        -12    1    1    2    0    0 -0.24293191098E+00 -0.30583265087E+02 -0.30793312469E+02  0.43400728244E+02  0.00000000000E+00 0.  1.
         11    1    3    3    0    0 -0.23967023261E+01  0.46891536241E+00  0.97240327407E+01  0.10026010007E+02  0.51100000000E-03 0. -1.
        -11    1    3    3    0    0 -0.22432063384E+01  0.33752744708E+01  0.38164680614E+01  0.55668555895E+01  0.51100000000E-03 0.  1.
         12    1    3    3    0    0  0.48828405754E+01  0.26739075254E+02  0.17252811667E+02  0.32194406159E+02  0.00000000000E+00 0. -1.
</event>
<event>
 7    1  0.7357971E-011  0.4778726E+02  0.7816164E-02  0.1312668E+00
        -11   -1    0    0    0    0  0.00000000000E+00  0.00000000000E+00  0.45593999997E+02  0.45594000000E+02  0.51100000000E-03 0. -1.
         11   -1    0    0    0    0 -0.00000000000E+00 -0.00000000000E+00 -0.45593999997E+02  0.45594000000E+02  0.51100000000E-03 0.  1.
    9900012    2    1    2    0    0 -0.14574410417E+02  0.35496375684E+02 -0.20278503442E+02  0.47787264666E+02  0.19999970919E+02 0.  0.
         12    1    1    2    0    0  0.14574410417E+02 -0.35496375684E+02  0.20278503442E+02  0.43400735334E+02  0.00000000000E+00 0. -1.
         11    1    3    3    0    0  0.40702601889E+01  0.56407220796E+01 -0.15795009113E+01  0.71329928483E+01  0.51100000000E-03 0. -1.
        -11    1    3    3    0    0 -0.16103708248E+02  0.28925858608E+02 -0.18539104196E+02  0.37943815045E+02  0.51100000000E-03 0.  1.
        -12    1    3    3    0    0 -0.25409623577E+01  0.92979499603E+00 -0.15989833502E+00  0.27104567725E+01  0.00000000000E+00 0.  1.
</event>
<event>
 7    1  0.7357971E-011  0.4778727E+02  0.7816164E-02  0.1312668E+00
        -11   -1    0    0    0    0  0.00000000000E+00  0.00000000000E+00  0.45593999997E+02  0.45594000000E+02  0.51100000000E-03 0. -1.
         11   -1    0    0    0    0 -0.00000000000E+00 -0.00000000000E+00 -0.45593999997E+02  0.45594000000E+02  0.51100000000E-03 0.  1.
    9900012    2    1    2    0    0 -0.25502049170E+01  0.27863480603E+02 -0.33177491016E+02  0.47787274124E+02  0.20000014040E+02 0.  0.
         12    1    1    2    0    0  0.25502049170E+01 -0.27863480603E+02  0.33177491016E+02  0.43400725876E+02  0.00000000000E+00 0. -1.
         11    1    3    3    0    0  0.37534109452E-03  0.37373584977E+00  0.19112892740E+01  0.19474869901E+01  0.51100000000E-03 0. -1.
        -11    1    3    3    0    0 -0.54311157265E+01  0.23186625633E+02 -0.31710682952E+02  0.39657080576E+02  0.51100000000E-03 0.  1.
         12    1    3    3    0    0  0.28805354685E+01  0.43031191210E+01 -0.33780973377E+01  0.61827065576E+01  0.00000000000E+00 0. -1.
</event>
<event>
 7    1  0.7357971E-011  0.4778727E+02  0.7816164E-02  0.1312668E+00
        -11   -1    0    0    0    0  0.00000000000E+00  0.00000000000E+00  0.45593999997E+02  0.45594000000E+02  0.51100000000E-03 0. -1.
         11   -1    0    0    0    0 -0.00000000000E+00 -0.00000000000E+00 -0.45593999997E+02  0.45594000000E+02  0.51100000000E-03 0.  1.
    9900012    2    1    2    0    0  0.33146269840E+02 -0.14327730616E+02  0.24076211157E+02  0.47787274055E+02  0.20000013725E+02 0.  0.
        -12    1    1    2    0    0 -0.33146269840E+02  0.14327730616E+02 -0.24076211157E+02  0.43400725945E+02  0.00000000000E+00 0.  1.
         11    1    3    3    0    0  0.30594505666E+02 -0.16503442510E+02  0.16828912565E+02  0.38621233668E+02  0.51100000000E-03 0. -1.
        -11    1    3    3    0    0  0.33740278682E+01  0.27961435974E+01  0.66829124739E+01  0.79914831207E+01  0.51100000000E-03 0.  1.
         12    1    3    3    0    0 -0.82226369440E+00 -0.62043170367E+00  0.56438611812E+00  0.11745572665E+01  0.00000000000E+00 0. -1.
</event>
<event>
 7    1  0.8209129E-011  0.4778727E+02  0.7816164E-02  0.1312668E+00
        -11   -1    0    0    0    0  0.00000000000E+00  0.00000000000E+00  0.45593999997E+02  0.45594000000E+02  0.51100000000E-03 0. -1.
         11   -1    0    0    0    0 -0.00000000000E+00 -0.00000000000E+00 -0.45593999997E+02  0.45594000000E+02  0.51100000000E-03 0.  1.
    9900012    2    1    2    0    0 -0.27359826823E+02 -0.11963113248E+02 -0.31495190297E+02  0.47787271732E+02  0.20000003133E+02 0.  0.
         12    1    1    2    0    0  0.27359826823E+02  0.11963113248E+02  0.31495190297E+02  0.43400728268E+02  0.00000000000E+00 0. -1.
         11    1    3    3    0    0 -0.26053845434E+01  0.14526076884E+01 -0.15044927189E+01  0.33408975317E+01  0.51100000000E-03 0. -1.
        -11    1    3    3    0    0 -0.19624627900E+02 -0.48325892444E+01 -0.11065100158E+02  0.23041622790E+02  0.51100000000E-03 0.  1.
        -12    1    3    3    0    0 -0.51298143798E+01 -0.85831316920E+01 -0.18925597420E+02  0.21404751410E+02  0.00000000000E+00 0.  1.
</event>
<event>
 7    1  0.7357971E-011  0.4778727E+02  0.7816164E-02  0.1312668E+00
        -11   -1    0    0    0    0  0.00000000000E+00  0.00000000000E+00  0.45593999997E+02  0.45594000000E+02  0.51100000000E-03 0. -1.
         11   -1    0    0    0    0 -0.00000000000E+00 -0.00000000000E+00 -0.45593999997E+02  0.45594000000E+02  0.51100000000E-03 0.  1.
    9900012    2    1    2    0    0 -0.25102405093E+00  0.18932386275E+02  0.39052851619E+02  0.47787268638E+02  0.19999989029E+02 0.  0.
        -12    1    1    2    0    0  0.25102405093E+00 -0.18932386275E+02 -0.39052851619E+02  0.43400731362E+02  0.00000000000E+00 0.  1.
         11    1    3    3    0    0 -0.93994682221E+01  0.77728642500E+01  0.16289050281E+02  0.20349461438E+02  0.51100000000E-03 0. -1.
        -11    1    3    3    0    0  0.90087211076E+00  0.35792704495E+01  0.31581742724E+01  0.48576550419E+01  0.51100000000E-03 0.  1.
         12    1    3    3    0    0  0.82475720604E+01  0.75802515753E+01  0.19605627066E+02  0.22580152158E+02  0.00000000000E+00 0. -1.
</event>
<event>
 7    1  0.7357971E-011  0.4778727E+02  0.7816164E-02  0.1312668E+00
        -11   -1    0    0    0    0  0.00000000000E+00  0.00000000000E+00  0.45593999997E+02  0.45594000000E+02  0.51100000000E-03 0. -1.
         11   -1    0    0    0    0 -0.00000000000E+00 -0.00000000000E+00 -0.45593999997E+02  0.45594000000E+02  0.51100000000E-03 0.  1.
    9900012    2    1    2    0    0  0.37741564643E+01 -0.15941862456E+02  0.40189998633E+02  0.47787271600E+02  0.20000002532E+02 0.  0.
        -12    1    1    2    0    0 -0.37741564643E+01  0.15941862456E+02 -0.40189998633E+02  0.43400728400E+02  0.00000000000E+00 0.  1.
         11    1    3    3    0    0 -0.36063254482E+01 -0.41438427789E+01  0.16957211897E+02  0.17824815617E+02  0.51100000000E-03 0. -1.
        -11    1    3    3    0    0  0.10139205766E+02 -0.50837708504E+01  0.11405038349E+02  0.16084872385E+02  0.51100000000E-03 0.  1.
        -12    1    3    3    0    0 -0.27587238538E+01 -0.67142488262E+01  0.11827748387E+02  0.13877583598E+02  0.00000000000E+00 0.  1.
</event>
<event>
 7    1  0.7357971E-011  0.4778727E+02  0.7816164E-02  0.1312668E+00
        -11   -1    0    0    0    0  0.00000000000E+00  0.00000000000E+00  0.45593999997E+02  0.45594000000E+02  0.51100000000E-03 0. -1.
         11   -1    0    0    0    0 -0.00000000000E+00 -0.00000000000E+00 -0.45593999997E+02  0.45594000000E+02  0.51100000000E-03 0.  1.
    9900012    2    1    2    0    0  0.69026727539E+00 -0.97750391863E+01  0.42279965043E+02  0.47787270697E+02  0.19999998414E+02 0.  0.
        -12    1    1    2    0    0 -0.69026727539E+00  0.97750391863E+01 -0.42279965043E+02  0.43400729303E+02  0.00000000000E+00 0.  1.
         11    1    3    3    0    0 -0.22198082812E+01  0.33017876926E+01  0.14483749663E+02  0.15020264822E+02  0.51100000000E-03 0. -1.
        -11    1    3    3    0    0 -0.90845250760E+00 -0.12803348997E+02  0.24728317166E+02  0.27861096562E+02  0.51100000000E-03 0.  1.
        -12    1    3    3    0    0  0.38185280642E+01 -0.27347788155E+00  0.30678982141E+01  0.49059093123E+01  0.00000000000E+00 0.  1.
</event>
<event>
 7    1  0.7357971E-011  0.4778727E+02  0.7816164E-02  0.1312668E+00
        -11   -1    0    0    0    0  0.00000000000E+00  0.00000000000E+00  0.45593999997E+02  0.45594000000E+02  0.51100000000E-03 0. -1.
         11   -1    0    0    0    0 -0.00000000000E+00 -0.00000000000E+00 -0.45593999997E+02  0.45594000000E+02  0.51100000000E-03 0.  1.
    9900012    2    1    2    0    0 -0.17216932748E+02 -0.25480256994E+02  0.30626083995E+02  0.47787270852E+02  0.19999999122E+02 0.  0.
        -12    1    1    2    0    0  0.17216932748E+02  0.25480256994E+02 -0.30626083995E+02  0.43400729148E+02  0.00000000000E+00 0.  1.
         11    1    3    3    0    0  0.15556250744E+01 -0.13214831108E+01  0.12782717022E+01  0.24083740968E+01  0.51100000000E-03 0. -1.
        -11    1    3    3    0    0 -0.86958313680E+01 -0.29052739368E+00  0.71398246352E+01  0.11255175940E+02  0.51100000000E-03 0.  1.
        -12    1    3    3    0    0 -0.10076726454E+02 -0.23868246489E+02  0.22207987658E+02  0.34123720816E+02  0.00000000000E+00 0.  1.
</event>
<event>
 7    1  0.7357971E-011  0.4778727E+02  0.7816164E-02  0.1312668E+00
        -11   -1    0    0    0    0  0.00000000000E+00  0.00000000000E+00  0.45593999997E+02  0.45594000000E+02  0.51100000000E-03 0. -1.
         11   -1    0    0    0    0 -0.00000000000E+00 -0.00000000000E+00 -0.45593999997E+02  0.45594000000E+02  0.51100000000E-03 0.  1.
    9900012    2    1    2    0    0 -0.27280025132E+02  0.22132128078E+02 -0.25487101578E+02  0.47787271765E+02  0.20000003285E+02 0.  0.
         12    1    1    2    0    0  0.27280025132E+02 -0.22132128078E+02  0.25487101578E+02  0.43400728235E+02  0.00000000000E+00 0. -1.
         11    1    3    3    0    0 -0.11268087897E+02  0.17099330759E+02 -0.10747114757E+02  0.23126984091E+02  0.51100000000E-03 0. -1.
        -11    1    3    3    0    0 -0.12664627838E+02  0.17371834412E+01 -0.15291193402E+02  0.19930659811E+02  0.51100000000E-03 0.  1.
        -12    1    3    3    0    0 -0.33473093973E+01  0.32956138775E+01  0.55120658106E+00  0.47296278634E+01  0.00000000000E+00 0.  1.
</event>
<event>
 7    1  0.7357971E-011  0.4778727E+02  0.7816164E-02  0.1312668E+00
        -11   -1    0    0    0    0  0.00000000000E+00  0.00000000000E+00  0.45593999997E+02  0.45594000000E+02  0.51100000000E-03 0. -1.
         11   -1    0    0    0    0 -0.00000000000E+00 -0.00000000000E+00 -0.45593999997E+02  0.45594000000E+02  0.51100000000E-03 0.  1.
    9900012    2    1    2    0    0  0.12285371251E+02 -0.40822493859E+02  0.81373651849E+01  0.47787273465E+02  0.20000011036E+02 0.  0.
        -12    1    1    2    0    0 -0.12285371251E+02  0.40822493859E+02 -0.81373651849E+01  0.43400726535E+02  0.00000000000E+00 0.  1.
         11    1    3    3    0    0 -0.19639748987E+01 -0.14491952074E+02  0.28639141132E+00  0.14627231202E+02  0.51100000000E-03 0. -1.
        -11    1    3    3    0    0  0.71960160389E+01 -0.30429037413E+01  0.96637012111E+00  0.78724698465E+01  0.51100000000E-03 0.  1.
        -12    1    3    3    0    0  0.70533301111E+01 -0.23287638043E+02  0.68846036525E+01  0.25287572417E+02  0.00000000000E+00 0.  1.
</event>
<event>
 7    1  0.7357971E-011  0.4778727E+02  0.7816164E-02  0.1312668E+00
        -11   -1    0    0    0    0  0.00000000000E+00  0.00000000000E+00  0.45593999997E+02  0.45594000000E+02  0.51100000000E-03 0. -1.
         11   -1    0    0    0    0 -0.00000000000E+00 -0.00000000000E+00 -0.45593999997E+02  0.45594000000E+02  0.51100000000E-03 0.  1.
    9900012    2    1    2    0    0  0.28211324647E+02  0.42080931029E+01 -0.32711410014E+02  0.47787271539E+02  0.20000002254E+02 0.  0.
         12    1    1    2    0    0 -0.28211324647E+02 -0.42080931029E+01  0.32711410014E+02  0.43400728461E+02  0.00000000000E+00 0. -1.
         11    1    3    3    0    0  0.12354850792E+02  0.10480856979E+02 -0.98183846899E+01  0.18944428713E+02  0.51100000000E-03 0. -1.
        -11    1    3    3    0    0  0.11838068388E+02 -0.27962547743E+01 -0.14735997320E+02  0.19107813094E+02  0.51100000000E-03 0.  1.
         12    1    3    3    0    0  0.40184054668E+01 -0.34765091018E+01 -0.81570280034E+01  0.97350297318E+01  0.00000000000E+00 0. -1.
</event>
<event>
 7    1  0.7357971E-011  0.4778723E+02  0.7816164E-02  0.1312668E+00
        -11   -1    0    0    0    0  0.00000000000E+00  0.00000000000E+00  0.45593999997E+02  0.45594000000E+02  0.51100000000E-03 0. -1.
         11   -1    0    0    0    0 -0.00000000000E+00 -0.00000000000E+00 -0.45593999997E+02  0.45594000000E+02  0.51100000000E-03 0.  1.
    9900012    2    1    2    0    0 -0.14220775973E+02  0.28965854207E+02 -0.29023701395E+02  0.47787234778E+02  0.19999834646E+02 0.  0.
         12    1    1    2    0    0  0.14220775973E+02 -0.28965854207E+02  0.29023701395E+02  0.43400765222E+02  0.00000000000E+00 0. -1.
         11    1    3    3    0    0 -0.11415632370E+02  0.79466953109E+01 -0.58820370318E+01  0.15101820707E+02  0.51100000000E-03 0. -1.
        -11    1    3    3    0    0 -0.41516472990E+01  0.20782732330E+02 -0.19514885809E+02  0.28809528055E+02  0.51100000000E-03 0.  1.
         12    1    3    3    0    0  0.13465036954E+01  0.23642656605E+00 -0.36267785547E+01  0.38758860158E+01  0.00000000000E+00 0. -1.
</event>
<event>
 7    1  0.7357971E-011  0.4778726E+02  0.7816164E-02  0.1312668E+00
        -11   -1    0    0    0    0  0.00000000000E+00  0.00000000000E+00  0.45593999997E+02  0.45594000000E+02  0.51100000000E-03 0.  1.
         11   -1    0    0    0    0 -0.00000000000E+00 -0.00000000000E+00 -0.45593999997E+02  0.45594000000E+02  0.51100000000E-03 0. -1.
    9900012    2    1    2    0    0 -0.43351913523E+02 -0.17329699899E+01 -0.11101228424E+01  0.47787263096E+02  0.19999963758E+02 0.  0.
         12    1    1    2    0    0  0.43351913523E+02  0.17329699899E+01  0.11101228424E+01  0.43400736904E+02  0.00000000000E+00 0. -1.
         11    1    3    3    0    0 -0.18869666714E+02  0.41675309126E+01 -0.66933112970E+01  0.20450746984E+02  0.51100000000E-03 0. -1.
        -11    1    3    3    0    0 -0.18069524121E+02 -0.77545408274E+01  0.62384277183E+01  0.20629071381E+02  0.51100000000E-03 0.  1.
        -12    1    3    3    0    0 -0.64127226886E+01  0.18540399249E+01 -0.65523926373E+00  0.67074447308E+01  0.00000000000E+00 0.  1.
</event>
<event>
 7    1  0.7357971E-011  0.4778727E+02  0.7816164E-02  0.1312668E+00
        -11   -1    0    0    0    0  0.00000000000E+00  0.00000000000E+00  0.45593999997E+02  0.45594000000E+02  0.51100000000E-03 0.  1.
         11   -1    0    0    0    0 -0.00000000000E+00 -0.00000000000E+00 -0.45593999997E+02  0.45594000000E+02  0.51100000000E-03 0. -1.
    9900012    2    1    2    0    0  0.35394024651E+02  0.24904410876E+02 -0.32644422745E+01  0.47787271372E+02  0.20000001492E+02 0.  0.
         12    1    1    2    0    0 -0.35394024651E+02 -0.24904410876E+02  0.32644422745E+01  0.43400728628E+02  0.00000000000E+00 0. -1.
         11    1    3    3    0    0 -0.94823548514E+00  0.36813127668E+01 -0.10953898032E+01  0.39561462693E+01  0.51100000000E-03 0. -1.
        -11    1    3    3    0    0  0.27654832873E+02  0.17820476749E+02 -0.65157725921E+01  0.33538253764E+02  0.51100000000E-03 0.  1.
         12    1    3    3    0    0  0.86874272634E+01  0.34026213601E+01  0.43467201208E+01  0.10292871338E+02  0.00000000000E+00 0. -1.
</event>
<event>
 7    1  0.7357971E-011  0.4778728E+02  0.7816164E-02  0.1312668E+00
        -11   -1    0    0    0    0  0.00000000000E+00  0.00000000000E+00  0.45593999997E+02  0.45594000000E+02  0.51100000000E-03 0. -1.
         11   -1    0    0    0    0 -0.00000000000E+00 -0.00000000000E+00 -0.45593999997E+02  0.45594000000E+02  0.51100000000E-03 0.  1.
    9900012    2    1    2    0    0 -0.11167172951E+02 -0.28241147607E+02 -0.31005713486E+02  0.47787280666E+02  0.20000043870E+02 0.  0.
         12    1    1    2    0    0  0.11167172951E+02  0.28241147607E+02  0.31005713486E+02  0.43400719334E+02  0.00000000000E+00 0. -1.
         11    1    3    3    0    0 -0.18829531585E+01 -0.30735843926E+01 -0.60644499752E+01  0.70547847152E+01  0.51100000000E-03 0. -1.
        -11    1    3    3    0    0 -0.37947342895E+01 -0.43108050611E+01 -0.16673705762E+02  0.17635064862E+02  0.51100000000E-03 0.  1.
        -12    1    3    3    0    0 -0.54894855029E+01 -0.20856758154E+02 -0.82675577493E+01  0.23097431089E+02  0.00000000000E+00 0.  1.
</event>
<event>
 7    1  0.7357971E-011  0.4778726E+02  0.7816164E-02  0.1312668E+00
        -11   -1    0    0    0    0  0.00000000000E+00  0.00000000000E+00  0.45593999997E+02  0.45594000000E+02  0.51100000000E-03 0.  1.
         11   -1    0    0    0    0 -0.00000000000E+00 -0.00000000000E+00 -0.45593999997E+02  0.45594000000E+02  0.51100000000E-03 0. -1.
    9900012    2    1    2    0    0 -0.11019248472E+02  0.31473836656E+02 -0.27777646773E+02  0.47787263935E+02  0.19999967585E+02 0.  0.
         12    1    1    2    0    0  0.11019248472E+02 -0.31473836656E+02  0.27777646773E+02  0.43400736065E+02  0.00000000000E+00 0. -1.
         11    1    3    3    0    0 -0.61607392494E+01  0.20770398557E+02 -0.73448534295E+01  0.22875992579E+02  0.51100000000E-03 0.  1.
        -11    1    3    3    0    0 -0.20506841415E+01  0.98904665282E+01 -0.19286417825E+02  0.21771369878E+02  0.51100000000E-03 0. -1.
         12    1    3    3    0    0 -0.28078250813E+01  0.81297157115E+00 -0.11463755184E+01  0.31399014781E+01  0.00000000000E+00 0. -1.
</event>
<event>
 7    1  0.7357971E-011  0.4778732E+02  0.7816164E-02  0.1312668E+00
        -11   -1    0    0    0    0  0.00000000000E+00  0.00000000000E+00  0.45593999997E+02  0.45594000000E+02  0.51100000000E-03 0. -1.
         11   -1    0    0    0    0 -0.00000000000E+00 -0.00000000000E+00 -0.45593999997E+02  0.45594000000E+02  0.51100000000E-03 0.  1.
    9900012    2    1    2    0    0 -0.10585659259E+02  0.41282798907E+01 -0.41886997082E+02  0.47787315658E+02  0.20000203411E+02 0.  0.
         12    1    1    2    0    0  0.10585659259E+02 -0.41282798907E+01  0.41886997082E+02  0.43400684342E+02  0.00000000000E+00 0. -1.
         11    1    3    3    0    0 -0.44137815674E+00 -0.90717519897E+00  0.69272926256E+00  0.12237874044E+01  0.51100000000E-03 0. -1.
        -11    1    3    3    0    0 -0.10761704726E+02 -0.22110905494E+01 -0.19709281793E+02  0.22564551826E+02  0.51100000000E-03 0.  1.
        -12    1    3    3    0    0  0.61742362354E+00  0.72465456392E+01 -0.22870444551E+02  0.23998976428E+02  0.00000000000E+00 0.  1.
</event>
<event>
 7    1  0.7357971E-011  0.4778727E+02  0.7816164E-02  0.1312668E+00
        -11   -1    0    0    0    0  0.00000000000E+00  0.00000000000E+00  0.45593999997E+02  0.45594000000E+02  0.51100000000E-03 0.  1.
         11   -1    0    0    0    0 -0.00000000000E+00 -0.00000000000E+00 -0.45593999997E+02  0.45594000000E+02  0.51100000000E-03 0. -1.
    9900012    2    1    2    0    0  0.10482222608E+02 -0.41394381685E+02 -0.77621692652E+01  0.47787273075E+02  0.20000009258E+02 0.  0.
         12    1    1    2    0    0 -0.10482222608E+02  0.41394381685E+02  0.77621692652E+01  0.43400726925E+02  0.00000000000E+00 0. -1.
         11    1    3    3    0    0  0.11229593705E+01 -0.12628908168E+02 -0.80120499077E+01  0.14998109989E+02  0.51100000000E-03 0. -1.
        -11    1    3    3    0    0  0.92909784194E+00 -0.81846490603E+01  0.55416558530E+01  0.99278221627E+01  0.51100000000E-03 0.  1.
        -12    1    3    3    0    0  0.84301653952E+01 -0.20580824457E+02 -0.52917752106E+01  0.22861340923E+02  0.00000000000E+00 0.  1.
</event>
<event>
 7    1  0.7357971E-011  0.4778727E+02  0.7816164E-02  0.1312668E+00
        -11   -1    0    0    0    0  0.00000000000E+00  0.00000000000E+00  0.45593999997E+02  0.45594000000E+02  0.51100000000E-03 0. -1.
         11   -1    0    0    0    0 -0.00000000000E+00 -0.00000000000E+00 -0.45593999997E+02  0.45594000000E+02  0.51100000000E-03 0.  1.
    9900012    2    1    2    0    0  0.45604979158E+01 -0.72551774188E+01 -0.42546295197E+02  0.47787274480E+02  0.20000015665E+02 0.  0.
         12    1    1    2    0    0 -0.45604979158E+01  0.72551774188E+01  0.42546295197E+02  0.43400725520E+02  0.00000000000E+00 0. -1.
         11    1    3    3    0    0 -0.93303043866E+00 -0.36905500821E+01 -0.32982951816E+02  0.33201894773E+02  0.51100000000E-03 0.  1.
        -11    1    3    3    0    0  0.78109393919E+01 -0.30683860413E+01 -0.86320388561E+01  0.12039014169E+02  0.51100000000E-03 0. -1.
         12    1    3    3    0    0 -0.23174110374E+01 -0.49624129534E+00 -0.93130452499E+00  0.25463655389E+01  0.00000000000E+00 0. -1.
</event>
<event>
 7    1  0.7357971E-011  0.4778727E+02  0.7816164E-02  0.1312668E+00
        -11   -1    0    0    0    0  0.00000000000E+00  0.00000000000E+00  0.45593999997E+02  0.45594000000E+02  0.51100000000E-03 0. -1.
         11   -1    0    0    0    0 -0.00000000000E+00 -0.00000000000E+00 -0.45593999997E+02  0.45594000000E+02  0.51100000000E-03 0.  1.
    9900012    2    1    2    0    0  0.19522318562E+02  0.27061932581E+02 -0.27751653525E+02  0.47787269702E+02  0.19999993878E+02 0.  0.
         12    1    1    2    0    0 -0.19522318562E+02 -0.27061932581E+02  0.27751653525E+02  0.43400730298E+02  0.00000000000E+00 0. -1.
         11    1    3    3    0    0 -0.27148400676E+01  0.11377902913E+01 -0.42828893763E+00  0.29746184654E+01  0.51100000000E-03 0. -1.
        -11    1    3    3    0    0  0.12595326146E+02  0.20996418864E+02 -0.16656628241E+02  0.29613090188E+02  0.51100000000E-03 0.  1.
        -12    1    3    3    0    0  0.96418324830E+01  0.49277234261E+01 -0.10666736346E+02  0.15199561049E+02  0.00000000000E+00 0.  1.
</event>
<event>
 7    1  0.7357971E-011  0.4778727E+02  0.7816164E-02  0.1312668E+00
        -11   -1    0    0    0    0  0.00000000000E+00  0.00000000000E+00  0.45593999997E+02  0.45594000000E+02  0.51100000000E-03 0. -1.
         11   -1    0    0    0    0 -0.00000000000E+00 -0.00000000000E+00 -0.45593999997E+02  0.45594000000E+02  0.51100000000E-03 0.  1.
    9900012    2    1    2    0    0 -0.11344557233E+02 -0.30707757706E+02  0.28494875944E+02  0.47787270545E+02  0.19999997723E+02 0.  0.
        -12    1    1    2    0    0  0.11344557233E+02  0.30707757706E+02 -0.28494875944E+02  0.43400729455E+02  0.00000000000E+00 0.  1.
         11    1    3    3    0    0  0.26916406050E+01 -0.51010289077E+01  0.24320498608E+00  0.57727440606E+01  0.51100000000E-03 0. -1.
        -11    1    3    3    0    0  0.11675426461E+01 -0.52748633335E+01  0.73946778359E+01  0.91579801035E+01  0.51100000000E-03 0.  1.
         12    1    3    3    0    0 -0.15203740484E+02 -0.20331865465E+02  0.20856993122E+02  0.32856546381E+02  0.00000000000E+00 0. -1.
</event>
<event>
 7    1  0.7357971E-011  0.4778725E+02  0.7816164E-02  0.1312668E+00
        -11   -1    0    0    0    0  0.00000000000E+00  0.00000000000E+00  0.45593999997E+02  0.45594000000E+02  0.51100000000E-03 0. -1.
         11   -1    0    0    0    0 -0.00000000000E+00 -0.00000000000E+00 -0.45593999997E+02  0.45594000000E+02  0.51100000000E-03 0.  1.
    9900012    2    1    2    0    0  0.34681872559E+02 -0.24403630883E+02 -0.92334134545E+01  0.47787246452E+02  0.19999887874E+02 0.  0.
        -12    1    1    2    0    0 -0.34681872559E+02  0.24403630883E+02  0.92334134545E+01  0.43400753548E+02  0.00000000000E+00 0.  1.
         11    1    3    3    0    0  0.97685145693E+01 -0.57388308510E+01 -0.21035440222E+01  0.11523148621E+02  0.51100000000E-03 0. -1.
        -11    1    3    3    0    0  0.21704953672E+02 -0.21921708055E+02 -0.51244950743E+01  0.31271820349E+02  0.51100000000E-03 0.  1.
        -12    1    3    3    0    0  0.32084043181E+01  0.32569080229E+01 -0.20053743580E+01  0.49922774817E+01  0.00000000000E+00 0.  1.
</event>
<event>
 7    1  0.7357971E-011  0.4778727E+02  0.7816164E-02  0.1312668E+00
        -11   -1    0    0    0    0  0.00000000000E+00  0.00000000000E+00  0.45593999997E+02  0.45594000000E+02  0.51100000000E-03 0. -1.
         11   -1    0    0    0    0 -0.00000000000E+00 -0.00000000000E+00 -0.45593999997E+02  0.45594000000E+02  0.51100000000E-03 0.  1.
    9900012    2    1    2    0    0 -0.26029539460E+02  0.57215826606E+01  0.34254195140E+02  0.47787270544E+02  0.19999997720E+02 0.  0.
        -12    1    1    2    0    0  0.26029539460E+02 -0.57215826606E+01 -0.34254195140E+02  0.43400729456E+02  0.00000000000E+00 0.  1.
         11    1    3    3    0    0 -0.41870640168E+01  0.25773991335E+01  0.19021609130E+02  0.19646783593E+02  0.51100000000E-03 0. -1.
        -11    1    3    3    0    0 -0.21633374948E+01  0.20960414011E+01  0.52417418692E+01  0.60455997846E+01  0.51100000000E-03 0.  1.
         12    1    3    3    0    0 -0.19679137948E+02  0.10481421261E+01  0.99908441400E+01  0.22094887167E+02  0.00000000000E+00 0. -1.
</event>
<event>
 7    1  0.7357971E-011  0.4778727E+02  0.7816164E-02  0.1312668E+00
        -11   -1    0    0    0    0  0.00000000000E+00  0.00000000000E+00  0.45593999997E+02  0.45594000000E+02  0.51100000000E-03 0. -1.
         11   -1    0    0    0    0 -0.00000000000E+00 -0.00000000000E+00 -0.45593999997E+02  0.45594000000E+02  0.51100000000E-03 0.  1.
    9900012    2    1    2    0    0  0.34540573956E+00 -0.36933698907E+02  0.22790472929E+02  0.47787273320E+02  0.20000010375E+02 0.  0.
        -12    1    1    2    0    0 -0.34540573956E+00  0.36933698907E+02 -0.22790472929E+02  0.43400726680E+02  0.00000000000E+00 0.  1.
         11    1    3    3    0    0 -0.46760437673E+01 -0.20304493140E+02  0.53957891224E+01  0.21523298248E+02  0.51100000000E-03 0. -1.
        -11    1    3    3    0    0  0.41933017059E+01 -0.22309261715E+01  0.71091380577E+01  0.85498921024E+01  0.51100000000E-03 0.  1.
         12    1    3    3    0    0  0.82814780096E+00 -0.14398279595E+02  0.10285545749E+02  0.17714082969E+02  0.00000000000E+00 0. -1.
</event>
<event>
 7    1  0.7357971E-011  0.4778727E+02  0.7816164E-02  0.1312668E+00
        -11   -1    0    0    0    0  0.00000000000E+00  0.00000000000E+00  0.45593999997E+02  0.45594000000E+02  0.51100000000E-03 0. -1.
         11   -1    0    0    0    0 -0.00000000000E+00 -0.00000000000E+00 -0.45593999997E+02  0.45594000000E+02  0.51100000000E-03 0.  1.
    9900012    2    1    2    0    0 -0.76994415801E+01  0.15799763250E+02 -0.39682605231E+02  0.47787273309E+02  0.20000010323E+02 0.  0.
         12    1    1    2    0    0  0.76994415801E+01 -0.15799763250E+02  0.39682605231E+02  0.43400726691E+02  0.00000000000E+00 0. -1.
         11    1    3    3    0    0 -0.21491586091E+00 -0.55844382101E+00 -0.64261520435E+01  0.64539506255E+01  0.51100000000E-03 0. -1.
        -11    1    3    3    0    0 -0.42537389910E+01 -0.13624772745E+01 -0.13035139417E+01  0.46529333312E+01  0.51100000000E-03 0.  1.
        -12    1    3    3    0    0 -0.32307867283E+01  0.17720684346E+02 -0.31952939246E+02  0.36680389352E+02  0.00000000000E+00 0.  1.
</event>
<event>
 7    1  0.7357971E-011  0.4778728E+02  0.7816164E-02  0.1312668E+00
        -11   -1    0    0    0    0  0.00000000000E+00  0.00000000000E+00  0.45593999997E+02  0.45594000000E+02  0.51100000000E-03 0. -1.
         11   -1    0    0    0    0 -0.00000000000E+00 -0.00000000000E+00 -0.45593999997E+02  0.45594000000E+02  0.51100000000E-03 0.  1.
    9900012    2    1    2    0    0  0.33359364950E+02 -0.49097275022E+01 -0.27325259924E+02  0.47787280145E+02  0.20000041495E+02 0.  0.
         12    1    1    2    0    0 -0.33359364950E+02  0.49097275022E+01  0.27325259924E+02  0.43400719855E+02  0.00000000000E+00 0. -1.
         11    1    3    3    0    0  0.30545073853E+01 -0.32332851497E+01 -0.11027480152E+02  0.11890730297E+02  0.51100000000E-03 0. -1.
        -11    1    3    3    0    0  0.49515755627E+01  0.30184924700E+01 -0.53301923534E+01  0.78765695661E+01  0.51100000000E-03 0.  1.
         12    1    3    3    0    0  0.25353282002E+02 -0.46949348225E+01 -0.10967587418E+02  0.28019980282E+02  0.00000000000E+00 0. -1.
</event>
<event>
 7    1  0.7357971E-011  0.4778727E+02  0.7816164E-02  0.1312668E+00
        -11   -1    0    0    0    0  0.00000000000E+00  0.00000000000E+00  0.45593999997E+02  0.45594000000E+02  0.51100000000E-03 0. -1.
         11   -1    0    0    0    0 -0.00000000000E+00 -0.00000000000E+00 -0.45593999997E+02  0.45594000000E+02  0.51100000000E-03 0.  1.
    9900012    2    1    2    0    0  0.90714691396E+01 -0.38953905620E+02 -0.16850068784E+02  0.47787272663E+02  0.20000007378E+02 0.  0.
         12    1    1    2    0    0 -0.90714691396E+01  0.38953905620E+02  0.16850068784E+02  0.43400727337E+02  0.00000000000E+00 0. -1.
         11    1    3    3    0    0  0.98384886308E+01 -0.17349804531E+02 -0.34351198210E+01  0.20238864203E+02  0.51100000000E-03 0. -1.
        -11    1    3    3    0    0 -0.42093315618E+01 -0.33860251488E+01 -0.19176244259E+01  0.57324446971E+01  0.51100000000E-03 0.  1.
        -12    1    3    3    0    0  0.34423120706E+01 -0.18218075940E+02 -0.11497324537E+02  0.21815963762E+02  0.00000000000E+00 0.  1.
</event>
<event>
 7    1  0.7357971E-011  0.4778725E+02  0.7816164E-02  0.1312668E+00
        -11   -1    0    0    0    0  0.00000000000E+00  0.00000000000E+00  0.45593999997E+02  0.45594000000E+02  0.51100000000E-03 0. -1.
         11   -1    0    0    0    0 -0.00000000000E+00 -0.00000000000E+00 -0.45593999997E+02  0.45594000000E+02  0.51100000000E-03 0.  1.
    9900012    2    1    2    0    0 -0.24342438417E+02 -0.47152474787E+01 -0.35620742322E+02  0.47787249425E+02  0.19999901428E+02 0.  0.
         12    1    1    2    0    0  0.24342438417E+02  0.47152474787E+01  0.35620742322E+02  0.43400750575E+02  0.00000000000E+00 0. -1.
         11    1    3    3    0    0 -0.69521014744E+01  0.38576958236E+01 -0.18764733602E+02  0.20379616272E+02  0.51100000000E-03 0. -1.
        -11    1    3    3    0    0 -0.93045540737E+01  0.15976069211E+00 -0.10053803253E+02  0.13699606203E+02  0.51100000000E-03 0.  1.
         12    1    3    3    0    0 -0.80857828695E+01 -0.87327039944E+01 -0.68022054671E+01  0.13708026951E+02  0.00000000000E+00 0. -1.
</event>
<event>
 7    1  0.7357971E-011  0.4778727E+02  0.7816164E-02  0.1312668E+00
        -11   -1    0    0    0    0  0.00000000000E+00  0.00000000000E+00  0.45593999997E+02  0.45594000000E+02  0.51100000000E-03 0. -1.
         11   -1    0    0    0    0 -0.00000000000E+00 -0.00000000000E+00 -0.45593999997E+02  0.45594000000E+02  0.51100000000E-03 0.  1.
    9900012    2    1    2    0    0  0.33224503407E+02  0.37410763630E+01  0.27672365920E+02  0.47787272879E+02  0.20000008364E+02 0.  0.
        -12    1    1    2    0    0 -0.33224503407E+02 -0.37410763630E+01 -0.27672365920E+02  0.43400727121E+02  0.00000000000E+00 0.  1.
         11    1    3    3    0    0  0.26086032006E+02 -0.19002863601E+00  0.28678510591E+02  0.38768210517E+02  0.51100000000E-03 0. -1.
        -11    1    3    3    0    0  0.75019766343E+01  0.36674910294E+01 -0.13429466477E+01  0.84577567849E+01  0.51100000000E-03 0.  1.
         12    1    3    3    0    0 -0.36350523282E+00  0.26361396959E+00  0.33680197725E+00  0.56130557731E+00  0.00000000000E+00 0. -1.
</event>
<event>
 7    1  0.7357971E-011  0.4778728E+02  0.7816164E-02  0.1312668E+00
        -11   -1    0    0    0    0  0.00000000000E+00  0.00000000000E+00  0.45593999997E+02  0.45594000000E+02  0.51100000000E-03 0. -1.
         11   -1    0    0    0    0 -0.00000000000E+00 -0.00000000000E+00 -0.45593999997E+02  0.45594000000E+02  0.51100000000E-03 0.  1.
    9900012    2    1    2    0    0 -0.38171802664E+02  0.70439062241E+01 -0.19414421690E+02  0.47787275316E+02  0.20000019475E+02 0.  0.
         12    1    1    2    0    0  0.38171802664E+02 -0.70439062241E+01  0.19414421690E+02  0.43400724684E+02  0.00000000000E+00 0. -1.
         11    1    3    3    0    0 -0.57169466527E+01  0.24279291573E+01 -0.10474783165E+02  0.12177824175E+02  0.51100000000E-03 0.  1.
        -11    1    3    3    0    0 -0.30007708431E+02  0.90221493162E+00 -0.77402610669E+01  0.31003035315E+02  0.51100000000E-03 0. -1.
         12    1    3    3    0    0 -0.24471475806E+01  0.37137621352E+01 -0.11993774589E+01  0.46064158265E+01  0.00000000000E+00 0. -1.
</event>
<event>
 7    1  0.7357971E-011  0.4778727E+02  0.7816164E-02  0.1312668E+00
        -11   -1    0    0    0    0  0.00000000000E+00  0.00000000000E+00  0.45593999997E+02  0.45594000000E+02  0.51100000000E-03 0. -1.
         11   -1    0    0    0    0 -0.00000000000E+00 -0.00000000000E+00 -0.45593999997E+02  0.45594000000E+02  0.51100000000E-03 0.  1.
    9900012    2    1    2    0    0 -0.31230749222E+01  0.19906221655E+02  0.38439720935E+02  0.47787269556E+02  0.19999993212E+02 0.  0.
        -12    1    1    2    0    0  0.31230749222E+01 -0.19906221655E+02 -0.38439720935E+02  0.43400730444E+02  0.00000000000E+00 0.  1.
         11    1    3    3    0    0 -0.37133111573E+01 -0.10481884654E+00  0.10457027715E+02  0.11097256221E+02  0.51100000000E-03 0. -1.
        -11    1    3    3    0    0  0.60590851988E+00  0.20201326741E+01  0.13305563185E+02  0.13471676699E+02  0.51100000000E-03 0.  1.
         12    1    3    3    0    0 -0.15672284785E-01  0.17990907827E+02  0.14677130036E+02  0.23218336636E+02  0.00000000000E+00 0. -1.
</event>
<event>
 7    1  0.7357971E-011  0.4778727E+02  0.7816164E-02  0.1312668E+00
        -11   -1    0    0    0    0  0.00000000000E+00  0.00000000000E+00  0.45593999997E+02  0.45594000000E+02  0.51100000000E-03 0. -1.
         11   -1    0    0    0    0 -0.00000000000E+00 -0.00000000000E+00 -0.45593999997E+02  0.45594000000E+02  0.51100000000E-03 0.  1.
    9900012    2    1    2    0    0 -0.24479036140E+02  0.31848876848E+02  0.16433172746E+02  0.47787270360E+02  0.19999996878E+02 0.  0.
        -12    1    1    2    0    0  0.24479036140E+02 -0.31848876848E+02 -0.16433172746E+02  0.43400729640E+02  0.00000000000E+00 0.  1.
         11    1    3    3    0    0 -0.14538633384E+02  0.19134119591E+02  0.17734798214E+02  0.29866527437E+02  0.51100000000E-03 0. -1.
        -11    1    3    3    0    0 -0.29279327554E+01  0.98883987361E+01 -0.73902101089E+00  0.10339215256E+02  0.51100000000E-03 0.  1.
         12    1    3    3    0    0 -0.70124700002E+01  0.28263585211E+01 -0.56260445723E+00  0.75815276673E+01  0.00000000000E+00 0. -1.
</event>
<event>
 7    1  0.7357971E-011  0.4778727E+02  0.7816164E-02  0.1312668E+00
        -11   -1    0    0    0    0  0.00000000000E+00  0.00000000000E+00  0.45593999997E+02  0.45594000000E+02  0.51100000000E-03 0. -1.
         11   -1    0    0    0    0 -0.00000000000E+00 -0.00000000000E+00 -0.45593999997E+02  0.45594000000E+02  0.51100000000E-03 0.  1.
    9900012    2    1    2    0    0 -0.73939907722E+01  0.28652334438E+00  0.42765294767E+02  0.47787266922E+02  0.19999981205E+02 0.  0.
        -12    1    1    2    0    0  0.73939907722E+01 -0.28652334438E+00 -0.42765294767E+02  0.43400733078E+02  0.00000000000E+00 0.  1.
         11    1    3    3    0    0 -0.10465569096E+02 -0.10607136036E+01  0.42153784205E+02  0.43446458693E+02  0.51100000000E-03 0. -1.
        -11    1    3    3    0    0  0.19207908916E+01  0.18854050970E+01  0.11925043072E+01  0.29438506777E+01  0.51100000000E-03 0.  1.
         12    1    3    3    0    0  0.11507874319E+01 -0.53816814904E+00 -0.58099374523E+00  0.13969575520E+01  0.00000000000E+00 0. -1.
</event>
<event>
 7    1  0.9761563E-011  0.4778728E+02  0.7816164E-02  0.1312668E+00
        -11   -1    0    0    0    0  0.00000000000E+00  0.00000000000E+00  0.45593999997E+02  0.45594000000E+02  0.51100000000E-03 0. -1.
         11   -1    0    0    0    0 -0.00000000000E+00 -0.00000000000E+00 -0.45593999997E+02  0.45594000000E+02  0.51100000000E-03 0.  1.
    9900012    2    1    2    0    0  0.27885579521E+02 -0.99761891774E+01  0.31725272782E+02  0.47787276172E+02  0.20000023377E+02 0.  0.
        -12    1    1    2    0    0 -0.27885579521E+02  0.99761891774E+01 -0.31725272782E+02  0.43400723828E+02  0.00000000000E+00 0.  1.
         11    1    3    3    0    0  0.22142658958E+02 -0.12064233371E+00  0.24954663277E+02  0.33362360825E+02  0.51100000000E-03 0. -1.
        -11    1    3    3    0    0 -0.71649139883E+00 -0.37213218009E+01  0.25492082068E+01  0.45672813153E+01  0.51100000000E-03 0.  1.
         12    1    3    3    0    0  0.64594119620E+01 -0.61342250428E+01  0.42214012978E+01  0.98576340309E+01  0.00000000000E+00 0. -1.
</event>
<event>
 7    1  0.7357971E-011  0.4778727E+02  0.7816164E-02  0.1312668E+00
        -11   -1    0    0    0    0  0.00000000000E+00  0.00000000000E+00  0.45593999997E+02  0.45594000000E+02  0.51100000000E-03 0. -1.
         11   -1    0    0    0    0 -0.00000000000E+00 -0.00000000000E+00 -0.45593999997E+02  0.45594000000E+02  0.51100000000E-03 0.  1.
    9900012    2    1    2    0    0 -0.27013821779E+02  0.49220359182E+01  0.33610270118E+02  0.47787271180E+02  0.20000000617E+02 0.  0.
        -12    1    1    2    0    0  0.27013821779E+02 -0.49220359182E+01 -0.33610270118E+02  0.43400728820E+02  0.00000000000E+00 0.  1.
         11    1    3    3    0    0 -0.40652514290E+01 -0.11591028431E+01  0.61693308768E+01  0.74786651423E+01  0.51100000000E-03 0. -1.
        -11    1    3    3    0    0 -0.12554134032E+02  0.10957496114E+02  0.22012966776E+02  0.27608761452E+02  0.51100000000E-03 0.  1.
        -12    1    3    3    0    0 -0.10394436318E+02 -0.48763573526E+01  0.54279724657E+01  0.12699844585E+02  0.00000000000E+00 0.  1.
</event>
<event>
 7    1  0.7357971E-011  0.4778727E+02  0.7816164E-02  0.1312668E+00
        -11   -1    0    0    0    0  0.00000000000E+00  0.00000000000E+00  0.45593999997E+02  0.45594000000E+02  0.51100000000E-03 0. -1.
         11   -1    0    0    0    0 -0.00000000000E+00 -0.00000000000E+00 -0.45593999997E+02  0.45594000000E+02  0.51100000000E-03 0.  1.
    9900012    2    1    2    0    0  0.12715126787E+02 -0.32451764835E+02  0.25861792081E+02  0.47787265216E+02  0.19999973424E+02 0.  0.
        -12    1    1    2    0    0 -0.12715126787E+02  0.32451764835E+02 -0.25861792081E+02  0.43400734784E+02  0.00000000000E+00 0.  1.
         11    1    3    3    0    0 -0.21364391278E+01  0.15636626710E+01  0.51435349127E+00  0.26970303800E+01  0.51100000000E-03 0.  1.
        -11    1    3    3    0    0  0.11507949141E+02 -0.22153111279E+02  0.16706225573E+02  0.30038162493E+02  0.51100000000E-03 0. -1.
        -12    1    3    3    0    0  0.33436167739E+01 -0.11862316228E+02  0.86412130168E+01  0.15052072343E+02  0.00000000000E+00 0.  1.
</event>
<event>
 7    1  0.7357971E-011  0.4778727E+02  0.7816164E-02  0.1312668E+00
        -11   -1    0    0    0    0  0.00000000000E+00  0.00000000000E+00  0.45593999997E+02  0.45594000000E+02  0.51100000000E-03 0. -1.
         11   -1    0    0    0    0 -0.00000000000E+00 -0.00000000000E+00 -0.45593999997E+02  0.45594000000E+02  0.51100000000E-03 0.  1.
    9900012    2    1    2    0    0 -0.20075203416E+02  0.12505063884E+02  0.36390011711E+02  0.47787269968E+02  0.19999995093E+02 0.  0.
        -12    1    1    2    0    0  0.20075203416E+02 -0.12505063884E+02 -0.36390011711E+02  0.43400730032E+02  0.00000000000E+00 0.  1.
         11    1    3    3    0    0 -0.92680355078E+00 -0.97089862852E+00  0.91396721532E+01  0.92377062249E+01  0.51100000000E-03 0. -1.
        -11    1    3    3    0    0 -0.85260765588E+01  0.13489192688E+02  0.12008379509E+02  0.19971316420E+02  0.51100000000E-03 0.  1.
        -12    1    3    3    0    0 -0.10622323306E+02 -0.13230175315E-01  0.15241960049E+02  0.18578247323E+02  0.00000000000E+00 0.  1.
</event>
<event>
 7    1  0.7357971E-011  0.4778725E+02  0.7816164E-02  0.1312668E+00
        -11   -1    0    0    0    0  0.00000000000E+00  0.00000000000E+00  0.45593999997E+02  0.45594000000E+02  0.51100000000E-03 0. -1.
         11   -1    0    0    0    0 -0.00000000000E+00 -0.00000000000E+00 -0.45593999997E+02  0.45594000000E+02  0.51100000000E-03 0.  1.
    9900012    2    1    2    0    0  0.14964142969E+02  0.27409099933E+02 -0.30140350107E+02  0.47787250715E+02  0.19999907311E+02 0.  0.
         12    1    1    2    0    0 -0.14964142969E+02 -0.27409099933E+02  0.30140350107E+02  0.43400749285E+02  0.00000000000E+00 0. -1.
         11    1    3    3    0    0  0.90693018769E+01  0.22707119966E+01 -0.54388249582E+01  0.10816153970E+02  0.51100000000E-03 0. -1.
        -11    1    3    3    0    0  0.22959884601E+00  0.13254113487E+02 -0.17533783795E+02  0.21980851084E+02  0.51100000000E-03 0.  1.
         12    1    3    3    0    0  0.56652422456E+01  0.11884274449E+02 -0.71677413537E+01  0.14990245662E+02  0.00000000000E+00 0. -1.
</event>
<event>
 7    1  0.7357971E-011  0.4778727E+02  0.7816164E-02  0.1312668E+00
        -11   -1    0    0    0    0  0.00000000000E+00  0.00000000000E+00  0.45593999997E+02  0.45594000000E+02  0.51100000000E-03 0. -1.
         11   -1    0    0    0    0 -0.00000000000E+00 -0.00000000000E+00 -0.45593999997E+02  0.45594000000E+02  0.51100000000E-03 0.  1.
    9900012    2    1    2    0    0  0.63826716796E+01 -0.18528819177E+02 -0.38724258031E+02  0.47787265008E+02  0.19999972475E+02 0.  0.
         12    1    1    2    0    0 -0.63826716796E+01  0.18528819177E+02  0.38724258031E+02  0.43400734992E+02  0.00000000000E+00 0. -1.
         11    1    3    3    0    0  0.38439083044E+01  0.16268876558E+01 -0.10377893836E+01  0.43010930661E+01  0.51100000000E-03 0. -1.
        -11    1    3    3    0    0  0.18887587776E+01 -0.16767436704E+02 -0.35744783919E+02  0.39527255420E+02  0.51100000000E-03 0.  1.
         12    1    3    3    0    0  0.65000459755E+00 -0.33882701286E+01 -0.19416847281E+01  0.39589165216E+01  0.00000000000E+00 0. -1.
</event>
<event>
 7    1  0.7357971E-011  0.4778727E+02  0.7816164E-02  0.1312668E+00
        -11   -1    0    0    0    0  0.00000000000E+00  0.00000000000E+00  0.45593999997E+02  0.45594000000E+02  0.51100000000E-03 0. -1.
         11   -1    0    0    0    0 -0.00000000000E+00 -0.00000000000E+00 -0.45593999997E+02  0.45594000000E+02  0.51100000000E-03 0.  1.
    9900012    2    1    2    0    0  0.29383105881E+02 -0.24316879010E+02  0.20711006261E+02  0.47787270786E+02  0.19999998821E+02 0.  0.
        -12    1    1    2    0    0 -0.29383105881E+02  0.24316879010E+02 -0.20711006261E+02  0.43400729214E+02  0.00000000000E+00 0.  1.
         11    1    3    3    0    0  0.42891300783E+01 -0.37669765802E+00 -0.25861065878E+01  0.50225974852E+01  0.51100000000E-03 0.  1.
        -11    1    3    3    0    0  0.64574900195E+01 -0.19690304143E+01  0.23667715889E+01  0.71538707102E+01  0.51100000000E-03 0. -1.
         12    1    3    3    0    0  0.18636485783E+02 -0.21971150938E+02  0.20930341260E+02  0.35610802590E+02  0.00000000000E+00 0. -1.
</event>
<event>
 7    1  0.7357971E-011  0.4778730E+02  0.7816164E-02  0.1312668E+00
        -11   -1    0    0    0    0  0.00000000000E+00  0.00000000000E+00  0.45593999997E+02  0.45594000000E+02  0.51100000000E-03 0. -1.
         11   -1    0    0    0    0 -0.00000000000E+00 -0.00000000000E+00 -0.45593999997E+02  0.45594000000E+02  0.51100000000E-03 0.  1.
    9900012    2    1    2    0    0  0.85482128053E+01 -0.35238641211E+02  0.23849253721E+02  0.47787300932E+02  0.20000136269E+02 0.  0.
        -12    1    1    2    0    0 -0.85482128053E+01  0.35238641211E+02 -0.23849253721E+02  0.43400699068E+02  0.00000000000E+00 0.  1.
         11    1    3    3    0    0 -0.96099870125E+00 -0.12541341677E+02  0.71815512028E+01  0.14483903048E+02  0.51100000000E-03 0. -1.
        -11    1    3    3    0    0  0.76189185835E+01 -0.15368839596E+02  0.18790780183E+02  0.25442927722E+02  0.51100000000E-03 0.  1.
        -12    1    3    3    0    0  0.18902929231E+01 -0.73284599381E+01 -0.21230776651E+01  0.78604701622E+01  0.00000000000E+00 0.  1.
</event>
<event>
 7    1  0.7357971E-011  0.4778727E+02  0.7816164E-02  0.1312668E+00
        -11   -1    0    0    0    0  0.00000000000E+00  0.00000000000E+00  0.45593999997E+02  0.45594000000E+02  0.51100000000E-03 0.  1.
         11   -1    0    0    0    0 -0.00000000000E+00 -0.00000000000E+00 -0.45593999997E+02  0.45594000000E+02  0.51100000000E-03 0. -1.
    9900012    2    1    2    0    0 -0.13357748671E+02 -0.34367517031E+02 -0.22892525075E+02  0.47787269813E+02  0.19999994387E+02 0.  0.
         12    1    1    2    0    0  0.13357748671E+02  0.34367517031E+02  0.22892525075E+02  0.43400730187E+02  0.00000000000E+00 0. -1.
         11    1    3    3    0    0 -0.11363230313E+02 -0.15748603900E+02 -0.52991556966E+01  0.20130141065E+02  0.51100000000E-03 0. -1.
        -11    1    3    3    0    0 -0.20386990267E+01 -0.18493919016E+02 -0.18795823998E+02  0.26447388044E+02  0.51100000000E-03 0.  1.
        -12    1    3    3    0    0  0.44180668777E-01 -0.12499411476E+00  0.12024546196E+01  0.12097407046E+01  0.00000000000E+00 0.  1.
</event>
<event>
 7    1  0.7357971E-011  0.4778727E+02  0.7816164E-02  0.1312668E+00
        -11   -1    0    0    0    0  0.00000000000E+00  0.00000000000E+00  0.45593999997E+02  0.45594000000E+02  0.51100000000E-03 0. -1.
         11   -1    0    0    0    0 -0.00000000000E+00 -0.00000000000E+00 -0.45593999997E+02  0.45594000000E+02  0.51100000000E-03 0.  1.
    9900012    2    1    2    0    0 -0.16122639088E+02  0.39574265597E+02 -0.75869339321E+01  0.47787267803E+02  0.19999985222E+02 0.  0.
         12    1    1    2    0    0  0.16122639088E+02 -0.39574265597E+02  0.75869339321E+01  0.43400732197E+02  0.00000000000E+00 0. -1.
         11    1    3    3    0    0  0.58889156906E+00 -0.17318607607E+01 -0.44733611422E+00  0.18831475871E+01  0.51100000000E-03 0. -1.
        -11    1    3    3    0    0 -0.79238599036E+01  0.24648342847E+02 -0.37781233308E+00  0.25893456766E+02  0.51100000000E-03 0.  1.
        -12    1    3    3    0    0 -0.87876707537E+01  0.16657783511E+02 -0.67617854848E+01  0.20010663450E+02  0.00000000000E+00 0.  1.
</event>
<event>
 7    1  0.7529826E-011  0.4778727E+02  0.7816164E-02  0.1312668E+00
        -11   -1    0    0    0    0  0.00000000000E+00  0.00000000000E+00  0.45593999997E+02  0.45594000000E+02  0.51100000000E-03 0. -1.
         11   -1    0    0    0    0 -0.00000000000E+00 -0.00000000000E+00 -0.45593999997E+02  0.45594000000E+02  0.51100000000E-03 0.  1.
    9900012    2    1    2    0    0 -0.19171832559E+02 -0.46544239384E+01 -0.38657473766E+02  0.47787273004E+02  0.20000008932E+02 0.  0.
         12    1    1    2    0    0  0.19171832559E+02  0.46544239384E+01  0.38657473766E+02  0.43400726996E+02  0.00000000000E+00 0. -1.
         11    1    3    3    0    0 -0.41143820976E+01  0.59604605512E+01 -0.78399418102E+01  0.10673327404E+02  0.51100000000E-03 0. -1.
        -11    1    3    3    0    0 -0.83089949990E+01 -0.73027556736E+01 -0.97507157597E+01  0.14746053588E+02  0.51100000000E-03 0.  1.
        -12    1    3    3    0    0 -0.67484554626E+01 -0.33121288161E+01 -0.21066816196E+02  0.22367892012E+02  0.00000000000E+00 0.  1.
</event>
<event>
 7    1  0.7357971E-011  0.4778728E+02  0.7816164E-02  0.1312668E+00
        -11   -1    0    0    0    0  0.00000000000E+00  0.00000000000E+00  0.45593999997E+02  0.45594000000E+02  0.51100000000E-03 0.  1.
         11   -1    0    0    0    0 -0.00000000000E+00 -0.00000000000E+00 -0.45593999997E+02  0.45594000000E+02  0.51100000000E-03 0. -1.
    9900012    2    1    2    0    0  0.40997630100E+02  0.78911160557E+01 -0.11855274298E+02  0.47787275177E+02  0.20000018844E+02 0.  0.
        -12    1    1    2    0    0 -0.40997630100E+02 -0.78911160557E+01  0.11855274298E+02  0.43400724823E+02  0.00000000000E+00 0.  1.
         11    1    3    3    0    0  0.10296337017E+02  0.43998613334E+01 -0.38600885309E+01  0.11843716454E+02  0.51100000000E-03 0. -1.
        -11    1    3    3    0    0  0.15692739683E+02 -0.10589562024E+00 -0.12279481280E+02  0.19926338184E+02  0.51100000000E-03 0.  1.
        -12    1    3    3    0    0  0.15008553400E+02  0.35971503426E+01  0.42842955137E+01  0.16017220539E+02  0.00000000000E+00 0.  1.
</event>
<event>
 7    1  0.7357971E-011  0.4778727E+02  0.7816164E-02  0.1312668E+00
        -11   -1    0    0    0    0  0.00000000000E+00  0.00000000000E+00  0.45593999997E+02  0.45594000000E+02  0.51100000000E-03 0. -1.
         11   -1    0    0    0    0 -0.00000000000E+00 -0.00000000000E+00 -0.45593999997E+02  0.45594000000E+02  0.51100000000E-03 0.  1.
    9900012    2    1    2    0    0  0.30348657663E+02 -0.13099351463E+02 -0.28124528171E+02  0.47787272868E+02  0.20000008316E+02 0.  0.
         12    1    1    2    0    0 -0.30348657663E+02  0.13099351463E+02  0.28124528171E+02  0.43400727132E+02  0.00000000000E+00 0. -1.
         11    1    3    3    0    0  0.58759155798E+01  0.35209196939E+01 -0.33617871465E+01  0.76305224246E+01  0.51100000000E-03 0. -1.
        -11    1    3    3    0    0  0.25499266482E+02 -0.14799435026E+02 -0.23598893324E+02  0.37764316949E+02  0.51100000000E-03 0.  1.
        -12    1    3    3    0    0 -0.10265243990E+01 -0.18208361308E+01 -0.11638477002E+01  0.23924334946E+01  0.00000000000E+00 0.  1.
</event>
<event>
 7    1  0.7357971E-011  0.4778729E+02  0.7816164E-02  0.1312668E+00
        -11   -1    0    0    0    0  0.00000000000E+00  0.00000000000E+00  0.45593999997E+02  0.45594000000E+02  0.51100000000E-03 0. -1.
         11   -1    0    0    0    0 -0.00000000000E+00 -0.00000000000E+00 -0.45593999997E+02  0.45594000000E+02  0.51100000000E-03 0.  1.
    9900012    2    1    2    0    0  0.50445222428E+01  0.36481978991E+02  0.22961706767E+02  0.47787286026E+02  0.20000068309E+02 0.  0.
        -12    1    1    2    0    0 -0.50445222428E+01 -0.36481978991E+02 -0.22961706767E+02  0.43400713974E+02  0.00000000000E+00 0.  1.
         11    1    3    3    0    0 -0.26336690769E+01  0.80605292968E+01  0.31560955954E+01  0.90481647321E+01  0.51100000000E-03 0.  1.
        -11    1    3    3    0    0 -0.16269437018E+01  0.19260443997E+02  0.16126153820E+02  0.25172693262E+02  0.51100000000E-03 0. -1.
        -12    1    3    3    0    0  0.93051350215E+01  0.91610056977E+01  0.36794573515E+01  0.13566428033E+02  0.00000000000E+00 0.  1.
</event>
<event>
 7    1  0.7357971E-011  0.4778727E+02  0.7816164E-02  0.1312668E+00
        -11   -1    0    0    0    0  0.00000000000E+00  0.00000000000E+00  0.45593999997E+02  0.45594000000E+02  0.51100000000E-03 0. -1.
         11   -1    0    0    0    0 -0.00000000000E+00 -0.00000000000E+00 -0.45593999997E+02  0.45594000000E+02  0.51100000000E-03 0.  1.
    9900012    2    1    2    0    0 -0.13823734467E+02 -0.26341898183E+02  0.31601138927E+02  0.47787271712E+02  0.20000003043E+02 0.  0.
        -12    1    1    2    0    0  0.13823734467E+02  0.26341898183E+02 -0.31601138927E+02  0.43400728288E+02  0.00000000000E+00 0.  1.
         11    1    3    3    0    0 -0.13483728335E+02 -0.24541467160E+02  0.22899737468E+02  0.36173091055E+02  0.51100000000E-03 0. -1.
        -11    1    3    3    0    0  0.31322644546E+01  0.55909932035E+00  0.21748918983E+01  0.38540663842E+01  0.51100000000E-03 0.  1.
        -12    1    3    3    0    0 -0.34722705873E+01 -0.23595303432E+01  0.65265095606E+01  0.77601142722E+01  0.00000000000E+00 0.  1.
</event>
<event>
 7    1  0.7357971E-011  0.4778727E+02  0.7816164E-02  0.1312668E+00
        -11   -1    0    0    0    0  0.00000000000E+00  0.00000000000E+00  0.45593999997E+02  0.45594000000E+02  0.51100000000E-03 0. -1.
         11   -1    0    0    0    0 -0.00000000000E+00 -0.00000000000E+00 -0.45593999997E+02  0.45594000000E+02  0.51100000000E-03 0.  1.
    9900012    2    1    2    0    0  0.17830415755E+02  0.38166966631E+02 -0.10439451445E+02  0.47787271731E+02  0.20000003129E+02 0.  0.
         12    1    1    2    0    0 -0.17830415755E+02 -0.38166966631E+02  0.10439451445E+02  0.43400728269E+02  0.00000000000E+00 0. -1.
         11    1    3    3    0    0  0.47911447280E+00  0.10126808432E+02 -0.89716066082E+01  0.13537781394E+02  0.51100000000E-03 0. -1.
        -11    1    3    3    0    0  0.75579848231E+01  0.98573913240E+01  0.36991712479E+01  0.12960523388E+02  0.51100000000E-03 0.  1.
         12    1    3    3    0    0  0.97933164590E+01  0.18182766876E+02 -0.51670160848E+01  0.21288966949E+02  0.00000000000E+00 0. -1.
</event>
<event>
 7    1  0.7357971E-011  0.4778727E+02  0.7816164E-02  0.1312668E+00
        -11   -1    0    0    0    0  0.00000000000E+00  0.00000000000E+00  0.45593999997E+02  0.45594000000E+02  0.51100000000E-03 0. -1.
         11   -1    0    0    0    0 -0.00000000000E+00 -0.00000000000E+00 -0.45593999997E+02  0.45594000000E+02  0.51100000000E-03 0.  1.
    9900012    2    1    2    0    0  0.11333702467E+02  0.79570739026E+00 -0.41887198698E+02  0.47787269860E+02  0.19999994602E+02 0.  0.
         12    1    1    2    0    0 -0.11333702467E+02 -0.79570739026E+00  0.41887198698E+02  0.43400730140E+02  0.00000000000E+00 0. -1.
         11    1    3    3    0    0  0.34813818166E+01  0.54417561431E+01 -0.13516278804E+02  0.14980738374E+02  0.51100000000E-03 0. -1.
        -11    1    3    3    0    0 -0.82131834444E+00  0.39413368076E+01 -0.96738609294E+01  0.10478181388E+02  0.51100000000E-03 0.  1.
        -12    1    3    3    0    0  0.86736389949E+01 -0.85873855605E+01 -0.18697058965E+02  0.22328350098E+02  0.00000000000E+00 0.  1.
</event>
<event>
 7    1  0.7357971E-011  0.4778726E+02  0.7816164E-02  0.1312668E+00
        -11   -1    0    0    0    0  0.00000000000E+00  0.00000000000E+00  0.45593999997E+02  0.45594000000E+02  0.51100000000E-03 0. -1.
         11   -1    0    0    0    0 -0.00000000000E+00 -0.00000000000E+00 -0.45593999997E+02  0.45594000000E+02  0.51100000000E-03 0.  1.
    9900012    2    1    2    0    0  0.87071409378E+01  0.83078149347E+01 -0.41698801724E+02  0.47787260864E+02  0.19999953583E+02 0.  0.
         12    1    1    2    0    0 -0.87071409378E+01 -0.83078149347E+01  0.41698801724E+02  0.43400739136E+02  0.00000000000E+00 0. -1.
         11    1    3    3    0    0 -0.14133772685E+01  0.21619811041E+01  0.10674850899E+01  0.27948742862E+01  0.51100000000E-03 0. -1.
        -11    1    3    3    0    0  0.11233630473E+02  0.50951336168E+01 -0.35983238967E+02  0.38038773994E+02  0.51100000000E-03 0.  1.
         12    1    3    3    0    0 -0.11131122670E+01  0.10507002138E+01 -0.67830478474E+01  0.69536125832E+01  0.00000000000E+00 0. -1.
</event>
<event>
 7    1  0.7357971E-011  0.4778726E+02  0.7816164E-02  0.1312668E+00
        -11   -1    0    0    0    0  0.00000000000E+00  0.00000000000E+00  0.45593999997E+02  0.45594000000E+02  0.51100000000E-03 0. -1.
         11   -1    0    0    0    0 -0.00000000000E+00 -0.00000000000E+00 -0.45593999997E+02  0.45594000000E+02  0.51100000000E-03 0.  1.
    9900012    2    1    2    0    0  0.31695983843E+02  0.67028606295E+01  0.28880098665E+02  0.47787264622E+02  0.19999970719E+02 0.  0.
        -12    1    1    2    0    0 -0.31695983843E+02 -0.67028606295E+01 -0.28880098665E+02  0.43400735378E+02  0.00000000000E+00 0.  1.
         11    1    3    3    0    0  0.13003564520E+02 -0.28919528752E+00  0.15278273300E+02  0.20064943544E+02  0.51100000000E-03 0. -1.
        -11    1    3    3    0    0  0.13715403725E+02  0.98817527032E+01  0.54846471654E+01  0.17771963611E+02  0.51100000000E-03 0.  1.
        -12    1    3    3    0    0  0.49770155983E+01 -0.28896967861E+01  0.81171781998E+01  0.99503574664E+01  0.00000000000E+00 0.  1.
</event>
<event>
 7    1  0.7357971E-011  0.4778727E+02  0.7816164E-02  0.1312668E+00
        -11   -1    0    0    0    0  0.00000000000E+00  0.00000000000E+00  0.45593999997E+02  0.45594000000E+02  0.51100000000E-03 0. -1.
         11   -1    0    0    0    0 -0.00000000000E+00 -0.00000000000E+00 -0.45593999997E+02  0.45594000000E+02  0.51100000000E-03 0.  1.
    9900012    2    1    2    0    0  0.15625002017E+01 -0.14831136553E+02  0.40758059748E+02  0.47787268984E+02  0.19999990606E+02 0.  0.
        -12    1    1    2    0    0 -0.15625002017E+01  0.14831136553E+02 -0.40758059748E+02  0.43400731016E+02  0.00000000000E+00 0.  1.
         11    1    3    3    0    0 -0.61709885067E+01 -0.86011285828E+01  0.97919226231E+01  0.14420203222E+02  0.51100000000E-03 0. -1.
        -11    1    3    3    0    0  0.51830943381E+01 -0.55162090122E+01  0.11801407211E+02  0.14020208316E+02  0.51100000000E-03 0.  1.
         12    1    3    3    0    0  0.25503943702E+01 -0.71379895748E+00  0.19164729913E+02  0.19346857446E+02  0.00000000000E+00 0. -1.
</event>
<event>
 7    1  0.7357971E-011  0.4778728E+02  0.7816164E-02  0.1312668E+00
        -11   -1    0    0    0    0  0.00000000000E+00  0.00000000000E+00  0.45593999997E+02  0.45594000000E+02  0.51100000000E-03 0. -1.
         11   -1    0    0    0    0 -0.00000000000E+00 -0.00000000000E+00 -0.45593999997E+02  0.45594000000E+02  0.51100000000E-03 0.  1.
    9900012    2    1    2    0    0  0.26089579530E+02  0.74641406196E+01  0.33870970849E+02  0.47787283168E+02  0.20000055277E+02 0.  0.
        -12    1    1    2    0    0 -0.26089579530E+02 -0.74641406196E+01 -0.33870970849E+02  0.43400716832E+02  0.00000000000E+00 0.  1.
         11    1    3    3    0    0  0.17969177642E+02  0.12104309642E+02  0.24591286277E+02  0.32774029628E+02  0.51100000000E-03 0. -1.
        -11    1    3    3    0    0  0.93152831018E+01 -0.31789310205E+01  0.83581348414E+01  0.12912727055E+02  0.51100000000E-03 0.  1.
        -12    1    3    3    0    0 -0.11948812133E+01 -0.14612380016E+01  0.92154973087E+00  0.21005264859E+01  0.00000000000E+00 0.  1.
</event>
<event>
 7    1  0.7357971E-011  0.4778727E+02  0.7816164E-02  0.1312668E+00
        -11   -1    0    0    0    0  0.00000000000E+00  0.00000000000E+00  0.45593999997E+02  0.45594000000E+02  0.51100000000E-03 0. -1.
         11   -1    0    0    0    0 -0.00000000000E+00 -0.00000000000E+00 -0.45593999997E+02  0.45594000000E+02  0.51100000000E-03 0.  1.
    9900012    2    1    2    0    0 -0.28371239597E+02 -0.26375825448E+02  0.19570692467E+02  0.47787269499E+02  0.19999992955E+02 0.  0.
        -12    1    1    2    0    0  0.28371239597E+02  0.26375825448E+02 -0.19570692467E+02  0.43400730501E+02  0.00000000000E+00 0.  1.
         11    1    3    3    0    0 -0.23436370936E+02 -0.26191341102E+02  0.18608801582E+02  0.39768546968E+02  0.51100000000E-03 0. -1.
        -11    1    3    3    0    0 -0.68872537109E+00  0.19181892238E+01 -0.16373888064E+01  0.26143517169E+01  0.51100000000E-03 0.  1.
        -12    1    3    3    0    0 -0.42461432903E+01 -0.21026735696E+01  0.25992796914E+01  0.54043708141E+01  0.00000000000E+00 0.  1.
</event>
<event>
 7    1  0.7357971E-011  0.4778726E+02  0.7816164E-02  0.1312668E+00
        -11   -1    0    0    0    0  0.00000000000E+00  0.00000000000E+00  0.45593999997E+02  0.45594000000E+02  0.51100000000E-03 0. -1.
         11   -1    0    0    0    0 -0.00000000000E+00 -0.00000000000E+00 -0.45593999997E+02  0.45594000000E+02  0.51100000000E-03 0.  1.
    9900012    2    1    2    0    0 -0.67579176816E+01 -0.80487468216E+01  0.42109053104E+02  0.47787261180E+02  0.19999955025E+02 0.  0.
        -12    1    1    2    0    0  0.67579176816E+01  0.80487468216E+01 -0.42109053104E+02  0.43400738820E+02  0.00000000000E+00 0.  1.
         11    1    3    3    0    0 -0.33924512380E+01 -0.62452726204E+01  0.38852296510E+02  0.39497001150E+02  0.51100000000E-03 0. -1.
        -11    1    3    3    0    0 -0.32079315620E+00 -0.23754251079E-01 -0.19638872753E+01  0.19900567843E+01  0.51100000000E-03 0.  1.
         12    1    3    3    0    0 -0.30446732874E+01 -0.17797199502E+01  0.52206438695E+01  0.63002032459E+01  0.00000000000E+00 0. -1.
</event>
<event>
 7    1  0.7357971E-011  0.4778727E+02  0.7816164E-02  0.1312668E+00
        -11   -1    0    0    0    0  0.00000000000E+00  0.00000000000E+00  0.45593999997E+02  0.45594000000E+02  0.51100000000E-03 0.  1.
         11   -1    0    0    0    0 -0.00000000000E+00 -0.00000000000E+00 -0.45593999997E+02  0.45594000000E+02  0.51100000000E-03 0. -1.
    9900012    2    1    2    0    0 -0.11723395985E+02 -0.15260495471E+02 -0.38901193133E+02  0.47787267718E+02  0.19999984835E+02 0.  0.
         12    1    1    2    0    0  0.11723395985E+02  0.15260495471E+02  0.38901193133E+02  0.43400732282E+02  0.00000000000E+00 0. -1.
         11    1    3    3    0    0 -0.11361192394E+02 -0.18916189420E+01 -0.14323986797E+02  0.18380193493E+02  0.51100000000E-03 0. -1.
        -11    1    3    3    0    0  0.12152232476E+01 -0.13053360517E+02 -0.16022138647E+02  0.20702075147E+02  0.51100000000E-03 0.  1.
        -12    1    3    3    0    0 -0.15774268388E+01 -0.31551601274E+00 -0.85550676883E+01  0.87049990774E+01  0.00000000000E+00 0.  1.
</event>
<event>
 7    1  0.7357971E-011  0.4778727E+02  0.7816164E-02  0.1312668E+00
        -11   -1    0    0    0    0  0.00000000000E+00  0.00000000000E+00  0.45593999997E+02  0.45594000000E+02  0.51100000000E-03 0. -1.
         11   -1    0    0    0    0 -0.00000000000E+00 -0.00000000000E+00 -0.45593999997E+02  0.45594000000E+02  0.51100000000E-03 0.  1.
    9900012    2    1    2    0    0  0.82411796324E+01 -0.22482004523E+02  0.36197594243E+02  0.47787269614E+02  0.19999993478E+02 0.  0.
        -12    1    1    2    0    0 -0.82411796324E+01  0.22482004523E+02 -0.36197594243E+02  0.43400730386E+02  0.00000000000E+00 0.  1.
         11    1    3    3    0    0 -0.29840981893E+01 -0.86448043314E+01  0.16924789002E+02  0.19237618537E+02  0.51100000000E-03 0. -1.
        -11    1    3    3    0    0  0.11835368303E+02 -0.15361151428E+02  0.17339400321E+02  0.26013375787E+02  0.51100000000E-03 0.  1.
         12    1    3    3    0    0 -0.61009048165E+00  0.15239512367E+01  0.19334049195E+01  0.25362752907E+01  0.00000000000E+00 0. -1.
</event>
<event>
 7    1  0.7357971E-011  0.4778726E+02  0.7816164E-02  0.1312668E+00
        -11   -1    0    0    0    0  0.00000000000E+00  0.00000000000E+00  0.45593999997E+02  0.45594000000E+02  0.51100000000E-03 0.  1.
         11   -1    0    0    0    0 -0.00000000000E+00 -0.00000000000E+00 -0.45593999997E+02  0.45594000000E+02  0.51100000000E-03 0. -1.
    9900012    2    1    2    0    0  0.31657921186E+02  0.29644525181E+02 -0.16132134158E+01  0.47787259170E+02  0.19999945861E+02 0.  0.
         12    1    1    2    0    0 -0.31657921186E+02 -0.29644525181E+02  0.16132134158E+01  0.43400740830E+02  0.00000000000E+00 0. -1.
         11    1    3    3    0    0  0.64365438125E+01 -0.75822619444E-01  0.36877295860E+01  0.74185035607E+01  0.51100000000E-03 0. -1.
        -11    1    3    3    0    0  0.65798075792E+01  0.80116957729E+01  0.25909636183E+01  0.10686170019E+02  0.51100000000E-03 0.  1.
         12    1    3    3    0    0  0.18641569794E+02  0.21708652028E+02 -0.78919066201E+01  0.29682585591E+02  0.00000000000E+00 0. -1.
</event>
<event>
 7    1  0.7357971E-011  0.4778728E+02  0.7816164E-02  0.1312668E+00
        -11   -1    0    0    0    0  0.00000000000E+00  0.00000000000E+00  0.45593999997E+02  0.45594000000E+02  0.51100000000E-03 0.  1.
         11   -1    0    0    0    0 -0.00000000000E+00 -0.00000000000E+00 -0.45593999997E+02  0.45594000000E+02  0.51100000000E-03 0. -1.
    9900012    2    1    2    0    0 -0.14863250998E+02  0.40521114497E+02  0.45547669299E+01  0.47787275904E+02  0.20000022155E+02 0.  0.
        -12    1    1    2    0    0  0.14863250998E+02 -0.40521114497E+02 -0.45547669299E+01  0.43400724096E+02  0.00000000000E+00 0.  1.
         11    1    3    3    0    0 -0.16169083954E+02  0.28710153109E+02  0.14715380690E+01  0.32982989434E+02  0.51100000000E-03 0. -1.
        -11    1    3    3    0    0  0.14131428975E+01  0.14949783025E+01 -0.23674356397E+01  0.31363489511E+01  0.51100000000E-03 0.  1.
        -12    1    3    3    0    0 -0.10730994195E+00  0.10315983085E+02  0.54506645006E+01  0.11667937518E+02  0.00000000000E+00 0.  1.
</event>
<event>
 7    1  0.7357971E-011  0.4778727E+02  0.7816164E-02  0.1312668E+00
        -11   -1    0    0    0    0  0.00000000000E+00  0.00000000000E+00  0.45593999997E+02  0.45594000000E+02  0.51100000000E-03 0. -1.
         11   -1    0    0    0    0 -0.00000000000E+00 -0.00000000000E+00 -0.45593999997E+02  0.45594000000E+02  0.51100000000E-03 0.  1.
    9900012    2    1    2    0    0  0.26714833450E+02 -0.18515983368E+02 -0.28759336985E+02  0.47787269244E+02  0.19999991790E+02 0.  0.
         12    1    1    2    0    0 -0.26714833450E+02  0.18515983368E+02  0.28759336985E+02  0.43400730756E+02  0.00000000000E+00 0. -1.
         11    1    3    3    0    0  0.35478348220E+01 -0.90083522639E+01 -0.89690810674E+01  0.13197801252E+02  0.51100000000E-03 0. -1.
        -11    1    3    3    0    0  0.84765112920E+01  0.25595825021E+01 -0.33883646069E+01  0.94807025710E+01  0.51100000000E-03 0.  1.
         12    1    3    3    0    0  0.14690487336E+02 -0.12067213606E+02 -0.16401891311E+02  0.25108765421E+02  0.00000000000E+00 0. -1.
</event>
<event>
 7    1  0.7357971E-011  0.4778727E+02  0.7816164E-02  0.1312668E+00
        -11   -1    0    0    0    0  0.00000000000E+00  0.00000000000E+00  0.45593999997E+02  0.45594000000E+02  0.51100000000E-03 0. -1.
         11   -1    0    0    0    0 -0.00000000000E+00 -0.00000000000E+00 -0.45593999997E+02  0.45594000000E+02  0.51100000000E-03 0.  1.
    9900012    2    1    2    0    0 -0.25983819525E+01  0.13754864007E+02 -0.41081323152E+02  0.47787274378E+02  0.20000015199E+02 0.  0.
         12    1    1    2    0    0  0.25983819525E+01 -0.13754864007E+02  0.41081323152E+02  0.43400725622E+02  0.00000000000E+00 0. -1.
         11    1    3    3    0    0  0.46978698272E+01  0.96966644916E+01 -0.13123189421E+02  0.16979793403E+02  0.51100000000E-03 0. -1.
        -11    1    3    3    0    0 -0.70258076890E+01  0.36562634354E+01 -0.28781930188E+02  0.29851796288E+02  0.51100000000E-03 0.  1.
        -12    1    3    3    0    0 -0.27044409065E+00  0.40193607966E+00  0.82379645710E+00  0.95568468704E+00  0.00000000000E+00 0.  1.
</event>
<event>
 7    1  0.7357971E-011  0.4778727E+02  0.7816164E-02  0.1312668E+00
        -11   -1    0    0    0    0  0.00000000000E+00  0.00000000000E+00  0.45593999997E+02  0.45594000000E+02  0.51100000000E-03 0.  1.
         11   -1    0    0    0    0 -0.00000000000E+00 -0.00000000000E+00 -0.45593999997E+02  0.45594000000E+02  0.51100000000E-03 0. -1.
    9900012    2    1    2    0    0 -0.25934385225E+02  0.34290240854E+02  0.59338498739E+01  0.47787268104E+02  0.19999986591E+02 0.  0.
        -12    1    1    2    0    0  0.25934385225E+02 -0.34290240854E+02 -0.59338498739E+01  0.43400731896E+02  0.00000000000E+00 0.  1.
         11    1    3    3    0    0 -0.16583634803E+02  0.62656946689E+01  0.17457719986E+01  0.17813578896E+02  0.51100000000E-03 0. -1.
        -11    1    3    3    0    0 -0.80790045271E+01  0.21980139864E+02  0.23842206438E+01  0.23538933088E+02  0.51100000000E-03 0.  1.
         12    1    3    3    0    0 -0.12717458943E+01  0.60444063216E+01  0.18038572316E+01  0.64347561191E+01  0.00000000000E+00 0. -1.
</event>
<event>
 7    1  0.7357971E-011  0.4778728E+02  0.7816164E-02  0.1312668E+00
        -11   -1    0    0    0    0  0.00000000000E+00  0.00000000000E+00  0.45593999997E+02  0.45594000000E+02  0.51100000000E-03 0. -1.
         11   -1    0    0    0    0 -0.00000000000E+00 -0.00000000000E+00 -0.45593999997E+02  0.45594000000E+02  0.51100000000E-03 0.  1.
    9900012    2    1    2    0    0  0.23947365183E+02  0.23217244073E+02 -0.27768798843E+02  0.47787275228E+02  0.20000019077E+02 0.  0.
         12    1    1    2    0    0 -0.23947365183E+02 -0.23217244073E+02  0.27768798843E+02  0.43400724772E+02  0.00000000000E+00 0. -1.
         11    1    3    3    0    0  0.22955029788E+01  0.52506589221E+01  0.25001684769E+01  0.62521672815E+01  0.51100000000E-03 0. -1.
        -11    1    3    3    0    0  0.96656171044E+01  0.10176703615E+02 -0.16835001044E+02  0.21918182199E+02  0.51100000000E-03 0.  1.
         12    1    3    3    0    0  0.11986245099E+02  0.77898815354E+01 -0.13433966276E+02  0.19616925748E+02  0.00000000000E+00 0. -1.
</event>
<event>
 7    1  0.7357971E-011  0.4778727E+02  0.7816164E-02  0.1312668E+00
        -11   -1    0    0    0    0  0.00000000000E+00  0.00000000000E+00  0.45593999997E+02  0.45594000000E+02  0.51100000000E-03 0. -1.
         11   -1    0    0    0    0 -0.00000000000E+00 -0.00000000000E+00 -0.45593999997E+02  0.45594000000E+02  0.51100000000E-03 0.  1.
    9900012    2    1    2    0    0  0.29357263899E+02 -0.86921317959E+00  0.31953387354E+02  0.47787269147E+02  0.19999991348E+02 0.  0.
        -12    1    1    2    0    0 -0.29357263899E+02  0.86921317959E+00 -0.31953387354E+02  0.43400730853E+02  0.00000000000E+00 0.  1.
         11    1    3    3    0    0  0.74441122636E+01 -0.71050522330E+01  0.98506590893E+01  0.14245422401E+02  0.51100000000E-03 0. -1.
        -11    1    3    3    0    0  0.64882192796E+01  0.63485762869E+01  0.44835664747E+01  0.10124414990E+02  0.51100000000E-03 0.  1.
         12    1    3    3    0    0  0.15424932356E+02 -0.11273723349E+00  0.17619161790E+02  0.23417431756E+02  0.00000000000E+00 0. -1.
</event>
<event>
 7    1  0.8447168E-011  0.4778728E+02  0.7816164E-02  0.1312668E+00
        -11   -1    0    0    0    0  0.00000000000E+00  0.00000000000E+00  0.45593999997E+02  0.45594000000E+02  0.51100000000E-03 0. -1.
         11   -1    0    0    0    0 -0.00000000000E+00 -0.00000000000E+00 -0.45593999997E+02  0.45594000000E+02  0.51100000000E-03 0.  1.
    9900012    2    1    2    0    0  0.24255471350E+02  0.27037444819E+02 -0.23754400823E+02  0.47787275683E+02  0.20000021150E+02 0.  0.
         12    1    1    2    0    0 -0.24255471350E+02 -0.27037444819E+02  0.23754400823E+02  0.43400724317E+02  0.00000000000E+00 0. -1.
         11    1    3    3    0    0  0.39151464328E+00 -0.83536579200E+00 -0.42887346222E-02  0.92257161061E+00  0.51100000000E-03 0. -1.
        -11    1    3    3    0    0  0.32561851674E+01  0.97504011562E+01 -0.14760004074E+02  0.17986961530E+02  0.51100000000E-03 0.  1.
        -12    1    3    3    0    0  0.20607771539E+02  0.18122409455E+02 -0.89901080147E+01  0.28877742543E+02  0.00000000000E+00 0.  1.
</event>
<event>
 7    1  0.7357971E-011  0.4778727E+02  0.7816164E-02  0.1312668E+00
        -11   -1    0    0    0    0  0.00000000000E+00  0.00000000000E+00  0.45593999997E+02  0.45594000000E+02  0.51100000000E-03 0. -1.
         11   -1    0    0    0    0 -0.00000000000E+00 -0.00000000000E+00 -0.45593999997E+02  0.45594000000E+02  0.51100000000E-03 0.  1.
    9900012    2    1    2    0    0 -0.27637199392E+02 -0.32709105958E+02 -0.70655951605E+01  0.47787273765E+02  0.20000012404E+02 0.  0.
         12    1    1    2    0    0  0.27637199392E+02  0.32709105958E+02  0.70655951605E+01  0.43400726235E+02  0.00000000000E+00 0. -1.
         11    1    3    3    0    0  0.42034451902E+00 -0.37513722544E+01  0.35373183757E+01  0.51732103048E+01  0.51100000000E-03 0. -1.
        -11    1    3    3    0    0 -0.20086047416E+02 -0.18170304649E+02 -0.10903473238E+02  0.29197517031E+02  0.51100000000E-03 0.  1.
        -12    1    3    3    0    0 -0.79714964946E+01 -0.10787429054E+02  0.30055970157E+00  0.13416546430E+02  0.00000000000E+00 0.  1.
</event>
<event>
 7    1  0.7357971E-011  0.4778727E+02  0.7816164E-02  0.1312668E+00
        -11   -1    0    0    0    0  0.00000000000E+00  0.00000000000E+00  0.45593999997E+02  0.45594000000E+02  0.51100000000E-03 0. -1.
         11   -1    0    0    0    0 -0.00000000000E+00 -0.00000000000E+00 -0.45593999997E+02  0.45594000000E+02  0.51100000000E-03 0.  1.
    9900012    2    1    2    0    0 -0.13311508600E+01  0.37684040307E+02  0.21488702606E+02  0.47787271940E+02  0.20000004081E+02 0.  0.
        -12    1    1    2    0    0  0.13311508600E+01 -0.37684040307E+02 -0.21488702606E+02  0.43400728060E+02  0.00000000000E+00 0.  1.
         11    1    3    3    0    0 -0.11943263888E+01  0.71985421687E+01  0.93195299866E+01  0.11836345057E+02  0.51100000000E-03 0. -1.
        -11    1    3    3    0    0 -0.40966686211E+01  0.27052125367E+02  0.62889382539E+01  0.28074025812E+02  0.51100000000E-03 0.  1.
        -12    1    3    3    0    0  0.39598441499E+01  0.34333727713E+01  0.58802343656E+01  0.78769010703E+01  0.00000000000E+00 0.  1.
</event>
<event>
 7    1  0.7357971E-011  0.4778728E+02  0.7816164E-02  0.1312668E+00
        -11   -1    0    0    0    0  0.00000000000E+00  0.00000000000E+00  0.45593999997E+02  0.45594000000E+02  0.51100000000E-03 0. -1.
         11   -1    0    0    0    0 -0.00000000000E+00 -0.00000000000E+00 -0.45593999997E+02  0.45594000000E+02  0.51100000000E-03 0.  1.
    9900012    2    1    2    0    0  0.21637928599E+02  0.96529264718E+01  0.36362663655E+02  0.47787282822E+02  0.20000053698E+02 0.  0.
        -12    1    1    2    0    0 -0.21637928599E+02 -0.96529264718E+01 -0.36362663655E+02  0.43400717178E+02  0.00000000000E+00 0.  1.
         11    1    3    3    0    0  0.25325209496E+02  0.93276205473E+01  0.31668160384E+02  0.41608209808E+02  0.51100000000E-03 0. -1.
        -11    1    3    3    0    0 -0.20324844338E+01 -0.55967363311E-01  0.36706005890E+01  0.41961213358E+01  0.51100000000E-03 0.  1.
         12    1    3    3    0    0 -0.16547964633E+01  0.38127328780E+00  0.10239026822E+01  0.19829516781E+01  0.00000000000E+00 0. -1.
</event>
<event>
 7    1  0.7357971E-011  0.4778727E+02  0.7816164E-02  0.1312668E+00
        -11   -1    0    0    0    0  0.00000000000E+00  0.00000000000E+00  0.45593999997E+02  0.45594000000E+02  0.51100000000E-03 0. -1.
         11   -1    0    0    0    0 -0.00000000000E+00 -0.00000000000E+00 -0.45593999997E+02  0.45594000000E+02  0.51100000000E-03 0.  1.
    9900012    2    1    2    0    0  0.11720705656E+01  0.22324627303E+02  0.37200271633E+02  0.47787274854E+02  0.20000017371E+02 0.  0.
        -12    1    1    2    0    0 -0.11720705656E+01 -0.22324627303E+02 -0.37200271633E+02  0.43400725146E+02  0.00000000000E+00 0.  1.
         11    1    3    3    0    0  0.56830269972E+01  0.95989964742E+01  0.69724586062E+01  0.13154949960E+02  0.51100000000E-03 0. -1.
        -11    1    3    3    0    0 -0.73405614228E+01  0.62356140136E+01  0.19931900939E+02  0.22137014239E+02  0.51100000000E-03 0.  1.
        -12    1    3    3    0    0  0.28296049911E+01  0.64900168151E+01  0.10295912088E+02  0.12495310656E+02  0.00000000000E+00 0.  1.
</event>
<event>
 7    1  0.7357971E-011  0.4778726E+02  0.7816164E-02  0.1312668E+00
        -11   -1    0    0    0    0  0.00000000000E+00  0.00000000000E+00  0.45593999997E+02  0.45594000000E+02  0.51100000000E-03 0. -1.
         11   -1    0    0    0    0 -0.00000000000E+00 -0.00000000000E+00 -0.45593999997E+02  0.45594000000E+02  0.51100000000E-03 0.  1.
    9900012    2    1    2    0    0 -0.48506064286E+01  0.22282311537E+02 -0.36926875298E+02  0.47787263722E+02  0.19999966616E+02 0.  0.
         12    1    1    2    0    0  0.48506064286E+01 -0.22282311537E+02  0.36926875298E+02  0.43400736278E+02  0.00000000000E+00 0. -1.
         11    1    3    3    0    0 -0.10727357976E+02  0.10828174268E+02 -0.15879837148E+02  0.22011242474E+02  0.51100000000E-03 0. -1.
        -11    1    3    3    0    0  0.26033396335E+01  0.10979492474E+02 -0.13921704096E+02  0.17920392781E+02  0.51100000000E-03 0.  1.
         12    1    3    3    0    0  0.32734119141E+01  0.47464479529E+00 -0.71253340537E+01  0.78556284674E+01  0.00000000000E+00 0. -1.
</event>
<event>
 7    1  0.7357971E-011  0.4778727E+02  0.7816164E-02  0.1312668E+00
        -11   -1    0    0    0    0  0.00000000000E+00  0.00000000000E+00  0.45593999997E+02  0.45594000000E+02  0.51100000000E-03 0. -1.
         11   -1    0    0    0    0 -0.00000000000E+00 -0.00000000000E+00 -0.45593999997E+02  0.45594000000E+02  0.51100000000E-03 0.  1.
    9900012    2    1    2    0    0  0.30885302534E+02  0.15801695081E+02  0.26077347071E+02  0.47787268320E+02  0.19999987580E+02 0.  0.
        -12    1    1    2    0    0 -0.30885302534E+02 -0.15801695081E+02 -0.26077347071E+02  0.43400731680E+02  0.00000000000E+00 0.  1.
         11    1    3    3    0    0  0.24467359677E+02  0.19146745057E+02  0.19859976392E+02  0.36873678938E+02  0.51100000000E-03 0. -1.
        -11    1    3    3    0    0  0.46994052674E+01 -0.28357084357E+01  0.12451354241E+01  0.56281448707E+01  0.51100000000E-03 0.  1.
         12    1    3    3    0    0  0.17185375895E+01 -0.50934154124E+00  0.49722352556E+01  0.52854445120E+01  0.00000000000E+00 0. -1.
</event>
<event>
 7    1  0.7357971E-011  0.4778727E+02  0.7816164E-02  0.1312668E+00
        -11   -1    0    0    0    0  0.00000000000E+00  0.00000000000E+00  0.45593999997E+02  0.45594000000E+02  0.51100000000E-03 0. -1.
         11   -1    0    0    0    0 -0.00000000000E+00 -0.00000000000E+00 -0.45593999997E+02  0.45594000000E+02  0.51100000000E-03 0.  1.
    9900012    2    1    2    0    0  0.35113017054E+02  0.65289640897E+01  0.24659109356E+02  0.47787274051E+02  0.20000013707E+02 0.  0.
        -12    1    1    2    0    0 -0.35113017054E+02 -0.65289640897E+01 -0.24659109356E+02  0.43400725949E+02  0.00000000000E+00 0.  1.
         11    1    3    3    0    0  0.11814046824E+02 -0.34125559014E+01  0.16735975125E+02  0.20768006736E+02  0.51100000000E-03 0. -1.
        -11    1    3    3    0    0  0.19993310181E+02  0.68471020084E+01  0.76773662810E+01  0.22484599422E+02  0.51100000000E-03 0.  1.
         12    1    3    3    0    0  0.33056600493E+01  0.30944179827E+01  0.24576794972E+00  0.45346678929E+01  0.00000000000E+00 0. -1.
</event>
<event>
 7    1  0.7357971E-011  0.4778727E+02  0.7816164E-02  0.1312668E+00
        -11   -1    0    0    0    0  0.00000000000E+00  0.00000000000E+00  0.45593999997E+02  0.45594000000E+02  0.51100000000E-03 0.  1.
         11   -1    0    0    0    0 -0.00000000000E+00 -0.00000000000E+00 -0.45593999997E+02  0.45594000000E+02  0.51100000000E-03 0. -1.
    9900012    2    1    2    0    0  0.40725531897E+02 -0.43893778732E+01  0.14345303447E+02  0.47787270543E+02  0.19999997714E+02 0.  0.
         12    1    1    2    0    0 -0.40725531897E+02  0.43893778732E+01 -0.14345303447E+02  0.43400729457E+02  0.00000000000E+00 0. -1.
         11    1    3    3    0    0  0.30846029011E+02 -0.20628518481E+01  0.40130767426E+01  0.31174310717E+02  0.51100000000E-03 0. -1.
        -11    1    3    3    0    0  0.41535266564E+01 -0.26146315477E+01  0.96666609497E+01  0.10841236829E+02  0.51100000000E-03 0.  1.
        -12    1    3    3    0    0  0.57259762293E+01  0.28810552264E+00  0.66556575502E+00  0.57717229962E+01  0.00000000000E+00 0.  1.
</event>
<event>
 7    1  0.7357971E-011  0.4778727E+02  0.7816164E-02  0.1312668E+00
        -11   -1    0    0    0    0  0.00000000000E+00  0.00000000000E+00  0.45593999997E+02  0.45594000000E+02  0.51100000000E-03 0. -1.
         11   -1    0    0    0    0 -0.00000000000E+00 -0.00000000000E+00 -0.45593999997E+02  0.45594000000E+02  0.51100000000E-03 0.  1.
    9900012    2    1    2    0    0 -0.23399644189E+01  0.31150731986E+02  0.30129383962E+02  0.47787270574E+02  0.19999997857E+02 0.  0.
        -12    1    1    2    0    0  0.23399644189E+01 -0.31150731986E+02 -0.30129383962E+02  0.43400729426E+02  0.00000000000E+00 0.  1.
         11    1    3    3    0    0 -0.31345526518E+01  0.14844816354E+02  0.77614568952E+01  0.17042130334E+02  0.51100000000E-03 0.  1.
        -11    1    3    3    0    0 -0.32639430123E+01  0.32561075565E+01  0.13955066541E+02  0.14696919501E+02  0.51100000000E-03 0. -1.
        -12    1    3    3    0    0  0.40585312452E+01  0.13049808075E+02  0.84128605262E+01  0.16048220739E+02  0.00000000000E+00 0.  1.
</event>
<event>
 7    1  0.7357971E-011  0.4778727E+02  0.7816164E-02  0.1312668E+00
        -11   -1    0    0    0    0  0.00000000000E+00  0.00000000000E+00  0.45593999997E+02  0.45594000000E+02  0.51100000000E-03 0. -1.
         11   -1    0    0    0    0 -0.00000000000E+00 -0.00000000000E+00 -0.45593999997E+02  0.45594000000E+02  0.51100000000E-03 0.  1.
    9900012    2    1    2    0    0  0.34557686503E+02 -0.12344122127E+02 -0.23173532923E+02  0.47787266415E+02  0.19999978894E+02 0.  0.
         12    1    1    2    0    0 -0.34557686503E+02  0.12344122127E+02  0.23173532923E+02  0.43400733585E+02  0.00000000000E+00 0. -1.
         11    1    3    3    0    0  0.35577550351E+01  0.22817370341E+01  0.94694426643E+00  0.43313564258E+01  0.51100000000E-03 0. -1.
        -11    1    3    3    0    0  0.23676207063E+02 -0.15247205144E+02 -0.15563039025E+02  0.32175273574E+02  0.51100000000E-03 0.  1.
        -12    1    3    3    0    0  0.73237244051E+01  0.62134598297E+00 -0.85574381653E+01  0.11280636416E+02  0.00000000000E+00 0.  1.
</event>
<event>
 7    1  0.7533529E-011  0.4778727E+02  0.7816164E-02  0.1312668E+00
        -11   -1    0    0    0    0  0.00000000000E+00  0.00000000000E+00  0.45593999997E+02  0.45594000000E+02  0.51100000000E-03 0. -1.
         11   -1    0    0    0    0 -0.00000000000E+00 -0.00000000000E+00 -0.45593999997E+02  0.45594000000E+02  0.51100000000E-03 0.  1.
    9900012    2    1    2    0    0  0.67994709381E+01  0.29865443979E+02 -0.30748101300E+02  0.47787270943E+02  0.19999999538E+02 0.  0.
         12    1    1    2    0    0 -0.67994709381E+01 -0.29865443979E+02  0.30748101300E+02  0.43400729057E+02  0.00000000000E+00 0. -1.
         11    1    3    3    0    0  0.15437950136E+00  0.12492530836E+01  0.20208489592E+01  0.23808185724E+01  0.51100000000E-03 0. -1.
        -11    1    3    3    0    0 -0.33721447169E+00  0.20462501352E+02 -0.24034627812E+02  0.31567245833E+02  0.51100000000E-03 0.  1.
        -12    1    3    3    0    0  0.69823059084E+01  0.81536895435E+01 -0.87343224477E+01  0.13839206538E+02  0.00000000000E+00 0.  1.
</event>
<event>
 7    1  0.7357971E-011  0.4778727E+02  0.7816164E-02  0.1312668E+00
        -11   -1    0    0    0    0  0.00000000000E+00  0.00000000000E+00  0.45593999997E+02  0.45594000000E+02  0.51100000000E-03 0. -1.
         11   -1    0    0    0    0 -0.00000000000E+00 -0.00000000000E+00 -0.45593999997E+02  0.45594000000E+02  0.51100000000E-03 0.  1.
    9900012    2    1    2    0    0 -0.26988363776E+02 -0.21161702395E+02 -0.26597636738E+02  0.47787266048E+02  0.19999977218E+02 0.  0.
         12    1    1    2    0    0  0.26988363776E+02  0.21161702395E+02  0.26597636738E+02  0.43400733952E+02  0.00000000000E+00 0. -1.
         11    1    3    3    0    0 -0.17198211819E+02 -0.18308786552E+02 -0.11279977488E+02  0.27535941008E+02  0.51100000000E-03 0. -1.
        -11    1    3    3    0    0 -0.61402684738E+01 -0.46499341458E+01 -0.50581652866E+01  0.92146525067E+01  0.51100000000E-03 0.  1.
         12    1    3    3    0    0 -0.36498834833E+01  0.17970183032E+01 -0.10259493963E+02  0.11036672533E+02  0.00000000000E+00 0. -1.
</event>
<event>
 7    1  0.7357971E-011  0.4778727E+02  0.7816164E-02  0.1312668E+00
        -11   -1    0    0    0    0  0.00000000000E+00  0.00000000000E+00  0.45593999997E+02  0.45594000000E+02  0.51100000000E-03 0. -1.
         11   -1    0    0    0    0 -0.00000000000E+00 -0.00000000000E+00 -0.45593999997E+02  0.45594000000E+02  0.51100000000E-03 0.  1.
    9900012    2    1    2    0    0 -0.13304371818E+01  0.23334271905E+02  0.36570000439E+02  0.47787271428E+02  0.20000001750E+02 0.  0.
        -12    1    1    2    0    0  0.13304371818E+01 -0.23334271905E+02 -0.36570000439E+02  0.43400728572E+02  0.00000000000E+00 0.  1.
         11    1    3    3    0    0 -0.59167190102E+01  0.52044990602E+01  0.12289143984E+02  0.14598542203E+02  0.51100000000E-03 0. -1.
        -11    1    3    3    0    0  0.57311525080E+01  0.11869375633E+02  0.73281368921E+01  0.15080775098E+02  0.51100000000E-03 0.  1.
        -12    1    3    3    0    0 -0.11448706796E+01  0.62603972125E+01  0.16952719563E+02  0.18107954128E+02  0.00000000000E+00 0.  1.
</event>
<event>
 7    1  0.7357971E-011  0.4778728E+02  0.7816164E-02  0.1312668E+00
        -11   -1    0    0    0    0  0.00000000000E+00  0.00000000000E+00  0.45593999997E+02  0.45594000000E+02  0.51100000000E-03 0. -1.
         11   -1    0    0    0    0 -0.00000000000E+00 -0.00000000000E+00 -0.45593999997E+02  0.45594000000E+02  0.51100000000E-03 0.  1.
    9900012    2    1    2    0    0  0.16896734298E+02  0.31368399764E+02  0.24781979070E+02  0.47787278574E+02  0.20000034330E+02 0.  0.
        -12    1    1    2    0    0 -0.16896734298E+02 -0.31368399764E+02 -0.24781979070E+02  0.43400721426E+02  0.00000000000E+00 0.  1.
         11    1    3    3    0    0  0.27322077798E+01  0.17081772577E+02  0.13023167514E+02  0.21653055352E+02  0.51100000000E-03 0. -1.
        -11    1    3    3    0    0  0.88013181210E+01  0.14617675061E+01  0.73234914831E+01  0.11542681347E+02  0.51100000000E-03 0.  1.
        -12    1    3    3    0    0  0.53632083973E+01  0.12824859680E+02  0.44353200732E+01  0.14591541875E+02  0.00000000000E+00 0.  1.
</event>
<event>
 7    1  0.7357971E-011  0.4778727E+02  0.7816164E-02  0.1312668E+00
        -11   -1    0    0    0    0  0.00000000000E+00  0.00000000000E+00  0.45593999997E+02  0.45594000000E+02  0.51100000000E-03 0. -1.
         11   -1    0    0    0    0 -0.00000000000E+00 -0.00000000000E+00 -0.45593999997E+02  0.45594000000E+02  0.51100000000E-03 0.  1.
    9900012    2    1    2    0    0 -0.28323715731E+01  0.11197789454E+02 -0.41835517048E+02  0.47787270697E+02  0.19999998415E+02 0.  0.
         12    1    1    2    0    0  0.28323715731E+01 -0.11197789454E+02  0.41835517048E+02  0.43400729303E+02  0.00000000000E+00 0. -1.
         11    1    3    3    0    0  0.30452177083E+01  0.11811180479E+02 -0.18454062237E+02  0.22120799003E+02  0.51100000000E-03 0.  1.
        -11    1    3    3    0    0 -0.35921512619E+01 -0.27236293416E+01 -0.39685487785E+01  0.60059210074E+01  0.51100000000E-03 0. -1.
         12    1    3    3    0    0 -0.22854380195E+01  0.21102383168E+01 -0.19412906032E+02  0.19660550687E+02  0.00000000000E+00 0. -1.
</event>
<event>
 7    1  0.7357971E-011  0.4778727E+02  0.7816164E-02  0.1312668E+00
        -11   -1    0    0    0    0  0.00000000000E+00  0.00000000000E+00  0.45593999997E+02  0.45594000000E+02  0.51100000000E-03 0. -1.
         11   -1    0    0    0    0 -0.00000000000E+00 -0.00000000000E+00 -0.45593999997E+02  0.45594000000E+02  0.51100000000E-03 0.  1.
    9900012    2    1    2    0    0  0.56225612858E+00  0.38680309044E+02 -0.19675896343E+02  0.47787270322E+02  0.19999996704E+02 0.  0.
         12    1    1    2    0    0 -0.56225612858E+00 -0.38680309044E+02  0.19675896343E+02  0.43400729678E+02  0.00000000000E+00 0. -1.
         11    1    3    3    0    0 -0.15482696124E+01  0.52341236788E+01  0.57942923029E+00  0.54889824168E+01  0.51100000000E-03 0. -1.
        -11    1    3    3    0    0  0.23089652677E+01 -0.10990152369E+01 -0.18429064744E+01  0.31520564133E+01  0.51100000000E-03 0.  1.
        -12    1    3    3    0    0 -0.19843952667E+00  0.34545200602E+02 -0.18412419099E+02  0.39146231491E+02  0.00000000000E+00 0.  1.
</event>
<event>
 7    1  0.7357971E-011  0.4778727E+02  0.7816164E-02  0.1312668E+00
        -11   -1    0    0    0    0  0.00000000000E+00  0.00000000000E+00  0.45593999997E+02  0.45594000000E+02  0.51100000000E-03 0. -1.
         11   -1    0    0    0    0 -0.00000000000E+00 -0.00000000000E+00 -0.45593999997E+02  0.45594000000E+02  0.51100000000E-03 0.  1.
    9900012    2    1    2    0    0  0.72727683467E+01 -0.23304464417E+02  0.35883595422E+02  0.47787266808E+02  0.19999980684E+02 0.  0.
        -12    1    1    2    0    0 -0.72727683467E+01  0.23304464417E+02 -0.35883595422E+02  0.43400733192E+02  0.00000000000E+00 0.  1.
         11    1    3    3    0    0  0.22591171912E+01 -0.10656843942E+02  0.18951519669E+02  0.21859369418E+02  0.51100000000E-03 0. -1.
        -11    1    3    3    0    0  0.86624083282E+01 -0.10252894475E+02  0.71310523230E+01  0.15199048347E+02  0.51100000000E-03 0.  1.
        -12    1    3    3    0    0 -0.36487571727E+01 -0.23947259997E+01  0.98010234297E+01  0.10728849043E+02  0.00000000000E+00 0.  1.
</event>
<event>
 7    1  0.7357971E-011  0.4778727E+02  0.7816164E-02  0.1312668E+00
        -11   -1    0    0    0    0  0.00000000000E+00  0.00000000000E+00  0.45593999997E+02  0.45594000000E+02  0.51100000000E-03 0. -1.
         11   -1    0    0    0    0 -0.00000000000E+00 -0.00000000000E+00 -0.45593999997E+02  0.45594000000E+02  0.51100000000E-03 0.  1.
    9900012    2    1    2    0    0  0.66115016450E+01 -0.14602944411E+02  0.40331939502E+02  0.47787270934E+02  0.19999999498E+02 0.  0.
        -12    1    1    2    0    0 -0.66115016450E+01  0.14602944411E+02 -0.40331939502E+02  0.43400729066E+02  0.00000000000E+00 0.  1.
         11    1    3    3    0    0  0.50583326678E+01 -0.17256526054E+01  0.20987442038E+02  0.21657269677E+02  0.51100000000E-03 0. -1.
        -11    1    3    3    0    0 -0.31472084634E+01 -0.79244631784E+00  0.54276605637E+00  0.32905147822E+01  0.51100000000E-03 0.  1.
        -12    1    3    3    0    0  0.47003774406E+01 -0.12084845487E+02  0.18801731407E+02  0.22839486475E+02  0.00000000000E+00 0.  1.
</event>
<event>
 7    1  0.7357971E-011  0.4778728E+02  0.7816164E-02  0.1312668E+00
        -11   -1    0    0    0    0  0.00000000000E+00  0.00000000000E+00  0.45593999997E+02  0.45594000000E+02  0.51100000000E-03 0. -1.
         11   -1    0    0    0    0 -0.00000000000E+00 -0.00000000000E+00 -0.45593999997E+02  0.45594000000E+02  0.51100000000E-03 0.  1.
    9900012    2    1    2    0    0  0.39650002521E+01  0.29006017563E+02  0.32039851026E+02  0.47787281853E+02  0.20000049282E+02 0.  0.
        -12    1    1    2    0    0 -0.39650002521E+01 -0.29006017563E+02 -0.32039851026E+02  0.43400718147E+02  0.00000000000E+00 0.  1.
         11    1    3    3    0    0  0.29336822077E+01  0.16024425996E+02  0.15926149643E+02  0.22782251041E+02  0.51100000000E-03 0. -1.
        -11    1    3    3    0    0 -0.40267582094E+01 -0.76506421643E+00  0.57517467612E+01  0.70627682956E+01  0.51100000000E-03 0.  1.
        -12    1    3    3    0    0  0.50580762538E+01  0.13746655784E+02  0.10361954622E+02  0.17942262516E+02  0.00000000000E+00 0.  1.
</event>
<event>
 7    1  0.7357971E-011  0.4778727E+02  0.7816164E-02  0.1312668E+00
        -11   -1    0    0    0    0  0.00000000000E+00  0.00000000000E+00  0.45593999997E+02  0.45594000000E+02  0.51100000000E-03 0.  1.
         11   -1    0    0    0    0 -0.00000000000E+00 -0.00000000000E+00 -0.45593999997E+02  0.45594000000E+02  0.51100000000E-03 0. -1.
    9900012    2    1    2    0    0  0.97194492556E+01 -0.37441243513E+02 -0.19680174382E+02  0.47787266442E+02  0.19999979017E+02 0.  0.
        -12    1    1    2    0    0 -0.97194492556E+01  0.37441243513E+02  0.19680174382E+02  0.43400733558E+02  0.00000000000E+00 0.  1.
         11    1    3    3    0    0  0.18312291504E+01 -0.36481310934E+01 -0.10073956568E+02  0.10869538255E+02  0.51100000000E-03 0. -1.
        -11    1    3    3    0    0  0.95219929810E+01 -0.30174933485E+02 -0.90393552543E+01  0.32907520491E+02  0.51100000000E-03 0.  1.
        -12    1    3    3    0    0 -0.16337728758E+01 -0.36181789339E+01 -0.56686255986E+00  0.40102076966E+01  0.00000000000E+00 0.  1.
</event>
<event>
 7    1  0.7357971E-011  0.4778727E+02  0.7816164E-02  0.1312668E+00
        -11   -1    0    0    0    0  0.00000000000E+00  0.00000000000E+00  0.45593999997E+02  0.45594000000E+02  0.51100000000E-03 0. -1.
         11   -1    0    0    0    0 -0.00000000000E+00 -0.00000000000E+00 -0.45593999997E+02  0.45594000000E+02  0.51100000000E-03 0.  1.
    9900012    2    1    2    0    0  0.70110781794E+01  0.38304321226E+02 -0.19163699728E+02  0.47787266952E+02  0.19999981342E+02 0.  0.
         12    1    1    2    0    0 -0.70110781794E+01 -0.38304321226E+02  0.19163699728E+02  0.43400733048E+02  0.00000000000E+00 0. -1.
         11    1    3    3    0    0  0.62270024805E+01  0.15097635660E+02 -0.17929604146E+02  0.24252522910E+02  0.51100000000E-03 0. -1.
        -11    1    3    3    0    0 -0.94821098079E+00  0.11237303464E+02 -0.18358709763E+01  0.11425695415E+02  0.51100000000E-03 0.  1.
         12    1    3    3    0    0  0.17322866797E+01  0.11969382102E+02  0.60177539394E+00  0.12109048628E+02  0.00000000000E+00 0. -1.
</event>
<event>
 7    1  0.7357971E-011  0.4778727E+02  0.7816164E-02  0.1312668E+00
        -11   -1    0    0    0    0  0.00000000000E+00  0.00000000000E+00  0.45593999997E+02  0.45594000000E+02  0.51100000000E-03 0. -1.
         11   -1    0    0    0    0 -0.00000000000E+00 -0.00000000000E+00 -0.45593999997E+02  0.45594000000E+02  0.51100000000E-03 0.  1.
    9900012    2    1    2    0    0  0.28807220716E+02  0.28251390786E+02 -0.15988320249E+02  0.47787269233E+02  0.19999991742E+02 0.  0.
         12    1    1    2    0    0 -0.28807220716E+02 -0.28251390786E+02  0.15988320249E+02  0.43400730767E+02  0.00000000000E+00 0. -1.
         11    1    3    3    0    0 -0.80393757831E+00  0.56356360014E+01 -0.63759388682E+01  0.85474736315E+01  0.51100000000E-03 0. -1.
        -11    1    3    3    0    0  0.18990391655E+02  0.17610179340E+02 -0.39285680415E+01  0.26195172050E+02  0.51100000000E-03 0.  1.
         12    1    3    3    0    0  0.10620766639E+02  0.50055754443E+01 -0.56838133391E+01  0.13044623551E+02  0.00000000000E+00 0. -1.
</event>
<event>
 7    1  0.7357971E-011  0.4778727E+02  0.7816164E-02  0.1312668E+00
        -11   -1    0    0    0    0  0.00000000000E+00  0.00000000000E+00  0.45593999997E+02  0.45594000000E+02  0.51100000000E-03 0. -1.
         11   -1    0    0    0    0 -0.00000000000E+00 -0.00000000000E+00 -0.45593999997E+02  0.45594000000E+02  0.51100000000E-03 0.  1.
    9900012    2    1    2    0    0 -0.25926715778E+02 -0.53244373711E+01 -0.34395916411E+02  0.47787270858E+02  0.19999999150E+02 0.  0.
         12    1    1    2    0    0  0.25926715778E+02  0.53244373711E+01  0.34395916411E+02  0.43400729142E+02  0.00000000000E+00 0. -1.
         11    1    3    3    0    0 -0.24063248700E+02 -0.48441131007E+01 -0.32994009223E+02  0.41123108036E+02  0.51100000000E-03 0. -1.
        -11    1    3    3    0    0 -0.13622642173E+01 -0.32882605195E+01 -0.18786833943E+00  0.35642272397E+01  0.51100000000E-03 0.  1.
         12    1    3    3    0    0 -0.50120286078E+00  0.28079362492E+01 -0.12140388486E+01  0.30999355821E+01  0.00000000000E+00 0. -1.
</event>
<event>
 7    1  0.7357971E-011  0.4778727E+02  0.7816164E-02  0.1312668E+00
        -11   -1    0    0    0    0  0.00000000000E+00  0.00000000000E+00  0.45593999997E+02  0.45594000000E+02  0.51100000000E-03 0.  1.
         11   -1    0    0    0    0 -0.00000000000E+00 -0.00000000000E+00 -0.45593999997E+02  0.45594000000E+02  0.51100000000E-03 0. -1.
    9900012    2    1    2    0    0 -0.42819319933E+02  0.67562514173E+01 -0.21170937526E+01  0.47787272141E+02  0.20000004997E+02 0.  0.
         12    1    1    2    0    0  0.42819319933E+02 -0.67562514173E+01  0.21170937526E+01  0.43400727859E+02  0.00000000000E+00 0. -1.
         11    1    3    3    0    0 -0.14987060960E+02  0.21515399868E+01 -0.75562475767E+01  0.16921524702E+02  0.51100000000E-03 0.  1.
        -11    1    3    3    0    0 -0.15399613437E+02  0.21918036534E+00  0.81227521314E+01  0.17411927995E+02  0.51100000000E-03 0. -1.
         12    1    3    3    0    0 -0.12432645536E+02  0.43855310651E+01 -0.26835983073E+01  0.13453819444E+02  0.00000000000E+00 0. -1.
</event>
<event>
 7    1  0.7357971E-011  0.4778728E+02  0.7816164E-02  0.1312668E+00
        -11   -1    0    0    0    0  0.00000000000E+00  0.00000000000E+00  0.45593999997E+02  0.45594000000E+02  0.51100000000E-03 0.  1.
         11   -1    0    0    0    0 -0.00000000000E+00 -0.00000000000E+00 -0.45593999997E+02  0.45594000000E+02  0.51100000000E-03 0. -1.
    9900012    2    1    2    0    0  0.79761212142E+01  0.41230830701E+02 -0.10955489652E+02  0.47787278077E+02  0.20000032064E+02 0.  0.
         12    1    1    2    0    0 -0.79761212142E+01 -0.41230830701E+02  0.10955489652E+02  0.43400721923E+02  0.00000000000E+00 0. -1.
         11    1    3    3    0    0  0.19442892200E+01 -0.66628315704E+00  0.70757872716E+00  0.21736747072E+01  0.51100000000E-03 0. -1.
        -11    1    3    3    0    0 -0.33597144849E+01  0.50571077636E+01 -0.13144933238E+01  0.62120780189E+01  0.51100000000E-03 0.  1.
        -12    1    3    3    0    0  0.93915464791E+01  0.36840006095E+02 -0.10348575055E+02  0.39401525351E+02  0.00000000000E+00 0.  1.
</event>
<event>
 7    1  0.7357971E-011  0.4778728E+02  0.7816164E-02  0.1312668E+00
        -11   -1    0    0    0    0  0.00000000000E+00  0.00000000000E+00  0.45593999997E+02  0.45594000000E+02  0.51100000000E-03 0. -1.
         11   -1    0    0    0    0 -0.00000000000E+00 -0.00000000000E+00 -0.45593999997E+02  0.45594000000E+02  0.51100000000E-03 0.  1.
    9900012    2    1    2    0    0  0.22341694288E+02 -0.30185491732E+02 -0.21755624586E+02  0.47787280928E+02  0.20000045065E+02 0.  0.
         12    1    1    2    0    0 -0.22341694288E+02  0.30185491732E+02  0.21755624586E+02  0.43400719072E+02  0.00000000000E+00 0. -1.
         11    1    3    3    0    0  0.68077994863E+01 -0.59549486835E+01  0.20857159515E+01  0.92821203914E+01  0.51100000000E-03 0. -1.
        -11    1    3    3    0    0  0.63206321501E+01 -0.14060783811E+02 -0.17696576137E+02  0.23469657846E+02  0.51100000000E-03 0.  1.
        -12    1    3    3    0    0  0.92132626517E+01 -0.10169759238E+02 -0.61447644010E+01  0.15035502691E+02  0.00000000000E+00 0.  1.
</event>
<event>
 7    1  0.7357971E-011  0.4778727E+02  0.7816164E-02  0.1312668E+00
        -11   -1    0    0    0    0  0.00000000000E+00  0.00000000000E+00  0.45593999997E+02  0.45594000000E+02  0.51100000000E-03 0.  1.
         11   -1    0    0    0    0 -0.00000000000E+00 -0.00000000000E+00 -0.45593999997E+02  0.45594000000E+02  0.51100000000E-03 0. -1.
    9900012    2    1    2    0    0 -0.17738274381E+02 -0.32730201521E+02  0.22309428638E+02  0.47787273327E+02  0.20000010406E+02 0.  0.
        -12    1    1    2    0    0  0.17738274381E+02  0.32730201521E+02 -0.22309428638E+02  0.43400726673E+02  0.00000000000E+00 0.  1.
         11    1    3    3    0    0 -0.73460409471E+01 -0.58647781986E+01  0.38461445056E+01  0.10156415152E+02  0.51100000000E-03 0. -1.
        -11    1    3    3    0    0 -0.50852650089E+01 -0.79544012022E-01  0.51998245430E+01  0.72735426719E+01  0.51100000000E-03 0.  1.
        -12    1    3    3    0    0 -0.53069684253E+01 -0.26785879310E+02  0.13263459589E+02  0.30357315503E+02  0.00000000000E+00 0.  1.
</event>
<event>
 7    1  0.7357971E-011  0.4778728E+02  0.7816164E-02  0.1312668E+00
        -11   -1    0    0    0    0  0.00000000000E+00  0.00000000000E+00  0.45593999997E+02  0.45594000000E+02  0.51100000000E-03 0. -1.
         11   -1    0    0    0    0 -0.00000000000E+00 -0.00000000000E+00 -0.45593999997E+02  0.45594000000E+02  0.51100000000E-03 0.  1.
    9900012    2    1    2    0    0  0.19793736313E+02 -0.16701146150E+02 -0.34826750129E+02  0.47787276452E+02  0.20000024656E+02 0.  0.
         12    1    1    2    0    0 -0.19793736313E+02  0.16701146150E+02  0.34826750129E+02  0.43400723548E+02  0.00000000000E+00 0. -1.
         11    1    3    3    0    0  0.56936764596E+00  0.30795155576E+01 -0.57776589925E+01  0.65718292187E+01  0.51100000000E-03 0. -1.
        -11    1    3    3    0    0  0.15417333708E+02 -0.91639336319E+01 -0.17012936953E+02  0.24720677222E+02  0.51100000000E-03 0.  1.
        -12    1    3    3    0    0  0.38070349591E+01 -0.10616728076E+02 -0.12036154184E+02  0.16494770012E+02  0.00000000000E+00 0.  1.
</event>
<event>
 7    1  0.7357971E-011  0.4778727E+02  0.7816164E-02  0.1312668E+00
        -11   -1    0    0    0    0  0.00000000000E+00  0.00000000000E+00  0.45593999997E+02  0.45594000000E+02  0.51100000000E-03 0. -1.
         11   -1    0    0    0    0 -0.00000000000E+00 -0.00000000000E+00 -0.45593999997E+02  0.45594000000E+02  0.51100000000E-03 0.  1.
    9900012    2    1    2    0    0  0.17998832552E+02 -0.20852246966E+02  0.33538772244E+02  0.47787269356E+02  0.19999992303E+02 0.  0.
        -12    1    1    2    0    0 -0.17998832552E+02  0.20852246966E+02 -0.33538772244E+02  0.43400730644E+02  0.00000000000E+00 0.  1.
         11    1    3    3    0    0  0.13000607893E+02 -0.84585419393E+01  0.12595597183E+02  0.19980285433E+02  0.51100000000E-03 0. -1.
        -11    1    3    3    0    0 -0.26485786621E+01 -0.82817054037E+01  0.61357774452E+01  0.10641869123E+02  0.51100000000E-03 0.  1.
        -12    1    3    3    0    0  0.76468033209E+01 -0.41119996230E+01  0.14807397616E+02  0.17165114800E+02  0.00000000000E+00 0.  1.
</event>
<event>
 7    1  0.7357971E-011  0.4778727E+02  0.7816164E-02  0.1312668E+00
        -11   -1    0    0    0    0  0.00000000000E+00  0.00000000000E+00  0.45593999997E+02  0.45594000000E+02  0.51100000000E-03 0. -1.
         11   -1    0    0    0    0 -0.00000000000E+00 -0.00000000000E+00 -0.45593999997E+02  0.45594000000E+02  0.51100000000E-03 0.  1.
    9900012    2    1    2    0    0  0.23338664760E+02  0.10950298112E+02  0.34914480615E+02  0.47787271226E+02  0.20000000827E+02 0.  0.
        -12    1    1    2    0    0 -0.23338664760E+02 -0.10950298112E+02 -0.34914480615E+02  0.43400728774E+02  0.00000000000E+00 0.  1.
         11    1    3    3    0    0  0.18105738509E+02  0.60340989252E+01  0.11931204101E+02  0.22507370978E+02  0.51100000000E-03 0. -1.
        -11    1    3    3    0    0  0.11670580443E+01  0.60163653018E+01  0.11210524395E+02  0.12776327070E+02  0.51100000000E-03 0.  1.
         12    1    3    3    0    0  0.40658682067E+01 -0.11001661154E+01  0.11772752119E+02  0.12503573178E+02  0.00000000000E+00 0. -1.
</event>
<event>
 7    1  0.7357971E-011  0.4778727E+02  0.7816164E-02  0.1312668E+00
        -11   -1    0    0    0    0  0.00000000000E+00  0.00000000000E+00  0.45593999997E+02  0.45594000000E+02  0.51100000000E-03 0. -1.
         11   -1    0    0    0    0 -0.00000000000E+00 -0.00000000000E+00 -0.45593999997E+02  0.45594000000E+02  0.51100000000E-03 0.  1.
    9900012    2    1    2    0    0  0.86922994338E+01  0.92212348195E+01 -0.41509467857E+02  0.47787272324E+02  0.20000005835E+02 0.  0.
         12    1    1    2    0    0 -0.86922994338E+01 -0.92212348195E+01  0.41509467857E+02  0.43400727676E+02  0.00000000000E+00 0. -1.
         11    1    3    3    0    0  0.12075459406E+01 -0.22922333956E+01 -0.15697012820E+00  0.25956003200E+01  0.51100000000E-03 0. -1.
        -11    1    3    3    0    0  0.79331945282E+01  0.13496447012E+02 -0.32044900649E+02  0.35664622741E+02  0.51100000000E-03 0.  1.
        -12    1    3    3    0    0 -0.44844103497E+00 -0.19829787972E+01 -0.93075970797E+01  0.95270492636E+01  0.00000000000E+00 0.  1.
</event>
<event>
 7    1  0.7357971E-011  0.4778727E+02  0.7816164E-02  0.1312668E+00
        -11   -1    0    0    0    0  0.00000000000E+00  0.00000000000E+00  0.45593999997E+02  0.45594000000E+02  0.51100000000E-03 0. -1.
         11   -1    0    0    0    0 -0.00000000000E+00 -0.00000000000E+00 -0.45593999997E+02  0.45594000000E+02  0.51100000000E-03 0.  1.
    9900012    2    1    2    0    0 -0.59396639525E+01  0.25725550481E+02 -0.34446184098E+02  0.47787272422E+02  0.20000006279E+02 0.  0.
         12    1    1    2    0    0  0.59396639525E+01 -0.25725550481E+02  0.34446184098E+02  0.43400727578E+02  0.00000000000E+00 0. -1.
         11    1    3    3    0    0  0.16756940607E+01  0.83987596322E+01 -0.73451266847E+00  0.85957328405E+01  0.51100000000E-03 0. -1.
        -11    1    3    3    0    0 -0.18959067709E+01  0.12073781072E+02 -0.20659745615E+02  0.24004077591E+02  0.51100000000E-03 0.  1.
         12    1    3    3    0    0 -0.57194512423E+01  0.52530097765E+01 -0.13051925815E+02  0.15187461990E+02  0.00000000000E+00 0. -1.
</event>
<event>
 7    1  0.7357971E-011  0.4778728E+02  0.7816164E-02  0.1312668E+00
        -11   -1    0    0    0    0  0.00000000000E+00  0.00000000000E+00  0.45593999997E+02  0.45594000000E+02  0.51100000000E-03 0. -1.
         11   -1    0    0    0    0 -0.00000000000E+00 -0.00000000000E+00 -0.45593999997E+02  0.45594000000E+02  0.51100000000E-03 0.  1.
    9900012    2    1    2    0    0 -0.30829330388E+02  0.44662952317E+01 -0.30219653164E+02  0.47787276012E+02  0.20000022651E+02 0.  0.
         12    1    1    2    0    0  0.30829330388E+02 -0.44662952317E+01  0.30219653164E+02  0.43400723988E+02  0.00000000000E+00 0. -1.
         11    1    3    3    0    0 -0.24145073981E+01 -0.58138813878E+01 -0.49589046796E+01  0.80138504260E+01  0.51100000000E-03 0. -1.
        -11    1    3    3    0    0 -0.23227400854E+02  0.79480734192E+01 -0.23039490110E+02  0.33667523317E+02  0.51100000000E-03 0.  1.
         12    1    3    3    0    0 -0.51874221362E+01  0.23321032003E+01 -0.22212583746E+01  0.61059022694E+01  0.00000000000E+00 0. -1.
</event>
<event>
 7    1  0.7357971E-011  0.4778727E+02  0.7816164E-02  0.1312668E+00
        -11   -1    0    0    0    0  0.00000000000E+00  0.00000000000E+00  0.45593999997E+02  0.45594000000E+02  0.51100000000E-03 0.  1.
         11   -1    0    0    0    0 -0.00000000000E+00 -0.00000000000E+00 -0.45593999997E+02  0.45594000000E+02  0.51100000000E-03 0. -1.
    9900012    2    1    2    0    0 -0.39324013588E+01 -0.43217064528E+02  0.66678266756E+00  0.47787273670E+02  0.20000011972E+02 0.  0.
        -12    1    1    2    0    0  0.39324013588E+01  0.43217064528E+02 -0.66678266756E+00  0.43400726330E+02  0.00000000000E+00 0.  1.
         11    1    3    3    0    0 -0.47482966473E+01 -0.24382681988E+02 -0.66381291249E+01  0.25712375630E+02  0.51100000000E-03 0. -1.
        -11    1    3    3    0    0  0.28038431562E+01 -0.18488293791E+02  0.72510589199E+01  0.20056330658E+02  0.51100000000E-03 0.  1.
        -12    1    3    3    0    0 -0.19879478678E+01 -0.34608874876E+00  0.53852872558E-01  0.20185673828E+01  0.00000000000E+00 0.  1.
</event>
<event>
 7    1  0.7357971E-011  0.4778727E+02  0.7816164E-02  0.1312668E+00
        -11   -1    0    0    0    0  0.00000000000E+00  0.00000000000E+00  0.45593999997E+02  0.45594000000E+02  0.51100000000E-03 0. -1.
         11   -1    0    0    0    0 -0.00000000000E+00 -0.00000000000E+00 -0.45593999997E+02  0.45594000000E+02  0.51100000000E-03 0.  1.
    9900012    2    1    2    0    0  0.16799924635E+01  0.11370500801E+02 -0.41851077841E+02  0.47787269827E+02  0.19999994449E+02 0.  0.
         12    1    1    2    0    0 -0.16799924635E+01 -0.11370500801E+02  0.41851077841E+02  0.43400730173E+02  0.00000000000E+00 0. -1.
         11    1    3    3    0    0  0.38290365599E+01  0.44404611216E+01 -0.12480488060E+01  0.59947345256E+01  0.51100000000E-03 0. -1.
        -11    1    3    3    0    0 -0.40292503935E+01  0.65823512419E+01 -0.27953823618E+02  0.28999628648E+02  0.51100000000E-03 0.  1.
        -12    1    3    3    0    0  0.18802062971E+01  0.34768843718E+00 -0.12649205417E+02  0.12792906654E+02  0.00000000000E+00 0.  1.
</event>
<event>
 7    1  0.7357971E-011  0.4778727E+02  0.7816164E-02  0.1312668E+00
        -11   -1    0    0    0    0  0.00000000000E+00  0.00000000000E+00  0.45593999997E+02  0.45594000000E+02  0.51100000000E-03 0. -1.
         11   -1    0    0    0    0 -0.00000000000E+00 -0.00000000000E+00 -0.45593999997E+02  0.45594000000E+02  0.51100000000E-03 0.  1.
    9900012    2    1    2    0    0  0.93946906484E+01 -0.39686804820E+02 -0.14843207696E+02  0.47787268395E+02  0.19999987918E+02 0.  0.
         12    1    1    2    0    0 -0.93946906484E+01  0.39686804820E+02  0.14843207696E+02  0.43400731605E+02  0.00000000000E+00 0. -1.
         11    1    3    3    0    0  0.91668284238E+01 -0.15043699780E+02 -0.50499560833E+01  0.18326093504E+02  0.51100000000E-03 0. -1.
        -11    1    3    3    0    0 -0.26762060328E+01 -0.15314291412E+01 -0.46940104250E+01  0.56161453039E+01  0.51100000000E-03 0.  1.
        -12    1    3    3    0    0  0.29040682574E+01 -0.23111675898E+02 -0.50992411881E+01  0.23845029586E+02  0.00000000000E+00 0.  1.
</event>
<event>
 7    1  0.7357971E-011  0.4778727E+02  0.7816164E-02  0.1312668E+00
        -11   -1    0    0    0    0  0.00000000000E+00  0.00000000000E+00  0.45593999997E+02  0.45594000000E+02  0.51100000000E-03 0. -1.
         11   -1    0    0    0    0 -0.00000000000E+00 -0.00000000000E+00 -0.45593999997E+02  0.45594000000E+02  0.51100000000E-03 0.  1.
    9900012    2    1    2    0    0  0.73534821302E+00 -0.42238507539E+02 -0.99494349239E+01  0.47787268308E+02  0.19999987524E+02 0.  0.
         12    1    1    2    0    0 -0.73534821302E+00  0.42238507539E+02  0.99494349239E+01  0.43400731692E+02  0.00000000000E+00 0. -1.
         11    1    3    3    0    0  0.68654679538E+01 -0.10327855863E+02 -0.61590564460E+01  0.13846777008E+02  0.51100000000E-03 0. -1.
        -11    1    3    3    0    0 -0.50848989047E+01 -0.78098682622E+01 -0.30498015127E+01  0.98056885873E+01  0.51100000000E-03 0.  1.
         12    1    3    3    0    0 -0.10452208360E+01 -0.24100783413E+02 -0.74057696521E+00  0.24134802712E+02  0.00000000000E+00 0. -1.
</event>
<event>
 7    1  0.7357971E-011  0.4778729E+02  0.7816164E-02  0.1312668E+00
        -11   -1    0    0    0    0  0.00000000000E+00  0.00000000000E+00  0.45593999997E+02  0.45594000000E+02  0.51100000000E-03 0. -1.
         11   -1    0    0    0    0 -0.00000000000E+00 -0.00000000000E+00 -0.45593999997E+02  0.45594000000E+02  0.51100000000E-03 0.  1.
    9900012    2    1    2    0    0 -0.47858344940E+00  0.30189762832E+02 -0.31176439645E+02  0.47787294811E+02  0.20000108362E+02 0.  0.
         12    1    1    2    0    0  0.47858344940E+00 -0.30189762832E+02  0.31176439645E+02  0.43400705189E+02  0.00000000000E+00 0. -1.
         11    1    3    3    0    0  0.11781874449E+01  0.17855382585E+01  0.23376153063E+01  0.31687092182E+01  0.51100000000E-03 0. -1.
        -11    1    3    3    0    0 -0.46044832299E+01  0.19451356767E+02 -0.23855622376E+02  0.31123098578E+02  0.51100000000E-03 0.  1.
         12    1    3    3    0    0  0.29477123355E+01  0.89528678063E+01 -0.96584325748E+01  0.13495487015E+02  0.00000000000E+00 0. -1.
</event>
<event>
 7    1  0.7357971E-011  0.4778727E+02  0.7816164E-02  0.1312668E+00
        -11   -1    0    0    0    0  0.00000000000E+00  0.00000000000E+00  0.45593999997E+02  0.45594000000E+02  0.51100000000E-03 0. -1.
         11   -1    0    0    0    0 -0.00000000000E+00 -0.00000000000E+00 -0.45593999997E+02  0.45594000000E+02  0.51100000000E-03 0.  1.
    9900012    2    1    2    0    0 -0.14063634496E+02  0.23084814679E+02  0.33954802678E+02  0.47787272945E+02  0.20000008667E+02 0.  0.
        -12    1    1    2    0    0  0.14063634496E+02 -0.23084814679E+02 -0.33954802678E+02  0.43400727055E+02  0.00000000000E+00 0.  1.
         11    1    3    3    0    0 -0.80843301248E+01  0.93049496142E+01  0.10389240394E+02  0.16120632653E+02  0.51100000000E-03 0. -1.
        -11    1    3    3    0    0 -0.17928544577E+01  0.47306926400E+00  0.15382463045E+02  0.15493814612E+02  0.51100000000E-03 0.  1.
        -12    1    3    3    0    0 -0.41864499136E+01  0.13306795800E+02  0.81830992387E+01  0.16172825681E+02  0.00000000000E+00 0.  1.
</event>
<event>
 7    1  0.7357971E-011  0.4778727E+02  0.7816164E-02  0.1312668E+00
        -11   -1    0    0    0    0  0.00000000000E+00  0.00000000000E+00  0.45593999997E+02  0.45594000000E+02  0.51100000000E-03 0. -1.
         11   -1    0    0    0    0 -0.00000000000E+00 -0.00000000000E+00 -0.45593999997E+02  0.45594000000E+02  0.51100000000E-03 0.  1.
    9900012    2    1    2    0    0 -0.24611343564E+02 -0.24333749586E+02 -0.26187284752E+02  0.47787268628E+02  0.19999988984E+02 0.  0.
         12    1    1    2    0    0  0.24611343564E+02  0.24333749586E+02  0.26187284752E+02  0.43400731372E+02  0.00000000000E+00 0. -1.
         11    1    3    3    0    0 -0.52871054749E+01 -0.74395097193E+01  0.22956966412E+01  0.94111642476E+01  0.51100000000E-03 0. -1.
        -11    1    3    3    0    0 -0.16223352109E+02 -0.13461969684E+02 -0.23794059558E+02  0.31789606036E+02  0.51100000000E-03 0.  1.
         12    1    3    3    0    0 -0.31008859795E+01 -0.34322701824E+01 -0.46889218356E+01  0.65864983446E+01  0.00000000000E+00 0. -1.
</event>
<event>
 7    1  0.7357971E-011  0.4778727E+02  0.7816164E-02  0.1312668E+00
        -11   -1    0    0    0    0  0.00000000000E+00  0.00000000000E+00  0.45593999997E+02  0.45594000000E+02  0.51100000000E-03 0. -1.
         11   -1    0    0    0    0 -0.00000000000E+00 -0.00000000000E+00 -0.45593999997E+02  0.45594000000E+02  0.51100000000E-03 0.  1.
    9900012    2    1    2    0    0  0.30219155510E+02  0.77662350528E+01 -0.30168058623E+02  0.47787268120E+02  0.19999986665E+02 0.  0.
         12    1    1    2    0    0 -0.30219155510E+02 -0.77662350528E+01  0.30168058623E+02  0.43400731880E+02  0.00000000000E+00 0. -1.
         11    1    3    3    0    0  0.10452503754E+01  0.60359534743E+01 -0.41899443499E+01  0.74216518786E+01  0.51100000000E-03 0. -1.
        -11    1    3    3    0    0  0.19674446223E+02 -0.32856269618E+01 -0.19054228085E+02  0.27585191441E+02  0.51100000000E-03 0.  1.
         12    1    3    3    0    0  0.94994589120E+01  0.50159085402E+01 -0.69238861889E+01  0.12780424800E+02  0.00000000000E+00 0. -1.
</event>
<event>
 7    1  0.7357971E-011  0.4778724E+02  0.7816164E-02  0.1312668E+00
        -11   -1    0    0    0    0  0.00000000000E+00  0.00000000000E+00  0.45593999997E+02  0.45594000000E+02  0.51100000000E-03 0. -1.
         11   -1    0    0    0    0 -0.00000000000E+00 -0.00000000000E+00 -0.45593999997E+02  0.45594000000E+02  0.51100000000E-03 0.  1.
    9900012    2    1    2    0    0 -0.17370237240E+02 -0.51061566662E+01 -0.39443990695E+02  0.47787235264E+02  0.19999836863E+02 0.  0.
         12    1    1    2    0    0  0.17370237240E+02  0.51061566662E+01  0.39443990695E+02  0.43400764736E+02  0.00000000000E+00 0. -1.
         11    1    3    3    0    0 -0.60270446585E+01 -0.94709566224E+01 -0.23601454854E+02  0.26135281865E+02  0.51100000000E-03 0.  1.
        -11    1    3    3    0    0 -0.11030106365E+02  0.72043645465E+00 -0.12627983966E+02  0.16782379284E+02  0.51100000000E-03 0. -1.
         12    1    3    3    0    0 -0.31308621657E+00  0.36443635016E+01 -0.32145518748E+01  0.48695741155E+01  0.00000000000E+00 0. -1.
</event>
<event>
 7    1  0.7357971E-011  0.4778727E+02  0.7816164E-02  0.1312668E+00
        -11   -1    0    0    0    0  0.00000000000E+00  0.00000000000E+00  0.45593999997E+02  0.45594000000E+02  0.51100000000E-03 0. -1.
         11   -1    0    0    0    0 -0.00000000000E+00 -0.00000000000E+00 -0.45593999997E+02  0.45594000000E+02  0.51100000000E-03 0.  1.
    9900012    2    1    2    0    0 -0.12241926001E+02 -0.33757747966E+02 -0.24375665751E+02  0.47787269814E+02  0.19999994388E+02 0.  0.
         12    1    1    2    0    0  0.12241926001E+02  0.33757747966E+02  0.24375665751E+02  0.43400730186E+02  0.00000000000E+00 0. -1.
         11    1    3    3    0    0  0.15865023616E+01 -0.97355175348E+01 -0.49165540940E+01  0.11021333669E+02  0.51100000000E-03 0.  1.
        -11    1    3    3    0    0 -0.10771648154E+01 -0.40835442985E+01  0.21309456359E+01  0.47303855701E+01  0.51100000000E-03 0. -1.
        -12    1    3    3    0    0 -0.12751263547E+02 -0.19938686132E+02 -0.21590057293E+02  0.32035550575E+02  0.00000000000E+00 0.  1.
</event>
<event>
 7    1  0.7357971E-011  0.4778728E+02  0.7816164E-02  0.1312668E+00
        -11   -1    0    0    0    0  0.00000000000E+00  0.00000000000E+00  0.45593999997E+02  0.45594000000E+02  0.51100000000E-03 0. -1.
         11   -1    0    0    0    0 -0.00000000000E+00 -0.00000000000E+00 -0.45593999997E+02  0.45594000000E+02  0.51100000000E-03 0.  1.
    9900012    2    1    2    0    0 -0.13509840463E+02  0.22483091936E+02 -0.34577704216E+02  0.47787276029E+02  0.20000022728E+02 0.  0.
         12    1    1    2    0    0  0.13509840463E+02 -0.22483091936E+02  0.34577704216E+02  0.43400723971E+02  0.00000000000E+00 0. -1.
         11    1    3    3    0    0  0.34352743008E+01  0.10500449388E+02 -0.12591544867E+02  0.16751344701E+02  0.51100000000E-03 0. -1.
        -11    1    3    3    0    0 -0.14527838808E+02  0.11454049516E+02 -0.21744825147E+02  0.28549794599E+02  0.51100000000E-03 0.  1.
         12    1    3    3    0    0 -0.24172759561E+01  0.52859303137E+00 -0.24133420229E+00  0.24861367295E+01  0.00000000000E+00 0. -1.
</event>
<event>
 7    1  0.7357971E-011  0.4778728E+02  0.7816164E-02  0.1312668E+00
        -11   -1    0    0    0    0  0.00000000000E+00  0.00000000000E+00  0.45593999997E+02  0.45594000000E+02  0.51100000000E-03 0. -1.
         11   -1    0    0    0    0 -0.00000000000E+00 -0.00000000000E+00 -0.45593999997E+02  0.45594000000E+02  0.51100000000E-03 0.  1.
    9900012    2    1    2    0    0  0.99073773894E+01  0.18029458678E+02 -0.38215245878E+02  0.47787279678E+02  0.20000039364E+02 0.  0.
         12    1    1    2    0    0 -0.99073773894E+01 -0.18029458678E+02  0.38215245878E+02  0.43400720322E+02  0.00000000000E+00 0. -1.
         11    1    3    3    0    0  0.85257559818E+01  0.16119516151E+02 -0.14196230118E+02  0.23109743959E+02  0.51100000000E-03 0. -1.
        -11    1    3    3    0    0  0.33155233547E+01  0.74562951579E+00 -0.13818864092E+02  0.14230589009E+02  0.51100000000E-03 0.  1.
         12    1    3    3    0    0 -0.19339019471E+01  0.11643130113E+01 -0.10200151667E+02  0.10446946710E+02  0.00000000000E+00 0. -1.
</event>
<event>
 7    1  0.7357971E-011  0.4778727E+02  0.7816164E-02  0.1312668E+00
        -11   -1    0    0    0    0  0.00000000000E+00  0.00000000000E+00  0.45593999997E+02  0.45594000000E+02  0.51100000000E-03 0. -1.
         11   -1    0    0    0    0 -0.00000000000E+00 -0.00000000000E+00 -0.45593999997E+02  0.45594000000E+02  0.51100000000E-03 0.  1.
    9900012    2    1    2    0    0  0.39938854743E+00 -0.21817535215E+02 -0.37516113951E+02  0.47787272356E+02  0.20000005979E+02 0.  0.
         12    1    1    2    0    0 -0.39938854743E+00  0.21817535215E+02  0.37516113951E+02  0.43400727644E+02  0.00000000000E+00 0. -1.
         11    1    3    3    0    0  0.75165795794E+01 -0.19391677939E+02 -0.31998523838E+02  0.38163355066E+02  0.51100000000E-03 0.  1.
        -11    1    3    3    0    0 -0.64559943631E+01 -0.16674600158E+01 -0.54565223049E+01  0.86159109818E+01  0.51100000000E-03 0. -1.
         12    1    3    3    0    0 -0.66119666889E+00 -0.75839726003E+00 -0.61067808540E-01  0.10080063076E+01  0.00000000000E+00 0. -1.
</event>
<event>
 7    1  0.7357971E-011  0.4778727E+02  0.7816164E-02  0.1312668E+00
        -11   -1    0    0    0    0  0.00000000000E+00  0.00000000000E+00  0.45593999997E+02  0.45594000000E+02  0.51100000000E-03 0. -1.
         11   -1    0    0    0    0 -0.00000000000E+00 -0.00000000000E+00 -0.45593999997E+02  0.45594000000E+02  0.51100000000E-03 0.  1.
    9900012    2    1    2    0    0  0.26546168335E+02  0.24083207763E+02  0.24472911462E+02  0.47787270227E+02  0.19999996271E+02 0.  0.
        -12    1    1    2    0    0 -0.26546168335E+02 -0.24083207763E+02 -0.24472911462E+02  0.43400729773E+02  0.00000000000E+00 0.  1.
         11    1    3    3    0    0  0.34322538170E+01  0.12117122138E+02  0.15122259713E+02  0.19679627900E+02  0.51100000000E-03 0.  1.
        -11    1    3    3    0    0  0.83922898835E+01  0.57531360555E+01  0.14353163233E+01  0.10275662371E+02  0.51100000000E-03 0. -1.
        -12    1    3    3    0    0  0.14721624634E+02  0.62129495694E+01  0.79153354251E+01  0.17831979955E+02  0.00000000000E+00 0.  1.
</event>
<event>
 7    1  0.7357971E-011  0.4778727E+02  0.7816164E-02  0.1312668E+00
        -11   -1    0    0    0    0  0.00000000000E+00  0.00000000000E+00  0.45593999997E+02  0.45594000000E+02  0.51100000000E-03 0. -1.
         11   -1    0    0    0    0 -0.00000000000E+00 -0.00000000000E+00 -0.45593999997E+02  0.45594000000E+02  0.51100000000E-03 0.  1.
    9900012    2    1    2    0    0 -0.23021274376E+01 -0.27228803854E+02 -0.33718183492E+02  0.47787269038E+02  0.19999990850E+02 0.  0.
         12    1    1    2    0    0  0.23021274376E+01  0.27228803854E+02  0.33718183492E+02  0.43400730962E+02  0.00000000000E+00 0. -1.
         11    1    3    3    0    0 -0.15826796941E+01 -0.87116038134E+01 -0.54485933130E+01  0.10396349617E+02  0.51100000000E-03 0. -1.
        -11    1    3    3    0    0  0.52864974838E+01 -0.17388531554E+02 -0.23057074384E+02  0.29358759590E+02  0.51100000000E-03 0.  1.
        -12    1    3    3    0    0 -0.60059452273E+01 -0.11286684875E+01 -0.52125157946E+01  0.80321598301E+01  0.00000000000E+00 0.  1.
</event>
<event>
 7    1  0.7357971E-011  0.4778727E+02  0.7816164E-02  0.1312668E+00
        -11   -1    0    0    0    0  0.00000000000E+00  0.00000000000E+00  0.45593999997E+02  0.45594000000E+02  0.51100000000E-03 0. -1.
         11   -1    0    0    0    0 -0.00000000000E+00 -0.00000000000E+00 -0.45593999997E+02  0.45594000000E+02  0.51100000000E-03 0.  1.
    9900012    2    1    2    0    0 -0.13187908522E+02  0.23089247044E+02  0.34301443029E+02  0.47787271272E+02  0.20000001039E+02 0.  0.
        -12    1    1    2    0    0  0.13187908522E+02 -0.23089247044E+02 -0.34301443029E+02  0.43400728728E+02  0.00000000000E+00 0.  1.
         11    1    3    3    0    0 -0.23132467419E+01  0.76633835746E+01  0.15158436137E+02  0.17142250281E+02  0.51100000000E-03 0. -1.
        -11    1    3    3    0    0 -0.13825834274E+02  0.11546054470E+02  0.10858137135E+02  0.21032456097E+02  0.51100000000E-03 0.  1.
        -12    1    3    3    0    0  0.29511724938E+01  0.38798089998E+01  0.82848697565E+01  0.96125648943E+01  0.00000000000E+00 0.  1.
</event>
<event>
 7    1  0.7357971E-011  0.4778729E+02  0.7816164E-02  0.1312668E+00
        -11   -1    0    0    0    0  0.00000000000E+00  0.00000000000E+00  0.45593999997E+02  0.45594000000E+02  0.51100000000E-03 0.  1.
         11   -1    0    0    0    0 -0.00000000000E+00 -0.00000000000E+00 -0.45593999997E+02  0.45594000000E+02  0.51100000000E-03 0. -1.
    9900012    2    1    2    0    0  0.41436926571E+02 -0.31121079617E+01  0.12526668778E+02  0.47787291132E+02  0.20000091586E+02 0.  0.
        -12    1    1    2    0    0 -0.41436926571E+02  0.31121079617E+01 -0.12526668778E+02  0.43400708868E+02  0.00000000000E+00 0.  1.
         11    1    3    3    0    0  0.41645345736E+02 -0.31960959029E+00  0.13862347397E+02  0.43893070607E+02  0.51100000000E-03 0. -1.
        -11    1    3    3    0    0  0.31504913535E-01 -0.17167642699E+01 -0.19773976371E+01  0.26188497083E+01  0.51100000000E-03 0.  1.
         12    1    3    3    0    0 -0.23992407826E+00 -0.10757341015E+01  0.64171901807E+00  0.12753708161E+01  0.00000000000E+00 0. -1.
</event>
<event>
 7    1  0.7357971E-011  0.4778727E+02  0.7816164E-02  0.1312668E+00
        -11   -1    0    0    0    0  0.00000000000E+00  0.00000000000E+00  0.45593999997E+02  0.45594000000E+02  0.51100000000E-03 0. -1.
         11   -1    0    0    0    0 -0.00000000000E+00 -0.00000000000E+00 -0.45593999997E+02  0.45594000000E+02  0.51100000000E-03 0.  1.
    9900012    2    1    2    0    0  0.28808249288E+02 -0.26092019322E+02  0.19310991218E+02  0.47787273265E+02  0.20000010124E+02 0.  0.
        -12    1    1    2    0    0 -0.28808249288E+02  0.26092019322E+02 -0.19310991218E+02  0.43400726735E+02  0.00000000000E+00 0.  1.
         11    1    3    3    0    0  0.10459659042E+02 -0.15432442283E+02  0.47255514666E+01  0.19232669576E+02  0.51100000000E-03 0.  1.
        -11    1    3    3    0    0  0.26727876877E+01 -0.82690641474E+01  0.50283165642E+01  0.10040178466E+02  0.51100000000E-03 0. -1.
         12    1    3    3    0    0  0.15675802558E+02 -0.23905128914E+01  0.95571231875E+01  0.18514425223E+02  0.00000000000E+00 0. -1.
</event>
<event>
 7    1  0.7357971E-011  0.4778727E+02  0.7816164E-02  0.1312668E+00
        -11   -1    0    0    0    0  0.00000000000E+00  0.00000000000E+00  0.45593999997E+02  0.45594000000E+02  0.51100000000E-03 0. -1.
         11   -1    0    0    0    0 -0.00000000000E+00 -0.00000000000E+00 -0.45593999997E+02  0.45594000000E+02  0.51100000000E-03 0.  1.
    9900012    2    1    2    0    0  0.29606087046E+02  0.62348145479E+01 -0.31116391347E+02  0.47787272897E+02  0.20000008448E+02 0.  0.
         12    1    1    2    0    0 -0.29606087046E+02 -0.62348145479E+01  0.31116391347E+02  0.43400727103E+02  0.00000000000E+00 0. -1.
         11    1    3    3    0    0  0.19790593167E+02 -0.47915835481E+01 -0.13535920241E+02  0.24450930204E+02  0.51100000000E-03 0. -1.
        -11    1    3    3    0    0  0.97231832174E+01  0.11321983565E+02 -0.16669054921E+02  0.22373756858E+02  0.51100000000E-03 0.  1.
        -12    1    3    3    0    0  0.92310660734E-01 -0.29558546924E+00 -0.91141618471E+00  0.96258583485E+00  0.00000000000E+00 0.  1.
</event>
<event>
 7    1  0.7357971E-011  0.4778727E+02  0.7816164E-02  0.1312668E+00
        -11   -1    0    0    0    0  0.00000000000E+00  0.00000000000E+00  0.45593999997E+02  0.45594000000E+02  0.51100000000E-03 0. -1.
         11   -1    0    0    0    0 -0.00000000000E+00 -0.00000000000E+00 -0.45593999997E+02  0.45594000000E+02  0.51100000000E-03 0.  1.
    9900012    2    1    2    0    0  0.18245031216E+02 -0.18402496965E+02 -0.34815089605E+02  0.47787268176E+02  0.19999986923E+02 0.  0.
         12    1    1    2    0    0 -0.18245031216E+02  0.18402496965E+02  0.34815089605E+02  0.43400731824E+02  0.00000000000E+00 0. -1.
         11    1    3    3    0    0  0.39095407281E+01 -0.44231647796E+01 -0.66400105294E+01  0.88847417218E+01  0.51100000000E-03 0. -1.
        -11    1    3    3    0    0  0.79505476208E+01 -0.14325553734E+02 -0.28076705800E+02  0.32507446933E+02  0.51100000000E-03 0.  1.
        -12    1    3    3    0    0  0.63849428675E+01  0.34622154839E+00 -0.98373274970E-01  0.63950795212E+01  0.00000000000E+00 0.  1.
</event>
<event>
 7    1  0.7357971E-011  0.4778726E+02  0.7816164E-02  0.1312668E+00
        -11   -1    0    0    0    0  0.00000000000E+00  0.00000000000E+00  0.45593999997E+02  0.45594000000E+02  0.51100000000E-03 0. -1.
         11   -1    0    0    0    0 -0.00000000000E+00 -0.00000000000E+00 -0.45593999997E+02  0.45594000000E+02  0.51100000000E-03 0.  1.
    9900012    2    1    2    0    0 -0.23921020417E+02 -0.77764574716E+01 -0.35368568580E+02  0.47787260929E+02  0.19999953878E+02 0.  0.
         12    1    1    2    0    0  0.23921020417E+02  0.77764574716E+01  0.35368568580E+02  0.43400739071E+02  0.00000000000E+00 0. -1.
         11    1    3    3    0    0 -0.16734912265E+01  0.26776006514E+00 -0.63439519083E+01  0.65664293504E+01  0.51100000000E-03 0. -1.
        -11    1    3    3    0    0 -0.54688273095E+01 -0.63659790277E+01 -0.20861662668E+02  0.22486501076E+02  0.51100000000E-03 0.  1.
        -12    1    3    3    0    0 -0.16778701881E+02 -0.16782385091E+01 -0.81629540033E+01  0.18734330502E+02  0.00000000000E+00 0.  1.
</event>
<event>
 7    1  0.7357971E-011  0.4778727E+02  0.7816164E-02  0.1312668E+00
        -11   -1    0    0    0    0  0.00000000000E+00  0.00000000000E+00  0.45593999997E+02  0.45594000000E+02  0.51100000000E-03 0. -1.
         11   -1    0    0    0    0 -0.00000000000E+00 -0.00000000000E+00 -0.45593999997E+02  0.45594000000E+02  0.51100000000E-03 0.  1.
    9900012    2    1    2    0    0 -0.68579027541E+01  0.32736821962E+02 -0.27656702211E+02  0.47787268215E+02  0.19999987097E+02 0.  0.
         12    1    1    2    0    0  0.68579027541E+01 -0.32736821962E+02  0.27656702211E+02  0.43400731785E+02  0.00000000000E+00 0. -1.
         11    1    3    3    0    0 -0.39840763123E+01  0.81387087536E+01 -0.19042544126E+02  0.21088620896E+02  0.51100000000E-03 0. -1.
        -11    1    3    3    0    0 -0.14206938833E+00  0.15977460310E+02 -0.36776559053E+01  0.16395870666E+02  0.51100000000E-03 0.  1.
         12    1    3    3    0    0 -0.27317570535E+01  0.86206528978E+01 -0.49365021793E+01  0.10302776652E+02  0.00000000000E+00 0. -1.
</event>
<event>
 7    1  0.7357971E-011  0.4778728E+02  0.7816164E-02  0.1312668E+00
        -11   -1    0    0    0    0  0.00000000000E+00  0.00000000000E+00  0.45593999997E+02  0.45594000000E+02  0.51100000000E-03 0. -1.
         11   -1    0    0    0    0 -0.00000000000E+00 -0.00000000000E+00 -0.45593999997E+02  0.45594000000E+02  0.51100000000E-03 0.  1.
    9900012    2    1    2    0    0 -0.28254464005E+02 -0.21708609887E+02 -0.24779912199E+02  0.47787279637E+02  0.20000039178E+02 0.  0.
         12    1    1    2    0    0  0.28254464005E+02  0.21708609887E+02  0.24779912199E+02  0.43400720363E+02  0.00000000000E+00 0. -1.
         11    1    3    3    0    0 -0.12066493602E+01  0.27356242725E+01 -0.71915253079E-01  0.29907883414E+01  0.51100000000E-03 0. -1.
        -11    1    3    3    0    0 -0.15785419536E+02 -0.19338009936E+02 -0.17461364190E+02  0.30463705255E+02  0.51100000000E-03 0.  1.
         12    1    3    3    0    0 -0.11262395109E+02 -0.51062242235E+01 -0.72466327557E+01  0.14332786041E+02  0.00000000000E+00 0. -1.
</event>
<event>
 7    1  0.7357971E-011  0.4778728E+02  0.7816164E-02  0.1312668E+00
        -11   -1    0    0    0    0  0.00000000000E+00  0.00000000000E+00  0.45593999997E+02  0.45594000000E+02  0.51100000000E-03 0. -1.
         11   -1    0    0    0    0 -0.00000000000E+00 -0.00000000000E+00 -0.45593999997E+02  0.45594000000E+02  0.51100000000E-03 0.  1.
    9900012    2    1    2    0    0 -0.13705261394E+02  0.37245326673E+02  0.17566284586E+02  0.47787275316E+02  0.20000019478E+02 0.  0.
        -12    1    1    2    0    0  0.13705261394E+02 -0.37245326673E+02 -0.17566284586E+02  0.43400724684E+02  0.00000000000E+00 0.  1.
         11    1    3    3    0    0  0.11512702034E+01  0.43682467079E+01  0.19488405444E+01  0.49198559035E+01  0.51100000000E-03 0. -1.
        -11    1    3    3    0    0 -0.68894658007E+01  0.30505119913E+02  0.99947188195E+01  0.32831714613E+02  0.51100000000E-03 0.  1.
         12    1    3    3    0    0 -0.79670657967E+01  0.23719600529E+01  0.56227252226E+01  0.10035704800E+02  0.00000000000E+00 0. -1.
</event>
<event>
 7    1  0.7357971E-011  0.4778727E+02  0.7816164E-02  0.1312668E+00
        -11   -1    0    0    0    0  0.00000000000E+00  0.00000000000E+00  0.45593999997E+02  0.45594000000E+02  0.51100000000E-03 0. -1.
         11   -1    0    0    0    0 -0.00000000000E+00 -0.00000000000E+00 -0.45593999997E+02  0.45594000000E+02  0.51100000000E-03 0.  1.
    9900012    2    1    2    0    0  0.13314340202E+02 -0.26965294082E+02 -0.31292563672E+02  0.47787270961E+02  0.19999999621E+02 0.  0.
         12    1    1    2    0    0 -0.13314340202E+02  0.26965294082E+02  0.31292563672E+02  0.43400729039E+02  0.00000000000E+00 0. -1.
         11    1    3    3    0    0  0.98971499725E+01 -0.79836025970E+01 -0.36924433250E+01  0.13241058340E+02  0.51100000000E-03 0. -1.
        -11    1    3    3    0    0  0.31482340417E+01 -0.54125780791E+01 -0.43482035109E+01  0.76232704974E+01  0.51100000000E-03 0.  1.
         12    1    3    3    0    0  0.26895618746E+00 -0.13569113406E+02 -0.23251916836E+02  0.26922942124E+02  0.00000000000E+00 0. -1.
</event>
<event>
 7    1  0.7357971E-011  0.4778729E+02  0.7816164E-02  0.1312668E+00
        -11   -1    0    0    0    0  0.00000000000E+00  0.00000000000E+00  0.45593999997E+02  0.45594000000E+02  0.51100000000E-03 0. -1.
         11   -1    0    0    0    0 -0.00000000000E+00 -0.00000000000E+00 -0.45593999997E+02  0.45594000000E+02  0.51100000000E-03 0.  1.
    9900012    2    1    2    0    0 -0.66222193517E+01 -0.12309464865E+02  0.41088257163E+02  0.47787290431E+02  0.20000088392E+02 0.  0.
        -12    1    1    2    0    0  0.66222193517E+01  0.12309464865E+02 -0.41088257163E+02  0.43400709569E+02  0.00000000000E+00 0.  1.
         11    1    3    3    0    0 -0.81398286186E+01 -0.94217995030E-01  0.26927742622E+02  0.28131281697E+02  0.51100000000E-03 0. -1.
        -11    1    3    3    0    0 -0.17258957156E+01 -0.76960367479E+01  0.98501564447E+01  0.12618766972E+02  0.51100000000E-03 0.  1.
         12    1    3    3    0    0  0.32435049824E+01 -0.45192101218E+01  0.43103580962E+01  0.70372417618E+01  0.00000000000E+00 0. -1.
</event>
<event>
 7    1  0.7357971E-011  0.4778727E+02  0.7816164E-02  0.1312668E+00
        -11   -1    0    0    0    0  0.00000000000E+00  0.00000000000E+00  0.45593999997E+02  0.45594000000E+02  0.51100000000E-03 0.  1.
         11   -1    0    0    0    0 -0.00000000000E+00 -0.00000000000E+00 -0.45593999997E+02  0.45594000000E+02  0.51100000000E-03 0. -1.
    9900012    2    1    2    0    0 -0.50895807243E+01  0.35001527545E+02  0.25151790640E+02  0.47787270342E+02  0.19999996799E+02 0.  0.
        -12    1    1    2    0    0  0.50895807243E+01 -0.35001527545E+02 -0.25151790640E+02  0.43400729658E+02  0.00000000000E+00 0.  1.
         11    1    3    3    0    0  0.40237107287E+01  0.16279002780E+02  0.10386422614E+02  0.19724957656E+02  0.51100000000E-03 0. -1.
        -11    1    3    3    0    0 -0.40018137848E+01  0.95120619111E+00  0.67577467178E+01  0.79111596969E+01  0.51100000000E-03 0.  1.
         12    1    3    3    0    0 -0.51114776682E+01  0.17771318574E+02  0.80076213086E+01  0.20151152990E+02  0.00000000000E+00 0. -1.
</event>
<event>
 7    1  0.7357971E-011  0.4778727E+02  0.7816164E-02  0.1312668E+00
        -11   -1    0    0    0    0  0.00000000000E+00  0.00000000000E+00  0.45593999997E+02  0.45594000000E+02  0.51100000000E-03 0.  1.
         11   -1    0    0    0    0 -0.00000000000E+00 -0.00000000000E+00 -0.45593999997E+02  0.45594000000E+02  0.51100000000E-03 0. -1.
    9900012    2    1    2    0    0 -0.29227169354E+01 -0.41166975882E+02  0.13429858392E+02  0.47787271043E+02  0.19999999996E+02 0.  0.
        -12    1    1    2    0    0  0.29227169354E+01  0.41166975882E+02 -0.13429858392E+02  0.43400728957E+02  0.00000000000E+00 0.  1.
         11    1    3    3    0    0 -0.47857262353E+01 -0.85735709162E+01 -0.15304272078E+01  0.99373790083E+01  0.51100000000E-03 0. -1.
        -11    1    3    3    0    0  0.62381177887E+01 -0.15858110299E+02  0.10389895967E+02  0.19958549905E+02  0.51100000000E-03 0.  1.
         12    1    3    3    0    0 -0.43751084888E+01 -0.16735294666E+02  0.45703896327E+01  0.17891342131E+02  0.00000000000E+00 0. -1.
</event>
<event>
 7    1  0.7357971E-011  0.4778728E+02  0.7816164E-02  0.1312668E+00
        -11   -1    0    0    0    0  0.00000000000E+00  0.00000000000E+00  0.45593999997E+02  0.45594000000E+02  0.51100000000E-03 0. -1.
         11   -1    0    0    0    0 -0.00000000000E+00 -0.00000000000E+00 -0.45593999997E+02  0.45594000000E+02  0.51100000000E-03 0.  1.
    9900012    2    1    2    0    0  0.40525444481E+01  0.35489878170E+02 -0.24650929842E+02  0.47787275224E+02  0.20000019058E+02 0.  0.
         12    1    1    2    0    0 -0.40525444481E+01 -0.35489878170E+02  0.24650929842E+02  0.43400724776E+02  0.00000000000E+00 0. -1.
         11    1    3    3    0    0 -0.26919785156E+01  0.25729212945E+02 -0.17427871376E+02  0.31192464603E+02  0.51100000000E-03 0. -1.
        -11    1    3    3    0    0  0.75701562957E+01  0.10378955488E+02 -0.43834664038E+01  0.13573678990E+02  0.51100000000E-03 0.  1.
         12    1    3    3    0    0 -0.82563333201E+00 -0.61829026309E+00 -0.28395920623E+01  0.30211316305E+01  0.00000000000E+00 0. -1.
</event>
<event>
 7    1  0.7357971E-011  0.4778727E+02  0.7816164E-02  0.1312668E+00
        -11   -1    0    0    0    0  0.00000000000E+00  0.00000000000E+00  0.45593999997E+02  0.45594000000E+02  0.51100000000E-03 0. -1.
         11   -1    0    0    0    0 -0.00000000000E+00 -0.00000000000E+00 -0.45593999997E+02  0.45594000000E+02  0.51100000000E-03 0.  1.
    9900012    2    1    2    0    0 -0.28035844132E+02 -0.17865949058E+02 -0.27900227377E+02  0.47787269826E+02  0.19999994444E+02 0.  0.
         12    1    1    2    0    0  0.28035844132E+02  0.17865949058E+02  0.27900227377E+02  0.43400730174E+02  0.00000000000E+00 0. -1.
         11    1    3    3    0    0 -0.46020278351E+01 -0.43543490564E+01 -0.93784043289E+00  0.64045734314E+01  0.51100000000E-03 0. -1.
        -11    1    3    3    0    0 -0.78503330195E+01 -0.12585952969E+02 -0.18205192073E+02  0.23483248484E+02  0.51100000000E-03 0.  1.
        -12    1    3    3    0    0 -0.15583483278E+02 -0.92564703205E+00 -0.87571948714E+01  0.17899447911E+02  0.00000000000E+00 0.  1.
</event>
<event>
 7    1  0.7357971E-011  0.4778727E+02  0.7816164E-02  0.1312668E+00
        -11   -1    0    0    0    0  0.00000000000E+00  0.00000000000E+00  0.45593999997E+02  0.45594000000E+02  0.51100000000E-03 0. -1.
         11   -1    0    0    0    0 -0.00000000000E+00 -0.00000000000E+00 -0.45593999997E+02  0.45594000000E+02  0.51100000000E-03 0.  1.
    9900012    2    1    2    0    0  0.19025637202E+02 -0.72161603162E+01  0.38335043227E+02  0.47787269823E+02  0.19999994433E+02 0.  0.
        -12    1    1    2    0    0 -0.19025637202E+02  0.72161603162E+01 -0.38335043227E+02  0.43400730177E+02  0.00000000000E+00 0.  1.
         11    1    3    3    0    0  0.51894279965E+01 -0.31889233052E+01  0.11879133578E+02  0.13349652041E+02  0.51100000000E-03 0. -1.
        -11    1    3    3    0    0  0.17738825937E+02 -0.37701337654E+01  0.21730370738E+02  0.28303513332E+02  0.51100000000E-03 0.  1.
        -12    1    3    3    0    0 -0.39026167309E+01 -0.25710324563E+00  0.47255389099E+01  0.61341044510E+01  0.00000000000E+00 0.  1.
</event>
<event>
 7    1  0.9874890E-011  0.4778727E+02  0.7816164E-02  0.1312668E+00
        -11   -1    0    0    0    0  0.00000000000E+00  0.00000000000E+00  0.45593999997E+02  0.45594000000E+02  0.51100000000E-03 0. -1.
         11   -1    0    0    0    0 -0.00000000000E+00 -0.00000000000E+00 -0.45593999997E+02  0.45594000000E+02  0.51100000000E-03 0.  1.
    9900012    2    1    2    0    0  0.34099690113E+02  0.10400844602E+02  0.24751904117E+02  0.47787271992E+02  0.20000004319E+02 0.  0.
        -12    1    1    2    0    0 -0.34099690113E+02 -0.10400844602E+02 -0.24751904117E+02  0.43400728008E+02  0.00000000000E+00 0.  1.
         11    1    3    3    0    0  0.28631159487E+02  0.63061102900E+01  0.21500371107E+02  0.36356241261E+02  0.51100000000E-03 0. -1.
        -11    1    3    3    0    0  0.27689764864E+01 -0.19337194042E+01 -0.10639325819E+01  0.35409679915E+01  0.51100000000E-03 0.  1.
         12    1    3    3    0    0  0.26995541389E+01  0.60284537164E+01  0.43154655919E+01  0.78900627396E+01  0.00000000000E+00 0. -1.
</event>
<event>
 7    1  0.7357971E-011  0.4778727E+02  0.7816164E-02  0.1312668E+00
        -11   -1    0    0    0    0  0.00000000000E+00  0.00000000000E+00  0.45593999997E+02  0.45594000000E+02  0.51100000000E-03 0. -1.
         11   -1    0    0    0    0 -0.00000000000E+00 -0.00000000000E+00 -0.45593999997E+02  0.45594000000E+02  0.51100000000E-03 0.  1.
    9900012    2    1    2    0    0  0.65977002387E+01 -0.30903043295E+02 -0.29750557316E+02  0.47787269661E+02  0.19999993693E+02 0.  0.
         12    1    1    2    0    0 -0.65977002387E+01  0.30903043295E+02  0.29750557316E+02  0.43400730339E+02  0.00000000000E+00 0. -1.
         11    1    3    3    0    0  0.47644011427E+01 -0.55976998028E+01 -0.73547554751E+01  0.10398374377E+02  0.51100000000E-03 0. -1.
        -11    1    3    3    0    0 -0.34309655146E+01 -0.31587191639E+01  0.97461462699E+00  0.47643367903E+01  0.51100000000E-03 0.  1.
        -12    1    3    3    0    0  0.52642646106E+01 -0.22146624329E+02 -0.23370416467E+02  0.32624558494E+02  0.00000000000E+00 0.  1.
</event>
<event>
 7    1  0.7357971E-011  0.4778727E+02  0.7816164E-02  0.1312668E+00
        -11   -1    0    0    0    0  0.00000000000E+00  0.00000000000E+00  0.45593999997E+02  0.45594000000E+02  0.51100000000E-03 0. -1.
         11   -1    0    0    0    0 -0.00000000000E+00 -0.00000000000E+00 -0.45593999997E+02  0.45594000000E+02  0.51100000000E-03 0.  1.
    9900012    2    1    2    0    0  0.17141722637E+02  0.15254776048E+02  0.36838517321E+02  0.47787271830E+02  0.20000003582E+02 0.  0.
        -12    1    1    2    0    0 -0.17141722637E+02 -0.15254776048E+02 -0.36838517321E+02  0.43400728170E+02  0.00000000000E+00 0.  1.
         11    1    3    3    0    0  0.11605714874E+01 -0.40346444229E+01  0.30390263727E+01  0.51827563470E+01  0.51100000000E-03 0. -1.
        -11    1    3    3    0    0  0.25633113661E+00  0.38125591380E+00 -0.30983653968E+00  0.55413054947E+00  0.51100000000E-03 0.  1.
         12    1    3    3    0    0  0.15724820013E+02  0.18908164557E+02  0.34109327488E+02  0.42050384934E+02  0.00000000000E+00 0. -1.
</event>
<event>
 7    1  0.7357971E-011  0.4778727E+02  0.7816164E-02  0.1312668E+00
        -11   -1    0    0    0    0  0.00000000000E+00  0.00000000000E+00  0.45593999997E+02  0.45594000000E+02  0.51100000000E-03 0.  1.
         11   -1    0    0    0    0 -0.00000000000E+00 -0.00000000000E+00 -0.45593999997E+02  0.45594000000E+02  0.51100000000E-03 0. -1.
    9900012    2    1    2    0    0  0.91602678946E+01  0.41203082787E+02 -0.10100426999E+02  0.47787272303E+02  0.20000005740E+02 0.  0.
         12    1    1    2    0    0 -0.91602678946E+01 -0.41203082787E+02  0.10100426999E+02  0.43400727697E+02  0.00000000000E+00 0. -1.
         11    1    3    3    0    0 -0.18229259081E+01  0.22952058407E+01 -0.10282175312E+01  0.31061648814E+01  0.51100000000E-03 0. -1.
        -11    1    3    3    0    0  0.21392000044E+01 -0.98193569903E+00 -0.22515263925E+01  0.32572604645E+01  0.51100000000E-03 0.  1.
        -12    1    3    3    0    0  0.88439937983E+01  0.39889812645E+02 -0.68206830751E+01  0.41423846958E+02  0.00000000000E+00 0.  1.
</event>
<event>
 7    1  0.7357971E-011  0.4778726E+02  0.7816164E-02  0.1312668E+00
        -11   -1    0    0    0    0  0.00000000000E+00  0.00000000000E+00  0.45593999997E+02  0.45594000000E+02  0.51100000000E-03 0. -1.
         11   -1    0    0    0    0 -0.00000000000E+00 -0.00000000000E+00 -0.45593999997E+02  0.45594000000E+02  0.51100000000E-03 0.  1.
    9900012    2    1    2    0    0 -0.34583304782E+02  0.10343017809E+02 -0.24096498060E+02  0.47787260308E+02  0.19999951047E+02 0.  0.
         12    1    1    2    0    0  0.34583304782E+02 -0.10343017809E+02  0.24096498060E+02  0.43400739692E+02  0.00000000000E+00 0. -1.
         11    1    3    3    0    0 -0.10311870649E+02 -0.50412925069E+01 -0.91983903961E+01  0.14709170356E+02  0.51100000000E-03 0. -1.
        -11    1    3    3    0    0 -0.23413645392E+02  0.15277889367E+02 -0.15554219843E+02  0.31992912485E+02  0.51100000000E-03 0.  1.
        -12    1    3    3    0    0 -0.85778874052E+00  0.10642094878E+00  0.65611217918E+00  0.10851774663E+01  0.00000000000E+00 0.  1.
</event>
<event>
 7    1  0.7357971E-011  0.4778727E+02  0.7816164E-02  0.1312668E+00
        -11   -1    0    0    0    0  0.00000000000E+00  0.00000000000E+00  0.45593999997E+02  0.45594000000E+02  0.51100000000E-03 0. -1.
         11   -1    0    0    0    0 -0.00000000000E+00 -0.00000000000E+00 -0.45593999997E+02  0.45594000000E+02  0.51100000000E-03 0.  1.
    9900012    2    1    2    0    0  0.11204803257E+01 -0.43385381622E+02  0.27658561881E+00  0.47787270579E+02  0.19999997877E+02 0.  0.
        -12    1    1    2    0    0 -0.11204803257E+01  0.43385381622E+02 -0.27658561881E+00  0.43400729421E+02  0.00000000000E+00 0.  1.
         11    1    3    3    0    0  0.34556917016E+01 -0.24499451933E+02 -0.80154157823E+01  0.26007918805E+02  0.51100000000E-03 0. -1.
        -11    1    3    3    0    0 -0.18807562187E+01 -0.55852077823E+01  0.57432299201E+01  0.82290023758E+01  0.51100000000E-03 0.  1.
         12    1    3    3    0    0 -0.45445515724E+00 -0.13300721907E+02  0.25487714810E+01  0.13550349398E+02  0.00000000000E+00 0. -1.
</event>
<event>
 7    1  0.7357971E-011  0.4778727E+02  0.7816164E-02  0.1312668E+00
        -11   -1    0    0    0    0  0.00000000000E+00  0.00000000000E+00  0.45593999997E+02  0.45594000000E+02  0.51100000000E-03 0. -1.
         11   -1    0    0    0    0 -0.00000000000E+00 -0.00000000000E+00 -0.45593999997E+02  0.45594000000E+02  0.51100000000E-03 0.  1.
    9900012    2    1    2    0    0 -0.39876554391E+02  0.67170532896E+01  0.15759598547E+02  0.47787270267E+02  0.19999996455E+02 0.  0.
        -12    1    1    2    0    0  0.39876554391E+02 -0.67170532896E+01 -0.15759598547E+02  0.43400729733E+02  0.00000000000E+00 0.  1.
         11    1    3    3    0    0 -0.25290569745E+02  0.34422133539E+00  0.12050980466E+02  0.28017093654E+02  0.51100000000E-03 0. -1.
        -11    1    3    3    0    0 -0.37899578685E+01  0.74811913748E+01  0.29530026750E+01  0.88911321040E+01  0.51100000000E-03 0.  1.
         12    1    3    3    0    0 -0.10796026777E+02 -0.11083594207E+01  0.75561540611E+00  0.10879044509E+02  0.00000000000E+00 0. -1.
</event>
<event>
 7    1  0.7357971E-011  0.4778727E+02  0.7816164E-02  0.1312668E+00
        -11   -1    0    0    0    0  0.00000000000E+00  0.00000000000E+00  0.45593999997E+02  0.45594000000E+02  0.51100000000E-03 0. -1.
         11   -1    0    0    0    0 -0.00000000000E+00 -0.00000000000E+00 -0.45593999997E+02  0.45594000000E+02  0.51100000000E-03 0.  1.
    9900012    2    1    2    0    0 -0.44304478435E+01 -0.28681224245E+02  0.32270445267E+02  0.47787272702E+02  0.20000007556E+02 0.  0.
        -12    1    1    2    0    0  0.44304478435E+01  0.28681224245E+02 -0.32270445267E+02  0.43400727298E+02  0.00000000000E+00 0.  1.
         11    1    3    3    0    0 -0.24051942453E+01 -0.48532159936E+01  0.39350964094E+01  0.66950465907E+01  0.51100000000E-03 0. -1.
        -11    1    3    3    0    0 -0.94357879595E+01 -0.17532232185E+02  0.20773758245E+02  0.28774333906E+02  0.51100000000E-03 0.  1.
        -12    1    3    3    0    0  0.74105343614E+01 -0.62957760662E+01  0.75615906123E+01  0.12317892205E+02  0.00000000000E+00 0.  1.
</event>
<event>
 7    1  0.7357971E-011  0.4778727E+02  0.7816164E-02  0.1312668E+00
        -11   -1    0    0    0    0  0.00000000000E+00  0.00000000000E+00  0.45593999997E+02  0.45594000000E+02  0.51100000000E-03 0. -1.
         11   -1    0    0    0    0 -0.00000000000E+00 -0.00000000000E+00 -0.45593999997E+02  0.45594000000E+02  0.51100000000E-03 0.  1.
    9900012    2    1    2    0    0 -0.37932536722E+02 -0.21080154309E+02  0.61073192328E+00  0.47787271419E+02  0.20000001710E+02 0.  0.
        -12    1    1    2    0    0  0.37932536722E+02  0.21080154309E+02 -0.61073192328E+00  0.43400728581E+02  0.00000000000E+00 0.  1.
         11    1    3    3    0    0 -0.94715907957E+01 -0.11394792792E+02 -0.48978429384E+01  0.15605806633E+02  0.51100000000E-03 0. -1.
        -11    1    3    3    0    0 -0.36293915830E+01 -0.62302798471E+00 -0.26279327287E+01  0.45240112533E+01  0.51100000000E-03 0.  1.
         12    1    3    3    0    0 -0.24831554343E+02 -0.90623335323E+01  0.81365075903E+01  0.27657453533E+02  0.00000000000E+00 0. -1.
</event>
<event>
 7    1  0.7357971E-011  0.4778727E+02  0.7816164E-02  0.1312668E+00
        -11   -1    0    0    0    0  0.00000000000E+00  0.00000000000E+00  0.45593999997E+02  0.45594000000E+02  0.51100000000E-03 0.  1.
         11   -1    0    0    0    0 -0.00000000000E+00 -0.00000000000E+00 -0.45593999997E+02  0.45594000000E+02  0.51100000000E-03 0. -1.
    9900012    2    1    2    0    0 -0.14125242823E+02  0.36543887857E+02  0.18672050877E+02  0.47787266038E+02  0.19999977173E+02 0.  0.
        -12    1    1    2    0    0  0.14125242823E+02 -0.36543887857E+02 -0.18672050877E+02  0.43400733962E+02  0.00000000000E+00 0.  1.
         11    1    3    3    0    0 -0.64598380972E+01  0.70088059544E+01  0.31363774563E+01  0.10034427386E+02  0.51100000000E-03 0. -1.
        -11    1    3    3    0    0 -0.91331985949E+01  0.30877948763E+02  0.13528566844E+02  0.34926854389E+02  0.51100000000E-03 0.  1.
        -12    1    3    3    0    0  0.14677938693E+01 -0.13428668604E+01  0.20071065771E+01  0.28259842638E+01  0.00000000000E+00 0.  1.
</event>
<event>
 7    1  0.7357971E-011  0.4778727E+02  0.7816164E-02  0.1312668E+00
        -11   -1    0    0    0    0  0.00000000000E+00  0.00000000000E+00  0.45593999997E+02  0.45594000000E+02  0.51100000000E-03 0. -1.
         11   -1    0    0    0    0 -0.00000000000E+00 -0.00000000000E+00 -0.45593999997E+02  0.45594000000E+02  0.51100000000E-03 0.  1.
    9900012    2    1    2    0    0 -0.19597774052E+02 -0.34480356081E+02 -0.17625429875E+02  0.47787268651E+02  0.19999989089E+02 0.  0.
         12    1    1    2    0    0  0.19597774052E+02  0.34480356081E+02  0.17625429875E+02  0.43400731349E+02  0.00000000000E+00 0. -1.
         11    1    3    3    0    0 -0.20133011162E+02 -0.29868970902E+02 -0.10224860924E+02  0.37443842516E+02  0.51100000000E-03 0. -1.
        -11    1    3    3    0    0 -0.54855196874E+00 -0.42217786287E+01 -0.17940545715E+01  0.46198437331E+01  0.51100000000E-03 0.  1.
         12    1    3    3    0    0  0.10837890781E+01 -0.38960655111E+00 -0.56065143797E+01  0.57235824027E+01  0.00000000000E+00 0. -1.
</event>
<event>
 7    1  0.7357971E-011  0.4778727E+02  0.7816164E-02  0.1312668E+00
        -11   -1    0    0    0    0  0.00000000000E+00  0.00000000000E+00  0.45593999997E+02  0.45594000000E+02  0.51100000000E-03 0. -1.
         11   -1    0    0    0    0 -0.00000000000E+00 -0.00000000000E+00 -0.45593999997E+02  0.45594000000E+02  0.51100000000E-03 0.  1.
    9900012    2    1    2    0    0  0.40224922209E+01 -0.19330902062E+02 -0.38649180887E+02  0.47787269575E+02  0.19999993300E+02 0.  0.
         12    1    1    2    0    0 -0.40224922209E+01  0.19330902062E+02  0.38649180887E+02  0.43400730425E+02  0.00000000000E+00 0. -1.
         11    1    3    3    0    0 -0.97822727331E+00 -0.25320335121E+00 -0.33565522360E+01  0.35053507256E+01  0.51100000000E-03 0. -1.
        -11    1    3    3    0    0  0.94666621045E+01 -0.57231371679E+01 -0.23272383378E+02  0.25767728243E+02  0.51100000000E-03 0.  1.
        -12    1    3    3    0    0 -0.44659426103E+01 -0.13354561543E+02 -0.12020245273E+02  0.18514190606E+02  0.00000000000E+00 0.  1.
</event>
<event>
 7    1  0.7357971E-011  0.4778727E+02  0.7816164E-02  0.1312668E+00
        -11   -1    0    0    0    0  0.00000000000E+00  0.00000000000E+00  0.45593999997E+02  0.45594000000E+02  0.51100000000E-03 0. -1.
         11   -1    0    0    0    0 -0.00000000000E+00 -0.00000000000E+00 -0.45593999997E+02  0.45594000000E+02  0.51100000000E-03 0.  1.
    9900012    2    1    2    0    0 -0.24196358922E+02  0.21605736241E+02  0.28833170900E+02  0.47787269963E+02  0.19999995070E+02 0.  0.
        -12    1    1    2    0    0  0.24196358922E+02 -0.21605736241E+02 -0.28833170900E+02  0.43400730037E+02  0.00000000000E+00 0.  1.
         11    1    3    3    0    0 -0.40625885708E+01  0.59635380379E+01  0.78230767210E+01  0.10642788238E+02  0.51100000000E-03 0. -1.
        -11    1    3    3    0    0 -0.20969973107E+02  0.98065381391E+01  0.20990557063E+02  0.31249183164E+02  0.51100000000E-03 0.  1.
        -12    1    3    3    0    0  0.83620275526E+00  0.58356600637E+01  0.19537115938E-01  0.58952985612E+01  0.00000000000E+00 0.  1.
</event>
<event>
 7    1  0.7357971E-011  0.4778727E+02  0.7816164E-02  0.1312668E+00
        -11   -1    0    0    0    0  0.00000000000E+00  0.00000000000E+00  0.45593999997E+02  0.45594000000E+02  0.51100000000E-03 0. -1.
         11   -1    0    0    0    0 -0.00000000000E+00 -0.00000000000E+00 -0.45593999997E+02  0.45594000000E+02  0.51100000000E-03 0.  1.
    9900012    2    1    2    0    0  0.19092810990E+02 -0.11116264544E+02  0.37356613336E+02  0.47787270411E+02  0.19999997113E+02 0.  0.
        -12    1    1    2    0    0 -0.19092810990E+02  0.11116264544E+02 -0.37356613336E+02  0.43400729589E+02  0.00000000000E+00 0.  1.
         11    1    3    3    0    0 -0.12700882694E+01 -0.52101820134E+01  0.15365324496E+02  0.16274283946E+02  0.51100000000E-03 0. -1.
        -11    1    3    3    0    0  0.20406361345E+02 -0.68776914688E+01  0.21473870183E+02  0.30411335455E+02  0.51100000000E-03 0.  1.
         12    1    3    3    0    0 -0.43462085291E-01  0.97160893809E+00  0.51741865696E+00  0.11016510101E+01  0.00000000000E+00 0. -1.
</event>
<event>
 7    1  0.7357971E-011  0.4778728E+02  0.7816164E-02  0.1312668E+00
        -11   -1    0    0    0    0  0.00000000000E+00  0.00000000000E+00  0.45593999997E+02  0.45594000000E+02  0.51100000000E-03 0. -1.
         11   -1    0    0    0    0 -0.00000000000E+00 -0.00000000000E+00 -0.45593999997E+02  0.45594000000E+02  0.51100000000E-03 0.  1.
    9900012    2    1    2    0    0 -0.13604692802E+02 -0.24492878542E+02 -0.33145648781E+02  0.47787276520E+02  0.20000024964E+02 0.  0.
         12    1    1    2    0    0  0.13604692802E+02  0.24492878542E+02  0.33145648781E+02  0.43400723480E+02  0.00000000000E+00 0. -1.
         11    1    3    3    0    0 -0.13182288052E+02 -0.81084867750E+01 -0.17695201661E+02  0.23508305727E+02  0.51100000000E-03 0. -1.
        -11    1    3    3    0    0 -0.37504875152E+01 -0.97585099679E+01 -0.53349314423E+01  0.11736957321E+02  0.51100000000E-03 0.  1.
         12    1    3    3    0    0  0.33280827655E+01 -0.66258817994E+01 -0.10115515677E+02  0.12542013472E+02  0.00000000000E+00 0. -1.
</event>
<event>
 7    1  0.7357971E-011  0.4778729E+02  0.7816164E-02  0.1312668E+00
        -11   -1    0    0    0    0  0.00000000000E+00  0.00000000000E+00  0.45593999997E+02  0.45594000000E+02  0.51100000000E-03 0. -1.
         11   -1    0    0    0    0 -0.00000000000E+00 -0.00000000000E+00 -0.45593999997E+02  0.45594000000E+02  0.51100000000E-03 0.  1.
    9900012    2    1    2    0    0  0.31060698733E+02 -0.23269977533E+00  0.30311722353E+02  0.47787289557E+02  0.20000084405E+02 0.  0.
        -12    1    1    2    0    0 -0.31060698733E+02  0.23269977533E+00 -0.30311722353E+02  0.43400710443E+02  0.00000000000E+00 0.  1.
         11    1    3    3    0    0  0.58520732960E+01  0.50457957333E+01  0.15526129581E+02  0.17342650214E+02  0.51100000000E-03 0. -1.
        -11    1    3    3    0    0  0.16628018934E+02 -0.65963736481E+01  0.10761130420E+02  0.20875945180E+02  0.51100000000E-03 0.  1.
         12    1    3    3    0    0  0.85806065032E+01  0.13178781394E+01  0.40244623522E+01  0.95686941626E+01  0.00000000000E+00 0. -1.
</event>
<event>
 7    1  0.7357971E-011  0.4778727E+02  0.7816164E-02  0.1312668E+00
        -11   -1    0    0    0    0  0.00000000000E+00  0.00000000000E+00  0.45593999997E+02  0.45594000000E+02  0.51100000000E-03 0.  1.
         11   -1    0    0    0    0 -0.00000000000E+00 -0.00000000000E+00 -0.45593999997E+02  0.45594000000E+02  0.51100000000E-03 0. -1.
    9900012    2    1    2    0    0 -0.20002633405E+02  0.38345717195E+02 -0.36227621982E+01  0.47787265256E+02  0.19999973607E+02 0.  0.
         12    1    1    2    0    0  0.20002633405E+02 -0.38345717195E+02  0.36227621982E+01  0.43400734744E+02  0.00000000000E+00 0. -1.
         11    1    3    3    0    0 -0.85860493418E+01  0.82947031174E+01 -0.74769576868E+01  0.14086420398E+02  0.51100000000E-03 0. -1.
        -11    1    3    3    0    0 -0.12519285094E+02  0.29668844119E+02  0.42209635472E+01  0.32477520597E+02  0.51100000000E-03 0.  1.
         12    1    3    3    0    0  0.11027010302E+01  0.38216995959E+00 -0.36676805858E+00  0.12233242615E+01  0.00000000000E+00 0. -1.
</event>
<event>
 7    1  0.7357971E-011  0.4778728E+02  0.7816164E-02  0.1312668E+00
        -11   -1    0    0    0    0  0.00000000000E+00  0.00000000000E+00  0.45593999997E+02  0.45594000000E+02  0.51100000000E-03 0.  1.
         11   -1    0    0    0    0 -0.00000000000E+00 -0.00000000000E+00 -0.45593999997E+02  0.45594000000E+02  0.51100000000E-03 0. -1.
    9900012    2    1    2    0    0 -0.20971944056E+01  0.43064153816E+02  0.49701940628E+01  0.47787281144E+02  0.20000046046E+02 0.  0.
        -12    1    1    2    0    0  0.20971944056E+01 -0.43064153816E+02 -0.49701940628E+01  0.43400718856E+02  0.00000000000E+00 0.  1.
         11    1    3    3    0    0  0.23928933652E-02  0.27537373368E+02  0.66370746031E+01  0.28325919178E+02  0.51100000000E-03 0. -1.
        -11    1    3    3    0    0 -0.21913899054E+00 -0.11660607917E+01 -0.23676811852E+01  0.26483266647E+01  0.51100000000E-03 0.  1.
        -12    1    3    3    0    0 -0.18804483084E+01  0.16692841239E+02  0.70080064495E+00  0.16813035301E+02  0.00000000000E+00 0.  1.
</event>
<event>
 7    1  0.7357971E-011  0.4778727E+02  0.7816164E-02  0.1312668E+00
        -11   -1    0    0    0    0  0.00000000000E+00  0.00000000000E+00  0.45593999997E+02  0.45594000000E+02  0.51100000000E-03 0. -1.
         11   -1    0    0    0    0 -0.00000000000E+00 -0.00000000000E+00 -0.45593999997E+02  0.45594000000E+02  0.51100000000E-03 0.  1.
    9900012    2    1    2    0    0  0.23598094389E+02  0.22623778383E+02  0.28546761571E+02  0.47787274162E+02  0.20000014213E+02 0.  0.
        -12    1    1    2    0    0 -0.23598094389E+02 -0.22623778383E+02 -0.28546761571E+02  0.43400725838E+02  0.00000000000E+00 0.  1.
         11    1    3    3    0    0  0.89819298961E+01  0.12640907912E+02  0.40581121827E+01  0.16029219952E+02  0.51100000000E-03 0. -1.
        -11    1    3    3    0    0  0.10887643550E+02  0.17029680962E+01  0.15131709702E+02  0.18719228648E+02  0.51100000000E-03 0.  1.
         12    1    3    3    0    0  0.37285209432E+01  0.82799023741E+01  0.93569396860E+01  0.13038825562E+02  0.00000000000E+00 0. -1.
</event>
<event>
 7    1  0.7357971E-011  0.4778728E+02  0.7816164E-02  0.1312668E+00
        -11   -1    0    0    0    0  0.00000000000E+00  0.00000000000E+00  0.45593999997E+02  0.45594000000E+02  0.51100000000E-03 0. -1.
         11   -1    0    0    0    0 -0.00000000000E+00 -0.00000000000E+00 -0.45593999997E+02  0.45594000000E+02  0.51100000000E-03 0.  1.
    9900012    2    1    2    0    0  0.28313465549E+02 -0.54879470469E+01  0.32432283483E+02  0.47787275281E+02  0.20000019318E+02 0.  0.
        -12    1    1    2    0    0 -0.28313465549E+02  0.54879470469E+01 -0.32432283483E+02  0.43400724719E+02  0.00000000000E+00 0.  1.
         11    1    3    3    0    0  0.19175970907E+02 -0.99538642596E+01  0.12780599263E+02  0.25102609261E+02  0.51100000000E-03 0. -1.
        -11    1    3    3    0    0  0.64402462579E+01  0.50266487496E+01  0.16998789032E+02  0.18860084791E+02  0.51100000000E-03 0.  1.
         12    1    3    3    0    0  0.26972483839E+01 -0.56073153692E+00  0.26528951884E+01  0.38245812296E+01  0.00000000000E+00 0. -1.
</event>
<event>
 7    1  0.7357971E-011  0.4778726E+02  0.7816164E-02  0.1312668E+00
        -11   -1    0    0    0    0  0.00000000000E+00  0.00000000000E+00  0.45593999997E+02  0.45594000000E+02  0.51100000000E-03 0. -1.
         11   -1    0    0    0    0 -0.00000000000E+00 -0.00000000000E+00 -0.45593999997E+02  0.45594000000E+02  0.51100000000E-03 0.  1.
    9900012    2    1    2    0    0  0.64800595495E+01 -0.78135264162E+00 -0.42907143234E+02  0.47787255488E+02  0.19999929073E+02 0.  0.
         12    1    1    2    0    0 -0.64800595495E+01  0.78135264162E+00  0.42907143234E+02  0.43400744512E+02  0.00000000000E+00 0. -1.
         11    1    3    3    0    0  0.64745042648E+01  0.46779970609E+01 -0.52602868277E+01  0.95641768986E+01  0.51100000000E-03 0. -1.
        -11    1    3    3    0    0 -0.11011743345E+01 -0.22244974228E+01 -0.24977031898E+02  0.25100061681E+02  0.51100000000E-03 0.  1.
         12    1    3    3    0    0  0.11067296192E+01 -0.32348522797E+01 -0.12669824508E+02  0.13123016908E+02  0.00000000000E+00 0. -1.
</event>
<event>
 7    1  0.7357971E-011  0.4778727E+02  0.7816164E-02  0.1312668E+00
        -11   -1    0    0    0    0  0.00000000000E+00  0.00000000000E+00  0.45593999997E+02  0.45594000000E+02  0.51100000000E-03 0. -1.
         11   -1    0    0    0    0 -0.00000000000E+00 -0.00000000000E+00 -0.45593999997E+02  0.45594000000E+02  0.51100000000E-03 0.  1.
    9900012    2    1    2    0    0  0.41965474903E+01  0.46689952922E+01  0.42944296062E+02  0.47787273138E+02  0.20000009546E+02 0.  0.
        -12    1    1    2    0    0 -0.41965474903E+01 -0.46689952922E+01 -0.42944296062E+02  0.43400726862E+02  0.00000000000E+00 0.  1.
         11    1    3    3    0    0  0.91966177538E+01 -0.19354072995E+01  0.32755133199E+02  0.34076712439E+02  0.51100000000E-03 0. -1.
        -11    1    3    3    0    0 -0.25176966110E+01  0.99867503933E+00  0.15612980988E+01  0.31263077382E+01  0.51100000000E-03 0.  1.
        -12    1    3    3    0    0 -0.24823736524E+01  0.56057275524E+01  0.86278647641E+01  0.10584252960E+02  0.00000000000E+00 0.  1.
</event>
<event>
 7    1  0.7357971E-011  0.4778727E+02  0.7816164E-02  0.1312668E+00
        -11   -1    0    0    0    0  0.00000000000E+00  0.00000000000E+00  0.45593999997E+02  0.45594000000E+02  0.51100000000E-03 0.  1.
         11   -1    0    0    0    0 -0.00000000000E+00 -0.00000000000E+00 -0.45593999997E+02  0.45594000000E+02  0.51100000000E-03 0. -1.
    9900012    2    1    2    0    0  0.42047678224E+02 -0.62786395978E+01 -0.87289437576E+01  0.47787273989E+02  0.20000013423E+02 0.  0.
         12    1    1    2    0    0 -0.42047678224E+02  0.62786395978E+01  0.87289437576E+01  0.43400726011E+02  0.00000000000E+00 0. -1.
         11    1    3    3    0    0  0.37428907936E+01  0.38435858271E+01  0.10734634856E+01  0.54712619769E+01  0.51100000000E-03 0. -1.
        -11    1    3    3    0    0  0.32360954695E+02 -0.48786703027E+01 -0.10472944313E+02  0.34361539191E+02  0.51100000000E-03 0.  1.
        -12    1    3    3    0    0  0.59438327350E+01 -0.52435551222E+01  0.67053706984E+00  0.79544728212E+01  0.00000000000E+00 0.  1.
</event>
<event>
 7    1  0.7357971E-011  0.4778729E+02  0.7816164E-02  0.1312668E+00
        -11   -1    0    0    0    0  0.00000000000E+00  0.00000000000E+00  0.45593999997E+02  0.45594000000E+02  0.51100000000E-03 0. -1.
         11   -1    0    0    0    0 -0.00000000000E+00 -0.00000000000E+00 -0.45593999997E+02  0.45594000000E+02  0.51100000000E-03 0.  1.
    9900012    2    1    2    0    0 -0.10998081386E+02 -0.20131344177E+02 -0.36842812986E+02  0.47787289392E+02  0.20000083654E+02 0.  0.
         12    1    1    2    0    0  0.10998081386E+02  0.20131344177E+02  0.36842812986E+02  0.43400710608E+02  0.00000000000E+00 0. -1.
         11    1    3    3    0    0 -0.46156988259E+01 -0.18224995077E+02 -0.18133088510E+02  0.26120184157E+02  0.51100000000E-03 0. -1.
        -11    1    3    3    0    0 -0.10423370077E-01 -0.41232783097E-01 -0.12735571431E+02  0.12735642455E+02  0.51100000000E-03 0.  1.
         12    1    3    3    0    0 -0.63719591902E+01 -0.18651163164E+01 -0.59741530449E+01  0.89314627804E+01  0.00000000000E+00 0. -1.
</event>
<event>
 7    1  0.7357971E-011  0.4778727E+02  0.7816164E-02  0.1312668E+00
        -11   -1    0    0    0    0  0.00000000000E+00  0.00000000000E+00  0.45593999997E+02  0.45594000000E+02  0.51100000000E-03 0. -1.
         11   -1    0    0    0    0 -0.00000000000E+00 -0.00000000000E+00 -0.45593999997E+02  0.45594000000E+02  0.51100000000E-03 0.  1.
    9900012    2    1    2    0    0 -0.11527611953E+02  0.30949095692E+02  0.28158317791E+02  0.47787271638E+02  0.20000002707E+02 0.  0.
        -12    1    1    2    0    0  0.11527611953E+02 -0.30949095692E+02 -0.28158317791E+02  0.43400728362E+02  0.00000000000E+00 0.  1.
         11    1    3    3    0    0 -0.10469778375E+01  0.40078664832E+01  0.30049074093E+01  0.51174823047E+01  0.51100000000E-03 0. -1.
        -11    1    3    3    0    0 -0.71998364516E+01  0.22266429928E+02  0.27831076872E+02  0.36362073466E+02  0.51100000000E-03 0.  1.
        -12    1    3    3    0    0 -0.32807976642E+01  0.46747992809E+01 -0.26776664896E+01  0.63077158671E+01  0.00000000000E+00 0.  1.
</event>
<event>
 7    1  0.7357971E-011  0.4778727E+02  0.7816164E-02  0.1312668E+00
        -11   -1    0    0    0    0  0.00000000000E+00  0.00000000000E+00  0.45593999997E+02  0.45594000000E+02  0.51100000000E-03 0.  1.
         11   -1    0    0    0    0 -0.00000000000E+00 -0.00000000000E+00 -0.45593999997E+02  0.45594000000E+02  0.51100000000E-03 0. -1.
    9900012    2    1    2    0    0  0.55940701385E+01 -0.40487965863E+02 -0.14596373409E+02  0.47787272850E+02  0.20000008233E+02 0.  0.
         12    1    1    2    0    0 -0.55940701385E+01  0.40487965863E+02  0.14596373409E+02  0.43400727150E+02  0.00000000000E+00 0. -1.
         11    1    3    3    0    0  0.71733789206E+01 -0.24334729723E+02 -0.18838798948E+01  0.25439839613E+02  0.51100000000E-03 0.  1.
        -11    1    3    3    0    0 -0.48669977124E+01 -0.12199076251E+02 -0.80417519003E+01  0.15400483823E+02  0.51100000000E-03 0. -1.
         12    1    3    3    0    0  0.32876889303E+01 -0.39541598897E+01 -0.46707416138E+01  0.69469494139E+01  0.00000000000E+00 0. -1.
</event>
<event>
 7    1  0.7357971E-011  0.4778727E+02  0.7816164E-02  0.1312668E+00
        -11   -1    0    0    0    0  0.00000000000E+00  0.00000000000E+00  0.45593999997E+02  0.45594000000E+02  0.51100000000E-03 0. -1.
         11   -1    0    0    0    0 -0.00000000000E+00 -0.00000000000E+00 -0.45593999997E+02  0.45594000000E+02  0.51100000000E-03 0.  1.
    9900012    2    1    2    0    0  0.40696319144E+02  0.99988719715E+01  0.11289619364E+02  0.47787270306E+02  0.19999996635E+02 0.  0.
        -12    1    1    2    0    0 -0.40696319144E+02 -0.99988719715E+01 -0.11289619364E+02  0.43400729694E+02  0.00000000000E+00 0.  1.
         11    1    3    3    0    0  0.20923385781E+02  0.62534849600E+01  0.13754523167E+02  0.25808546153E+02  0.51100000000E-03 0. -1.
        -11    1    3    3    0    0  0.10375440392E+02  0.41780989117E+01 -0.49758339577E+01  0.12241944195E+02  0.51100000000E-03 0.  1.
        -12    1    3    3    0    0  0.93974929703E+01 -0.43271190030E+00  0.25109301544E+01  0.97367799583E+01  0.00000000000E+00 0.  1.
</event>
<event>
 7    1  0.7357971E-011  0.4778727E+02  0.7816164E-02  0.1312668E+00
        -11   -1    0    0    0    0  0.00000000000E+00  0.00000000000E+00  0.45593999997E+02  0.45594000000E+02  0.51100000000E-03 0. -1.
         11   -1    0    0    0    0 -0.00000000000E+00 -0.00000000000E+00 -0.45593999997E+02  0.45594000000E+02  0.51100000000E-03 0.  1.
    9900012    2    1    2    0    0 -0.18206323382E+02 -0.79825038899E+01  0.38580210815E+02  0.47787271365E+02  0.20000001463E+02 0.  0.
        -12    1    1    2    0    0  0.18206323382E+02  0.79825038899E+01 -0.38580210815E+02  0.43400728635E+02  0.00000000000E+00 0.  1.
         11    1    3    3    0    0 -0.13124362132E+02 -0.57396649748E+00  0.14810051957E+02  0.19796867382E+02  0.51100000000E-03 0. -1.
        -11    1    3    3    0    0 -0.28114436534E+01  0.27910888280E+01  0.40063460214E+01  0.56342879733E+01  0.51100000000E-03 0.  1.
         12    1    3    3    0    0 -0.22705175970E+01 -0.10199626220E+02  0.19763812837E+02  0.22356116010E+02  0.00000000000E+00 0. -1.
</event>
<event>
 7    1  0.7357971E-011  0.4778727E+02  0.7816164E-02  0.1312668E+00
        -11   -1    0    0    0    0  0.00000000000E+00  0.00000000000E+00  0.45593999997E+02  0.45594000000E+02  0.51100000000E-03 0. -1.
         11   -1    0    0    0    0 -0.00000000000E+00 -0.00000000000E+00 -0.45593999997E+02  0.45594000000E+02  0.51100000000E-03 0.  1.
    9900012    2    1    2    0    0  0.22093520484E+02 -0.11878370876E+02 -0.35417565335E+02  0.47787271016E+02  0.19999999870E+02 0.  0.
         12    1    1    2    0    0 -0.22093520484E+02  0.11878370876E+02  0.35417565335E+02  0.43400728984E+02  0.00000000000E+00 0. -1.
         11    1    3    3    0    0  0.16268199203E+02 -0.29427526666E+01 -0.27313364906E+02  0.31927010529E+02  0.51100000000E-03 0. -1.
        -11    1    3    3    0    0 -0.14198489621E+01 -0.50585294110E+01 -0.43718173059E+01  0.68350184854E+01  0.51100000000E-03 0.  1.
        -12    1    3    3    0    0  0.72451702437E+01 -0.38770887980E+01 -0.37323831234E+01  0.90252420016E+01  0.00000000000E+00 0.  1.
</event>
<event>
 7    1  0.7357971E-011  0.4778726E+02  0.7816164E-02  0.1312668E+00
        -11   -1    0    0    0    0  0.00000000000E+00  0.00000000000E+00  0.45593999997E+02  0.45594000000E+02  0.51100000000E-03 0. -1.
         11   -1    0    0    0    0 -0.00000000000E+00 -0.00000000000E+00 -0.45593999997E+02  0.45594000000E+02  0.51100000000E-03 0.  1.
    9900012    2    1    2    0    0  0.20044384020E+01 -0.14257565668E+02 -0.40942985845E+02  0.47787262196E+02  0.19999959655E+02 0.  0.
         12    1    1    2    0    0 -0.20044384020E+01  0.14257565668E+02  0.40942985845E+02  0.43400737804E+02  0.00000000000E+00 0. -1.
         11    1    3    3    0    0 -0.65774892463E+00  0.27050074889E+01 -0.57068272732E+01  0.63496123464E+01  0.51100000000E-03 0. -1.
        -11    1    3    3    0    0  0.33107810923E+01  0.10978650726E+01 -0.82730214085E+01  0.89782772649E+01  0.51100000000E-03 0.  1.
        -12    1    3    3    0    0 -0.64859376562E+00 -0.18060438229E+02 -0.26963137163E+02  0.32459372584E+02  0.00000000000E+00 0.  1.
</event>
<event>
 7    1  0.7357971E-011  0.4778727E+02  0.7816164E-02  0.1312668E+00
        -11   -1    0    0    0    0  0.00000000000E+00  0.00000000000E+00  0.45593999997E+02  0.45594000000E+02  0.51100000000E-03 0. -1.
         11   -1    0    0    0    0 -0.00000000000E+00 -0.00000000000E+00 -0.45593999997E+02  0.45594000000E+02  0.51100000000E-03 0.  1.
    9900012    2    1    2    0    0 -0.27294584480E+02  0.49975888039E+01 -0.33371444845E+02  0.47787267669E+02  0.19999984611E+02 0.  0.
         12    1    1    2    0    0  0.27294584480E+02 -0.49975888039E+01  0.33371444845E+02  0.43400732331E+02  0.00000000000E+00 0. -1.
         11    1    3    3    0    0 -0.44812285749E+00  0.68544304255E+01 -0.65564705007E+01  0.94958588996E+01  0.51100000000E-03 0. -1.
        -11    1    3    3    0    0 -0.16598036298E+02 -0.33354717561E+01 -0.15499195189E+02  0.22953109431E+02  0.51100000000E-03 0.  1.
        -12    1    3    3    0    0 -0.10248425325E+02  0.14786301344E+01 -0.11315779155E+02  0.15338299339E+02  0.00000000000E+00 0.  1.
</event>
<event>
 7    1  0.7357971E-011  0.4778727E+02  0.7816164E-02  0.1312668E+00
        -11   -1    0    0    0    0  0.00000000000E+00  0.00000000000E+00  0.45593999997E+02  0.45594000000E+02  0.51100000000E-03 0. -1.
         11   -1    0    0    0    0 -0.00000000000E+00 -0.00000000000E+00 -0.45593999997E+02  0.45594000000E+02  0.51100000000E-03 0.  1.
    9900012    2    1    2    0    0 -0.19683711982E+02  0.66004354145E+01  0.38113107357E+02  0.47787271694E+02  0.20000002963E+02 0.  0.
        -12    1    1    2    0    0  0.19683711982E+02 -0.66004354145E+01 -0.38113107357E+02  0.43400728306E+02  0.00000000000E+00 0.  1.
         11    1    3    3    0    0 -0.19628569084E+02  0.44337138207E+01  0.37264525937E+02  0.42350719428E+02  0.51100000000E-03 0. -1.
        -11    1    3    3    0    0  0.16266485115E+01  0.18013375472E+01  0.21786292771E+01  0.32614763723E+01  0.51100000000E-03 0.  1.
         12    1    3    3    0    0 -0.16817914090E+01  0.36538404661E+00 -0.13300478563E+01  0.21750758941E+01  0.00000000000E+00 0. -1.
</event>
<event>
 7    1  0.7357971E-011  0.4778727E+02  0.7816164E-02  0.1312668E+00
        -11   -1    0    0    0    0  0.00000000000E+00  0.00000000000E+00  0.45593999997E+02  0.45594000000E+02  0.51100000000E-03 0. -1.
         11   -1    0    0    0    0 -0.00000000000E+00 -0.00000000000E+00 -0.45593999997E+02  0.45594000000E+02  0.51100000000E-03 0.  1.
    9900012    2    1    2    0    0 -0.13952989850E+02 -0.27969690597E+01 -0.41001395343E+02  0.47787269802E+02  0.19999994335E+02 0.  0.
         12    1    1    2    0    0  0.13952989850E+02  0.27969690597E+01  0.41001395343E+02  0.43400730198E+02  0.00000000000E+00 0. -1.
         11    1    3    3    0    0 -0.95234712440E+01 -0.48677102314E+01 -0.38250595316E+02  0.39717743512E+02  0.51100000000E-03 0. -1.
        -11    1    3    3    0    0 -0.54706220337E+01  0.26894567724E+01 -0.30581537302E+01  0.68200577464E+01  0.51100000000E-03 0.  1.
         12    1    3    3    0    0  0.10411034277E+01 -0.61871560062E+00  0.30735370339E+00  0.12494685433E+01  0.00000000000E+00 0. -1.
</event>
<event>
 7    1  0.1305456E-010  0.4778727E+02  0.7816164E-02  0.1312668E+00
        -11   -1    0    0    0    0  0.00000000000E+00  0.00000000000E+00  0.45593999997E+02  0.45594000000E+02  0.51100000000E-03 0. -1.
         11   -1    0    0    0    0 -0.00000000000E+00 -0.00000000000E+00 -0.45593999997E+02  0.45594000000E+02  0.51100000000E-03 0.  1.
    9900012    2    1    2    0    0 -0.10722211230E+02 -0.54907819622E+01  0.41695431724E+02  0.47787268130E+02  0.19999986712E+02 0.  0.
        -12    1    1    2    0    0  0.10722211230E+02  0.54907819622E+01 -0.41695431724E+02  0.43400731870E+02  0.00000000000E+00 0.  1.
         11    1    3    3    0    0 -0.18640078643E+01 -0.57857251183E+01  0.25298560958E+02  0.26018576580E+02  0.51100000000E-03 0. -1.
        -11    1    3    3    0    0  0.89746429327E+00  0.20797582363E+01 -0.36325917760E+00  0.22940780219E+01  0.51100000000E-03 0.  1.
         12    1    3    3    0    0 -0.97556676587E+01 -0.17848150803E+01  0.16760129943E+02  0.19474613528E+02  0.00000000000E+00 0. -1.
</event>
<event>
 7    1  0.7357971E-011  0.4778727E+02  0.7816164E-02  0.1312668E+00
        -11   -1    0    0    0    0  0.00000000000E+00  0.00000000000E+00  0.45593999997E+02  0.45594000000E+02  0.51100000000E-03 0. -1.
         11   -1    0    0    0    0 -0.00000000000E+00 -0.00000000000E+00 -0.45593999997E+02  0.45594000000E+02  0.51100000000E-03 0.  1.
    9900012    2    1    2    0    0  0.30063451563E+02 -0.35591779086E+01  0.31098944711E+02  0.47787271557E+02  0.20000002336E+02 0.  0.
        -12    1    1    2    0    0 -0.30063451563E+02  0.35591779086E+01 -0.31098944711E+02  0.43400728443E+02  0.00000000000E+00 0.  1.
         11    1    3    3    0    0  0.15567049422E+02 -0.67160806128E+01  0.83905339364E+01  0.18916654738E+02  0.51100000000E-03 0.  1.
        -11    1    3    3    0    0  0.15177188440E+02  0.25384245253E+01  0.23191041563E+02  0.27831907176E+02  0.51100000000E-03 0. -1.
        -12    1    3    3    0    0 -0.68078629941E+00  0.61847817883E+00 -0.48263078789E+00  0.10387096421E+01  0.00000000000E+00 0.  1.
</event>
<event>
 7    1  0.7357971E-011  0.4778725E+02  0.7816164E-02  0.1312668E+00
        -11   -1    0    0    0    0  0.00000000000E+00  0.00000000000E+00  0.45593999997E+02  0.45594000000E+02  0.51100000000E-03 0. -1.
         11   -1    0    0    0    0 -0.00000000000E+00 -0.00000000000E+00 -0.45593999997E+02  0.45594000000E+02  0.51100000000E-03 0.  1.
    9900012    2    1    2    0    0  0.27721476187E+01 -0.24504165481E+02  0.35713953444E+02  0.47787246562E+02  0.19999888376E+02 0.  0.
        -12    1    1    2    0    0 -0.27721476187E+01  0.24504165481E+02 -0.35713953444E+02  0.43400753438E+02  0.00000000000E+00 0.  1.
         11    1    3    3    0    0  0.67319206465E+00 -0.12195216585E+02  0.27570491068E+02  0.30154742133E+02  0.51100000000E-03 0. -1.
        -11    1    3    3    0    0 -0.21760244337E+00 -0.11270893119E+02  0.26491127066E+01  0.11580076896E+02  0.51100000000E-03 0.  1.
        -12    1    3    3    0    0  0.23165579974E+01 -0.10380557765E+01  0.54943496694E+01  0.60524275329E+01  0.00000000000E+00 0.  1.
</event>
<event>
 7    1  0.7357971E-011  0.4778727E+02  0.7816164E-02  0.1312668E+00
        -11   -1    0    0    0    0  0.00000000000E+00  0.00000000000E+00  0.45593999997E+02  0.45594000000E+02  0.51100000000E-03 0. -1.
         11   -1    0    0    0    0 -0.00000000000E+00 -0.00000000000E+00 -0.45593999997E+02  0.45594000000E+02  0.51100000000E-03 0.  1.
    9900012    2    1    2    0    0  0.15894111332E+02 -0.24326179078E+01 -0.40312319511E+02  0.47787268332E+02  0.19999987635E+02 0.  0.
         12    1    1    2    0    0 -0.15894111332E+02  0.24326179078E+01  0.40312319511E+02  0.43400731668E+02  0.00000000000E+00 0. -1.
         11    1    3    3    0    0 -0.30136099469E+01 -0.82470430026E-01 -0.12619081237E+01  0.32681888956E+01  0.51100000000E-03 0. -1.
        -11    1    3    3    0    0  0.13006501097E+02 -0.61188694424E+01 -0.25973039829E+02  0.29685155082E+02  0.51100000000E-03 0.  1.
         12    1    3    3    0    0  0.59012201821E+01  0.37687219647E+01 -0.13077371558E+02  0.14833924355E+02  0.00000000000E+00 0. -1.
</event>
<event>
 7    1  0.7357971E-011  0.4778727E+02  0.7816164E-02  0.1312668E+00
        -11   -1    0    0    0    0  0.00000000000E+00  0.00000000000E+00  0.45593999997E+02  0.45594000000E+02  0.51100000000E-03 0. -1.
         11   -1    0    0    0    0 -0.00000000000E+00 -0.00000000000E+00 -0.45593999997E+02  0.45594000000E+02  0.51100000000E-03 0.  1.
    9900012    2    1    2    0    0  0.13297494458E+02  0.15845873025E+02  0.38153743288E+02  0.47787272153E+02  0.20000005053E+02 0.  0.
        -12    1    1    2    0    0 -0.13297494458E+02 -0.15845873025E+02 -0.38153743288E+02  0.43400727847E+02  0.00000000000E+00 0.  1.
         11    1    3    3    0    0  0.11930672205E+01  0.19933745967E+01  0.15751051546E+02  0.15921450209E+02  0.51100000000E-03 0. -1.
        -11    1    3    3    0    0  0.82901651427E+01  0.20356869637E+01  0.34489985515E+01  0.92068697600E+01  0.51100000000E-03 0.  1.
        -12    1    3    3    0    0  0.38142620946E+01  0.11816811465E+02  0.18953693190E+02  0.22658952184E+02  0.00000000000E+00 0.  1.
</event>
<event>
 7    1  0.7357971E-011  0.4778728E+02  0.7816164E-02  0.1312668E+00
        -11   -1    0    0    0    0  0.00000000000E+00  0.00000000000E+00  0.45593999997E+02  0.45594000000E+02  0.51100000000E-03 0.  1.
         11   -1    0    0    0    0 -0.00000000000E+00 -0.00000000000E+00 -0.45593999997E+02  0.45594000000E+02  0.51100000000E-03 0. -1.
    9900012    2    1    2    0    0  0.42456566734E+02  0.81805796853E+01 -0.37603836580E+01  0.47787280788E+02  0.20000044425E+02 0.  0.
         12    1    1    2    0    0 -0.42456566734E+02 -0.81805796853E+01  0.37603836580E+01  0.43400719212E+02  0.00000000000E+00 0. -1.
         11    1    3    3    0    0  0.66596724166E+01 -0.52104660160E+01  0.22748310950E+01  0.87564290422E+01  0.51100000000E-03 0. -1.
        -11    1    3    3    0    0  0.32323080527E+02  0.12559844497E+02 -0.68963869911E+01  0.35356631377E+02  0.51100000000E-03 0.  1.
         12    1    3    3    0    0  0.34738137909E+01  0.83120120481E+00  0.86117223811E+00  0.36742203691E+01  0.00000000000E+00 0. -1.
</event>
<event>
 7    1  0.7357971E-011  0.4778728E+02  0.7816164E-02  0.1312668E+00
        -11   -1    0    0    0    0  0.00000000000E+00  0.00000000000E+00  0.45593999997E+02  0.45594000000E+02  0.51100000000E-03 0. -1.
         11   -1    0    0    0    0 -0.00000000000E+00 -0.00000000000E+00 -0.45593999997E+02  0.45594000000E+02  0.51100000000E-03 0.  1.
    9900012    2    1    2    0    0 -0.31457742717E+01 -0.29300953092E+02 -0.31861905508E+02  0.47787276844E+02  0.20000026441E+02 0.  0.
         12    1    1    2    0    0  0.31457742717E+01  0.29300953092E+02  0.31861905508E+02  0.43400723156E+02  0.00000000000E+00 0. -1.
         11    1    3    3    0    0 -0.76138637446E+01 -0.54383833088E+01 -0.14418288560E+02  0.17188193023E+02  0.51100000000E-03 0. -1.
        -11    1    3    3    0    0  0.21377876657E+01 -0.11750762517E+02 -0.12563706269E+02  0.17334857118E+02  0.51100000000E-03 0.  1.
         12    1    3    3    0    0  0.23303018073E+01 -0.12111807267E+02 -0.48799106792E+01  0.13264226702E+02  0.00000000000E+00 0. -1.
</event>
<event>
 7    1  0.7357971E-011  0.4778727E+02  0.7816164E-02  0.1312668E+00
        -11   -1    0    0    0    0  0.00000000000E+00  0.00000000000E+00  0.45593999997E+02  0.45594000000E+02  0.51100000000E-03 0. -1.
         11   -1    0    0    0    0 -0.00000000000E+00 -0.00000000000E+00 -0.45593999997E+02  0.45594000000E+02  0.51100000000E-03 0.  1.
    9900012    2    1    2    0    0 -0.19019208652E+02  0.19884074599E+02 -0.33563618932E+02  0.47787271478E+02  0.20000001977E+02 0.  0.
         12    1    1    2    0    0  0.19019208652E+02 -0.19884074599E+02  0.33563618932E+02  0.43400728522E+02  0.00000000000E+00 0. -1.
         11    1    3    3    0    0 -0.11525563208E+02  0.54322920311E+01 -0.48702309000E+01  0.13640658095E+02  0.51100000000E-03 0. -1.
        -11    1    3    3    0    0  0.18280088082E+01  0.45622836710E+01 -0.72263006770E+01  0.87393060498E+01  0.51100000000E-03 0.  1.
         12    1    3    3    0    0 -0.93216542522E+01  0.98894988967E+01 -0.21467087355E+02  0.25407307334E+02  0.00000000000E+00 0. -1.
</event>
<event>
 7    1  0.7357971E-011  0.4778727E+02  0.7816164E-02  0.1312668E+00
        -11   -1    0    0    0    0  0.00000000000E+00  0.00000000000E+00  0.45593999997E+02  0.45594000000E+02  0.51100000000E-03 0. -1.
         11   -1    0    0    0    0 -0.00000000000E+00 -0.00000000000E+00 -0.45593999997E+02  0.45594000000E+02  0.51100000000E-03 0.  1.
    9900012    2    1    2    0    0  0.20821997404E+02 -0.19154056355E+02 -0.32911849226E+02  0.47787271087E+02  0.20000000192E+02 0.  0.
         12    1    1    2    0    0 -0.20821997404E+02  0.19154056355E+02  0.32911849226E+02  0.43400728913E+02  0.00000000000E+00 0. -1.
         11    1    3    3    0    0  0.94182184708E+01 -0.13393484981E+00 -0.37085758543E+01  0.10122959688E+02  0.51100000000E-03 0. -1.
        -11    1    3    3    0    0  0.62073562456E+01 -0.31808872244E+01 -0.68148288965E+01  0.97514721065E+01  0.51100000000E-03 0.  1.
         12    1    3    3    0    0  0.51964226878E+01 -0.15839234280E+02 -0.22388444475E+02  0.27912839292E+02  0.00000000000E+00 0. -1.
</event>
<event>
 7    1  0.7357971E-011  0.4778727E+02  0.7816164E-02  0.1312668E+00
        -11   -1    0    0    0    0  0.00000000000E+00  0.00000000000E+00  0.45593999997E+02  0.45594000000E+02  0.51100000000E-03 0. -1.
         11   -1    0    0    0    0 -0.00000000000E+00 -0.00000000000E+00 -0.45593999997E+02  0.45594000000E+02  0.51100000000E-03 0.  1.
    9900012    2    1    2    0    0  0.59078918028E+01 -0.25555268625E+00 -0.42995985355E+02  0.47787271326E+02  0.20000001285E+02 0.  0.
         12    1    1    2    0    0 -0.59078918028E+01  0.25555268625E+00  0.42995985355E+02  0.43400728674E+02  0.00000000000E+00 0. -1.
         11    1    3    3    0    0  0.79452253189E+01 -0.24923880790E+01 -0.71749334167E+01  0.10991736601E+02  0.51100000000E-03 0. -1.
        -11    1    3    3    0    0 -0.23981720586E+01 -0.49677965950E+00 -0.31945250595E+02  0.32038992729E+02  0.51100000000E-03 0.  1.
         12    1    3    3    0    0  0.36083854249E+00  0.27336150523E+01 -0.38758013435E+01  0.47565419962E+01  0.00000000000E+00 0. -1.
</event>
<event>
 7    1  0.7357971E-011  0.4778727E+02  0.7816164E-02  0.1312668E+00
        -11   -1    0    0    0    0  0.00000000000E+00  0.00000000000E+00  0.45593999997E+02  0.45594000000E+02  0.51100000000E-03 0.  1.
         11   -1    0    0    0    0 -0.00000000000E+00 -0.00000000000E+00 -0.45593999997E+02  0.45594000000E+02  0.51100000000E-03 0. -1.
    9900012    2    1    2    0    0 -0.29663070776E+02  0.20086645835E+02  0.24500046303E+02  0.47787269849E+02  0.19999994551E+02 0.  0.
        -12    1    1    2    0    0  0.29663070776E+02 -0.20086645835E+02 -0.24500046303E+02  0.43400730151E+02  0.00000000000E+00 0.  1.
         11    1    3    3    0    0 -0.29534236520E+01  0.42129221546E+00  0.60007249359E+00  0.30430717470E+01  0.51100000000E-03 0. -1.
        -11    1    3    3    0    0 -0.84443243168E+01  0.12945297740E+02  0.22276727882E+01  0.15615693166E+02  0.51100000000E-03 0.  1.
        -12    1    3    3    0    0 -0.18265322807E+02  0.67200558794E+01  0.21672301021E+02  0.29128504937E+02  0.00000000000E+00 0.  1.
</event>
<event>
 7    1  0.7357971E-011  0.4778727E+02  0.7816164E-02  0.1312668E+00
        -11   -1    0    0    0    0  0.00000000000E+00  0.00000000000E+00  0.45593999997E+02  0.45594000000E+02  0.51100000000E-03 0. -1.
         11   -1    0    0    0    0 -0.00000000000E+00 -0.00000000000E+00 -0.45593999997E+02  0.45594000000E+02  0.51100000000E-03 0.  1.
    9900012    2    1    2    0    0  0.16421808412E+02  0.27953964141E+01  0.40076594344E+02  0.47787269051E+02  0.19999990912E+02 0.  0.
        -12    1    1    2    0    0 -0.16421808412E+02 -0.27953964141E+01 -0.40076594344E+02  0.43400730949E+02  0.00000000000E+00 0.  1.
         11    1    3    3    0    0  0.10562115027E+02  0.34990556233E+01  0.16229956084E+02  0.19677732055E+02  0.51100000000E-03 0. -1.
        -11    1    3    3    0    0  0.25778586972E+01 -0.38960910420E+01  0.22979677059E+02  0.23449742832E+02  0.51100000000E-03 0.  1.
        -12    1    3    3    0    0  0.32818346880E+01  0.31924318328E+01  0.86696120126E+00  0.46597941640E+01  0.00000000000E+00 0.  1.
</event>
<event>
 7    1  0.7357971E-011  0.4778728E+02  0.7816164E-02  0.1312668E+00
        -11   -1    0    0    0    0  0.00000000000E+00  0.00000000000E+00  0.45593999997E+02  0.45594000000E+02  0.51100000000E-03 0. -1.
         11   -1    0    0    0    0 -0.00000000000E+00 -0.00000000000E+00 -0.45593999997E+02  0.45594000000E+02  0.51100000000E-03 0.  1.
    9900012    2    1    2    0    0  0.34029058912E+02  0.58819336574E+01  0.26287806613E+02  0.47787276843E+02  0.20000026439E+02 0.  0.
        -12    1    1    2    0    0 -0.34029058912E+02 -0.58819336574E+01 -0.26287806613E+02  0.43400723157E+02  0.00000000000E+00 0.  1.
         11    1    3    3    0    0  0.23838486472E+01  0.12454170580E+01  0.12041060176E+00  0.26922661450E+01  0.51100000000E-03 0. -1.
        -11    1    3    3    0    0  0.15329463379E+02 -0.48435504299E+01  0.52225148526E+01  0.16903463843E+02  0.51100000000E-03 0.  1.
        -12    1    3    3    0    0  0.16315746886E+02  0.94800670293E+01  0.20944881159E+02  0.28191546855E+02  0.00000000000E+00 0.  1.
</event>
<event>
 7    1  0.7357971E-011  0.4778727E+02  0.7816164E-02  0.1312668E+00
        -11   -1    0    0    0    0  0.00000000000E+00  0.00000000000E+00  0.45593999997E+02  0.45594000000E+02  0.51100000000E-03 0. -1.
         11   -1    0    0    0    0 -0.00000000000E+00 -0.00000000000E+00 -0.45593999997E+02  0.45594000000E+02  0.51100000000E-03 0.  1.
    9900012    2    1    2    0    0  0.15261561994E+02 -0.24762824501E+02 -0.32210412203E+02  0.47787269522E+02  0.19999993059E+02 0.  0.
         12    1    1    2    0    0 -0.15261561994E+02  0.24762824501E+02  0.32210412203E+02  0.43400730478E+02  0.00000000000E+00 0. -1.
         11    1    3    3    0    0  0.92859574143E+00 -0.21312354066E+01 -0.14159098022E+02  0.14348676297E+02  0.51100000000E-03 0. -1.
        -11    1    3    3    0    0  0.91462376142E+01 -0.12290633602E+02 -0.52755519779E+01  0.16203233806E+02  0.51100000000E-03 0.  1.
         12    1    3    3    0    0  0.51867286386E+01 -0.10340955492E+02 -0.12775762203E+02  0.17235359420E+02  0.00000000000E+00 0. -1.
</event>
<event>
 7    1  0.7357971E-011  0.4778728E+02  0.7816164E-02  0.1312668E+00
        -11   -1    0    0    0    0  0.00000000000E+00  0.00000000000E+00  0.45593999997E+02  0.45594000000E+02  0.51100000000E-03 0. -1.
         11   -1    0    0    0    0 -0.00000000000E+00 -0.00000000000E+00 -0.45593999997E+02  0.45594000000E+02  0.51100000000E-03 0.  1.
    9900012    2    1    2    0    0  0.37581628482E+02 -0.14418703911E+02 -0.16227906782E+02  0.47787276730E+02  0.20000025922E+02 0.  0.
         12    1    1    2    0    0 -0.37581628482E+02  0.14418703911E+02  0.16227906782E+02  0.43400723270E+02  0.00000000000E+00 0. -1.
         11    1    3    3    0    0 -0.22798301564E+00 -0.20011290116E+01 -0.42019516171E+01  0.46597093504E+01  0.51100000000E-03 0. -1.
        -11    1    3    3    0    0  0.31467971422E+02 -0.14199295675E+02 -0.81054394747E+01  0.35461970792E+02  0.51100000000E-03 0.  1.
         12    1    3    3    0    0  0.63416400760E+01  0.17817207756E+01 -0.39205156898E+01  0.76655965879E+01  0.00000000000E+00 0. -1.
</event>
<event>
 7    1  0.7357971E-011  0.4778729E+02  0.7816164E-02  0.1312668E+00
        -11   -1    0    0    0    0  0.00000000000E+00  0.00000000000E+00  0.45593999997E+02  0.45594000000E+02  0.51100000000E-03 0. -1.
         11   -1    0    0    0    0 -0.00000000000E+00 -0.00000000000E+00 -0.45593999997E+02  0.45594000000E+02  0.51100000000E-03 0.  1.
    9900012    2    1    2    0    0 -0.14794932630E+02 -0.10184067861E+02 -0.39509701771E+02  0.47787287981E+02  0.20000077220E+02 0.  0.
         12    1    1    2    0    0  0.14794932630E+02  0.10184067861E+02  0.39509701771E+02  0.43400712019E+02  0.00000000000E+00 0. -1.
         11    1    3    3    0    0 -0.76743420431E+01 -0.14848979299E+02 -0.20090276513E+02  0.26134401135E+02  0.51100000000E-03 0. -1.
        -11    1    3    3    0    0 -0.76722344387E+00  0.24467483718E+01 -0.79691669508E+01  0.83715489342E+01  0.51100000000E-03 0.  1.
         12    1    3    3    0    0 -0.63533671426E+01  0.22181630660E+01 -0.11450258307E+02  0.13281337912E+02  0.00000000000E+00 0. -1.
</event>
<event>
 7    1  0.7357971E-011  0.4778728E+02  0.7816164E-02  0.1312668E+00
        -11   -1    0    0    0    0  0.00000000000E+00  0.00000000000E+00  0.45593999997E+02  0.45594000000E+02  0.51100000000E-03 0. -1.
         11   -1    0    0    0    0 -0.00000000000E+00 -0.00000000000E+00 -0.45593999997E+02  0.45594000000E+02  0.51100000000E-03 0.  1.
    9900012    2    1    2    0    0 -0.11543934462E+02  0.35568580506E+02  0.22028079541E+02  0.47787278458E+02  0.20000033804E+02 0.  0.
        -12    1    1    2    0    0  0.11543934462E+02 -0.35568580506E+02 -0.22028079541E+02  0.43400721542E+02  0.00000000000E+00 0.  1.
         11    1    3    3    0    0 -0.20655338097E+01  0.19849785637E+02  0.10565420021E+02  0.22581154095E+02  0.51100000000E-03 0. -1.
        -11    1    3    3    0    0 -0.37982084510E+01 -0.11073092897E+01  0.48428114057E+01  0.62534265705E+01  0.51100000000E-03 0.  1.
        -12    1    3    3    0    0 -0.56801922013E+01  0.16826104158E+02  0.66198481141E+01  0.18952697793E+02  0.00000000000E+00 0.  1.
</event>
<event>
 7    1  0.7357971E-011  0.4778727E+02  0.7816164E-02  0.1312668E+00
        -11   -1    0    0    0    0  0.00000000000E+00  0.00000000000E+00  0.45593999997E+02  0.45594000000E+02  0.51100000000E-03 0. -1.
         11   -1    0    0    0    0 -0.00000000000E+00 -0.00000000000E+00 -0.45593999997E+02  0.45594000000E+02  0.51100000000E-03 0.  1.
    9900012    2    1    2    0    0 -0.14540232475E+01 -0.29904824179E+02 -0.31419908536E+02  0.47787270223E+02  0.19999996256E+02 0.  0.
         12    1    1    2    0    0  0.14540232475E+01  0.29904824179E+02  0.31419908536E+02  0.43400729777E+02  0.00000000000E+00 0. -1.
         11    1    3    3    0    0 -0.49307273941E+01 -0.16024106152E+01 -0.12286342969E+01  0.53281643097E+01  0.51100000000E-03 0. -1.
        -11    1    3    3    0    0  0.28873085600E+01 -0.18408000082E+02 -0.25258334045E+02  0.31387488857E+02  0.51100000000E-03 0.  1.
        -12    1    3    3    0    0  0.58939558659E+00 -0.98944134811E+01 -0.49329401937E+01  0.11071617057E+02  0.00000000000E+00 0.  1.
</event>
<event>
 7    1  0.7357971E-011  0.4778728E+02  0.7816164E-02  0.1312668E+00
        -11   -1    0    0    0    0  0.00000000000E+00  0.00000000000E+00  0.45593999997E+02  0.45594000000E+02  0.51100000000E-03 0. -1.
         11   -1    0    0    0    0 -0.00000000000E+00 -0.00000000000E+00 -0.45593999997E+02  0.45594000000E+02  0.51100000000E-03 0.  1.
    9900012    2    1    2    0    0 -0.12700063241E+01  0.22226281981E+02 -0.37255902665E+02  0.47787276387E+02  0.20000024359E+02 0.  0.
         12    1    1    2    0    0  0.12700063241E+01 -0.22226281981E+02  0.37255902665E+02  0.43400723613E+02  0.00000000000E+00 0. -1.
         11    1    3    3    0    0  0.60495344231E+01  0.64417860968E+01 -0.50857311392E+01  0.10195986285E+02  0.51100000000E-03 0. -1.
        -11    1    3    3    0    0 -0.93394345381E+01  0.12983038126E+02 -0.26441373923E+02  0.30901950937E+02  0.51100000000E-03 0.  1.
        -12    1    3    3    0    0  0.20198937909E+01  0.28014577576E+01 -0.57287976025E+01  0.66893391650E+01  0.00000000000E+00 0.  1.
</event>
<event>
 7    1  0.7357971E-011  0.4778727E+02  0.7816164E-02  0.1312668E+00
        -11   -1    0    0    0    0  0.00000000000E+00  0.00000000000E+00  0.45593999997E+02  0.45594000000E+02  0.51100000000E-03 0.  1.
         11   -1    0    0    0    0 -0.00000000000E+00 -0.00000000000E+00 -0.45593999997E+02  0.45594000000E+02  0.51100000000E-03 0. -1.
    9900012    2    1    2    0    0 -0.86505791168E+01  0.41782324257E+02  0.79390395641E+01  0.47787268571E+02  0.19999988722E+02 0.  0.
        -12    1    1    2    0    0  0.86505791168E+01 -0.41782324257E+02 -0.79390395641E+01  0.43400731429E+02  0.00000000000E+00 0.  1.
         11    1    3    3    0    0 -0.46502603664E+01  0.84749941196E+01 -0.55752525446E+01  0.11159475256E+02  0.51100000000E-03 0. -1.
        -11    1    3    3    0    0 -0.17812616670E+01  0.27761612959E+02  0.12765589442E+02  0.30607847381E+02  0.51100000000E-03 0.  1.
         12    1    3    3    0    0 -0.22190570834E+01  0.55457171781E+01  0.74870266692E+00  0.60199459335E+01  0.00000000000E+00 0. -1.
</event>
<event>
 7    1  0.7879836E-011  0.4778727E+02  0.7816164E-02  0.1312668E+00
        -11   -1    0    0    0    0  0.00000000000E+00  0.00000000000E+00  0.45593999997E+02  0.45594000000E+02  0.51100000000E-03 0. -1.
         11   -1    0    0    0    0 -0.00000000000E+00 -0.00000000000E+00 -0.45593999997E+02  0.45594000000E+02  0.51100000000E-03 0.  1.
    9900012    2    1    2    0    0  0.25549771150E+01 -0.11494449699E+02 -0.41772879298E+02  0.47787265827E+02  0.19999976210E+02 0.  0.
         12    1    1    2    0    0 -0.25549771150E+01  0.11494449699E+02  0.41772879298E+02  0.43400734173E+02  0.00000000000E+00 0. -1.
         11    1    3    3    0    0  0.97378873651E+00  0.40619473390E+01 -0.13214285298E+02  0.13858752357E+02  0.51100000000E-03 0. -1.
        -11    1    3    3    0    0  0.56134456595E+01 -0.96701292665E+01 -0.17202527107E+02  0.20517044410E+02  0.51100000000E-03 0.  1.
        -12    1    3    3    0    0 -0.40322572810E+01 -0.58862677713E+01 -0.11356066893E+02  0.13411469060E+02  0.00000000000E+00 0.  1.
</event>
<event>
 7    1  0.7357971E-011  0.4778726E+02  0.7816164E-02  0.1312668E+00
        -11   -1    0    0    0    0  0.00000000000E+00  0.00000000000E+00  0.45593999997E+02  0.45594000000E+02  0.51100000000E-03 0. -1.
         11   -1    0    0    0    0 -0.00000000000E+00 -0.00000000000E+00 -0.45593999997E+02  0.45594000000E+02  0.51100000000E-03 0.  1.
    9900012    2    1    2    0    0  0.33865953210E+02  0.14055854737E+02  0.23219702952E+02  0.47787257560E+02  0.19999938519E+02 0.  0.
        -12    1    1    2    0    0 -0.33865953210E+02 -0.14055854737E+02 -0.23219702952E+02  0.43400742440E+02  0.00000000000E+00 0.  1.
         11    1    3    3    0    0  0.19788014195E+02  0.97806849759E+01  0.10879815721E+02  0.24608894627E+02  0.51100000000E-03 0. -1.
        -11    1    3    3    0    0  0.13199897539E+01 -0.12366072408E+01  0.85974150626E+01  0.87856198665E+01  0.51100000000E-03 0.  1.
        -12    1    3    3    0    0  0.12757949261E+02  0.55117770016E+01  0.37424721680E+01  0.14392743067E+02  0.00000000000E+00 0.  1.
</event>
<event>
 7    1  0.7357971E-011  0.4778726E+02  0.7816164E-02  0.1312668E+00
        -11   -1    0    0    0    0  0.00000000000E+00  0.00000000000E+00  0.45593999997E+02  0.45594000000E+02  0.51100000000E-03 0.  1.
         11   -1    0    0    0    0 -0.00000000000E+00 -0.00000000000E+00 -0.45593999997E+02  0.45594000000E+02  0.51100000000E-03 0. -1.
    9900012    2    1    2    0    0  0.30678067615E+02  0.85985078114E+01 -0.29471101064E+02  0.47787263058E+02  0.19999963588E+02 0.  0.
         12    1    1    2    0    0 -0.30678067615E+02 -0.85985078114E+01  0.29471101064E+02  0.43400736942E+02  0.00000000000E+00 0. -1.
         11    1    3    3    0    0 -0.29302934149E+01  0.23419376848E+00 -0.28192939620E+01  0.40730682444E+01  0.51100000000E-03 0. -1.
        -11    1    3    3    0    0  0.21481057096E+02  0.53383825373E+01 -0.16386242786E+02  0.27539845587E+02  0.51100000000E-03 0.  1.
         12    1    3    3    0    0  0.12127303934E+02  0.30259315056E+01 -0.10265564316E+02  0.16174349227E+02  0.00000000000E+00 0. -1.
</event>
<event>
 7    1  0.7357971E-011  0.4778727E+02  0.7816164E-02  0.1312668E+00
        -11   -1    0    0    0    0  0.00000000000E+00  0.00000000000E+00  0.45593999997E+02  0.45594000000E+02  0.51100000000E-03 0. -1.
         11   -1    0    0    0    0 -0.00000000000E+00 -0.00000000000E+00 -0.45593999997E+02  0.45594000000E+02  0.51100000000E-03 0.  1.
    9900012    2    1    2    0    0 -0.34821740126E+01 -0.32566841483E+01 -0.43138058815E+02  0.47787266760E+02  0.19999980464E+02 0.  0.
         12    1    1    2    0    0  0.34821740126E+01  0.32566841483E+01  0.43138058815E+02  0.43400733240E+02  0.00000000000E+00 0. -1.
         11    1    3    3    0    0  0.12008974986E+01  0.58717591527E+01 -0.19338772194E+02  0.20246180395E+02  0.51100000000E-03 0. -1.
        -11    1    3    3    0    0 -0.30237544559E+00 -0.35218137091E+01 -0.10237546692E+01  0.36800375807E+01  0.51100000000E-03 0.  1.
         12    1    3    3    0    0 -0.43806960657E+01 -0.56066295919E+01 -0.22775531951E+02  0.23861048784E+02  0.00000000000E+00 0. -1.
</event>
<event>
 7    1  0.7357971E-011  0.4778726E+02  0.7816164E-02  0.1312668E+00
        -11   -1    0    0    0    0  0.00000000000E+00  0.00000000000E+00  0.45593999997E+02  0.45594000000E+02  0.51100000000E-03 0. -1.
         11   -1    0    0    0    0 -0.00000000000E+00 -0.00000000000E+00 -0.45593999997E+02  0.45594000000E+02  0.51100000000E-03 0.  1.
    9900012    2    1    2    0    0  0.24103797179E+02  0.13976149492E+02 -0.33276092977E+02  0.47787260872E+02  0.19999953619E+02 0.  0.
         12    1    1    2    0    0 -0.24103797179E+02 -0.13976149492E+02  0.33276092977E+02  0.43400739128E+02  0.00000000000E+00 0. -1.
         11    1    3    3    0    0 -0.21094195683E+01  0.15174271959E+01 -0.21680180079E+01  0.33841599481E+01  0.51100000000E-03 0. -1.
        -11    1    3    3    0    0  0.19640246175E+02  0.58649029151E+01 -0.13676877497E+02  0.24641293276E+02  0.51100000000E-03 0.  1.
        -12    1    3    3    0    0  0.65729705724E+01  0.65938193815E+01 -0.17431197472E+02  0.19761807647E+02  0.00000000000E+00 0.  1.
</event>
<event>
 7    1  0.7357971E-011  0.4778727E+02  0.7816164E-02  0.1312668E+00
        -11   -1    0    0    0    0  0.00000000000E+00  0.00000000000E+00  0.45593999997E+02  0.45594000000E+02  0.51100000000E-03 0. -1.
         11   -1    0    0    0    0 -0.00000000000E+00 -0.00000000000E+00 -0.45593999997E+02  0.45594000000E+02  0.51100000000E-03 0.  1.
    9900012    2    1    2    0    0 -0.22870968336E+02 -0.26496896504E+02  0.25660404272E+02  0.47787273458E+02  0.20000011004E+02 0.  0.
        -12    1    1    2    0    0  0.22870968336E+02  0.26496896504E+02 -0.25660404272E+02  0.43400726542E+02  0.00000000000E+00 0.  1.
         11    1    3    3    0    0 -0.69738742422E+00 -0.11074502337E+02  0.27002501902E+01  0.11420258429E+02  0.51100000000E-03 0. -1.
        -11    1    3    3    0    0 -0.30121966179E+01 -0.10690049326E+00  0.54519884423E+01  0.62296817267E+01  0.51100000000E-03 0.  1.
         12    1    3    3    0    0 -0.19161384294E+02 -0.15315493674E+02  0.17508165640E+02  0.30137333303E+02  0.00000000000E+00 0. -1.
</event>
<event>
 7    1  0.7357971E-011  0.4778727E+02  0.7816164E-02  0.1312668E+00
        -11   -1    0    0    0    0  0.00000000000E+00  0.00000000000E+00  0.45593999997E+02  0.45594000000E+02  0.51100000000E-03 0. -1.
         11   -1    0    0    0    0 -0.00000000000E+00 -0.00000000000E+00 -0.45593999997E+02  0.45594000000E+02  0.51100000000E-03 0.  1.
    9900012    2    1    2    0    0  0.16077119506E+02  0.29310453016E+02  0.27677552027E+02  0.47787270584E+02  0.19999997901E+02 0.  0.
        -12    1    1    2    0    0 -0.16077119506E+02 -0.29310453016E+02 -0.27677552027E+02  0.43400729416E+02  0.00000000000E+00 0.  1.
         11    1    3    3    0    0  0.12616708813E+02  0.16078453605E+02  0.26550881398E+02  0.33505929548E+02  0.51100000000E-03 0. -1.
        -11    1    3    3    0    0 -0.13011701714E+00  0.70495767690E+01  0.10713294288E+01  0.71317045695E+01  0.51100000000E-03 0.  1.
         12    1    3    3    0    0  0.35905277101E+01  0.61824226419E+01  0.55341201053E-01  0.71496364669E+01  0.00000000000E+00 0. -1.
</event>
<event>
 7    1  0.7357971E-011  0.4778727E+02  0.7816164E-02  0.1312668E+00
        -11   -1    0    0    0    0  0.00000000000E+00  0.00000000000E+00  0.45593999997E+02  0.45594000000E+02  0.51100000000E-03 0. -1.
         11   -1    0    0    0    0 -0.00000000000E+00 -0.00000000000E+00 -0.45593999997E+02  0.45594000000E+02  0.51100000000E-03 0.  1.
    9900012    2    1    2    0    0 -0.37886502891E+02  0.62320602550E+01  0.20233575899E+02  0.47787271089E+02  0.20000000204E+02 0.  0.
        -12    1    1    2    0    0  0.37886502891E+02 -0.62320602550E+01 -0.20233575899E+02  0.43400728911E+02  0.00000000000E+00 0.  1.
         11    1    3    3    0    0 -0.31327598132E+02  0.34708756659E+01  0.19302557216E+02  0.36960169074E+02  0.51100000000E-03 0. -1.
        -11    1    3    3    0    0  0.13687374086E+01 -0.12099997694E+01 -0.37436449778E+00  0.18648567167E+01  0.51100000000E-03 0.  1.
         12    1    3    3    0    0 -0.79276421671E+01  0.39711843585E+01  0.13053831805E+01  0.89622452983E+01  0.00000000000E+00 0. -1.
</event>
<event>
 7    1  0.7357971E-011  0.4778727E+02  0.7816164E-02  0.1312668E+00
        -11   -1    0    0    0    0  0.00000000000E+00  0.00000000000E+00  0.45593999997E+02  0.45594000000E+02  0.51100000000E-03 0. -1.
         11   -1    0    0    0    0 -0.00000000000E+00 -0.00000000000E+00 -0.45593999997E+02  0.45594000000E+02  0.51100000000E-03 0.  1.
    9900012    2    1    2    0    0 -0.27817003166E+02 -0.94318452785E+01 -0.31951187540E+02  0.47787265493E+02  0.19999974688E+02 0.  0.
         12    1    1    2    0    0  0.27817003166E+02  0.94318452785E+01  0.31951187540E+02  0.43400734507E+02  0.00000000000E+00 0. -1.
         11    1    3    3    0    0 -0.10185722253E+02 -0.10299754930E+02 -0.20697170165E+02  0.25262754057E+02  0.51100000000E-03 0. -1.
        -11    1    3    3    0    0 -0.87717299641E+01 -0.25976814825E+01 -0.88137121645E+01  0.12703256198E+02  0.51100000000E-03 0.  1.
         12    1    3    3    0    0 -0.88595509491E+01  0.34655911343E+01 -0.24403052112E+01  0.98212552382E+01  0.00000000000E+00 0. -1.
</event>
<event>
 7    1  0.7357971E-011  0.4778727E+02  0.7816164E-02  0.1312668E+00
        -11   -1    0    0    0    0  0.00000000000E+00  0.00000000000E+00  0.45593999997E+02  0.45594000000E+02  0.51100000000E-03 0. -1.
         11   -1    0    0    0    0 -0.00000000000E+00 -0.00000000000E+00 -0.45593999997E+02  0.45594000000E+02  0.51100000000E-03 0.  1.
    9900012    2    1    2    0    0 -0.27496663569E+02 -0.82971339978E+01 -0.32537889871E+02  0.47787271696E+02  0.20000002972E+02 0.  0.
         12    1    1    2    0    0  0.27496663569E+02  0.82971339978E+01  0.32537889871E+02  0.43400728304E+02  0.00000000000E+00 0. -1.
         11    1    3    3    0    0  0.16129830564E+01 -0.34324471307E+01 -0.78597754663E+01  0.87269398008E+01  0.51100000000E-03 0. -1.
        -11    1    3    3    0    0  0.36771269795E+00 -0.21709952451E+00 -0.24496397071E+00  0.49229304265E+00  0.51100000000E-03 0.  1.
         12    1    3    3    0    0 -0.29477359324E+02 -0.46475873427E+01 -0.24433150434E+02  0.38568038853E+02  0.00000000000E+00 0. -1.
</event>
<event>
 7    1  0.7357971E-011  0.4778727E+02  0.7816164E-02  0.1312668E+00
        -11   -1    0    0    0    0  0.00000000000E+00  0.00000000000E+00  0.45593999997E+02  0.45594000000E+02  0.51100000000E-03 0. -1.
         11   -1    0    0    0    0 -0.00000000000E+00 -0.00000000000E+00 -0.45593999997E+02  0.45594000000E+02  0.51100000000E-03 0.  1.
    9900012    2    1    2    0    0  0.23916652334E+01 -0.28778065124E+02  0.32399475680E+02  0.47787272826E+02  0.20000008123E+02 0.  0.
        -12    1    1    2    0    0 -0.23916652334E+01  0.28778065124E+02 -0.32399475680E+02  0.43400727174E+02  0.00000000000E+00 0.  1.
         11    1    3    3    0    0 -0.18062771817E+00 -0.10568151844E+02  0.15142963237E+02  0.18466937906E+02  0.51100000000E-03 0. -1.
        -11    1    3    3    0    0  0.69960631273E+01 -0.42329987008E+01  0.25757498837E+01  0.85730779191E+01  0.51100000000E-03 0.  1.
        -12    1    3    3    0    0 -0.44237701758E+01 -0.13976914580E+02  0.14680762560E+02  0.20747257001E+02  0.00000000000E+00 0.  1.
</event>
<event>
 7    1  0.7357971E-011  0.4778728E+02  0.7816164E-02  0.1312668E+00
        -11   -1    0    0    0    0  0.00000000000E+00  0.00000000000E+00  0.45593999997E+02  0.45594000000E+02  0.51100000000E-03 0.  1.
         11   -1    0    0    0    0 -0.00000000000E+00 -0.00000000000E+00 -0.45593999997E+02  0.45594000000E+02  0.51100000000E-03 0. -1.
    9900012    2    1    2    0    0 -0.40561800984E+02  0.13676071565E+02  0.71643621230E+01  0.47787277458E+02  0.20000029243E+02 0.  0.
        -12    1    1    2    0    0  0.40561800984E+02 -0.13676071565E+02 -0.71643621230E+01  0.43400722542E+02  0.00000000000E+00 0.  1.
         11    1    3    3    0    0 -0.10612779047E+02  0.23306469606E+01  0.37176067880E+00  0.10872037556E+02  0.51100000000E-03 0. -1.
        -11    1    3    3    0    0 -0.18784209795E+02  0.15085296965E+02  0.19062330743E+01  0.24167052922E+02  0.51100000000E-03 0.  1.
        -12    1    3    3    0    0 -0.11164812142E+02 -0.37398723607E+01  0.48863683698E+01  0.12748186980E+02  0.00000000000E+00 0.  1.
</event>
<event>
 7    1  0.7357971E-011  0.4778727E+02  0.7816164E-02  0.1312668E+00
        -11   -1    0    0    0    0  0.00000000000E+00  0.00000000000E+00  0.45593999997E+02  0.45594000000E+02  0.51100000000E-03 0. -1.
         11   -1    0    0    0    0 -0.00000000000E+00 -0.00000000000E+00 -0.45593999997E+02  0.45594000000E+02  0.51100000000E-03 0.  1.
    9900012    2    1    2    0    0  0.44789266346E+01  0.24243540957E+02  0.35718531555E+02  0.47787267767E+02  0.19999985056E+02 0.  0.
        -12    1    1    2    0    0 -0.44789266346E+01 -0.24243540957E+02 -0.35718531555E+02  0.43400732233E+02  0.00000000000E+00 0.  1.
         11    1    3    3    0    0 -0.37156196543E+00  0.11126452230E+01  0.52042830147E+01  0.53348476683E+01  0.51100000000E-03 0. -1.
        -11    1    3    3    0    0  0.85886864175E+00  0.10358466575E+02  0.15009288480E+01  0.10501822356E+02  0.51100000000E-03 0.  1.
        -12    1    3    3    0    0  0.39916199583E+01  0.12772429159E+02  0.29013319692E+02  0.31950597742E+02  0.00000000000E+00 0.  1.
</event>
<event>
 7    1  0.7357971E-011  0.4778727E+02  0.7816164E-02  0.1312668E+00
        -11   -1    0    0    0    0  0.00000000000E+00  0.00000000000E+00  0.45593999997E+02  0.45594000000E+02  0.51100000000E-03 0. -1.
         11   -1    0    0    0    0 -0.00000000000E+00 -0.00000000000E+00 -0.45593999997E+02  0.45594000000E+02  0.51100000000E-03 0.  1.
    9900012    2    1    2    0    0  0.38061316067E+02 -0.59453558683E+01 -0.19990301801E+02  0.47787271858E+02  0.20000003709E+02 0.  0.
         12    1    1    2    0    0 -0.38061316067E+02  0.59453558683E+01  0.19990301801E+02  0.43400728142E+02  0.00000000000E+00 0. -1.
         11    1    3    3    0    0  0.12238518103E+02 -0.63290157675E+01 -0.90095064223E+01  0.16462350141E+02  0.51100000000E-03 0. -1.
        -11    1    3    3    0    0  0.11228055372E+02  0.68672665543E+01 -0.31263643042E+01  0.13527850213E+02  0.51100000000E-03 0.  1.
        -12    1    3    3    0    0  0.14594742592E+02 -0.64836066551E+01 -0.78544310743E+01  0.17797071503E+02  0.00000000000E+00 0.  1.
</event>
<event>
 7    1  0.7357971E-011  0.4778727E+02  0.7816164E-02  0.1312668E+00
        -11   -1    0    0    0    0  0.00000000000E+00  0.00000000000E+00  0.45593999997E+02  0.45594000000E+02  0.51100000000E-03 0. -1.
         11   -1    0    0    0    0 -0.00000000000E+00 -0.00000000000E+00 -0.45593999997E+02  0.45594000000E+02  0.51100000000E-03 0.  1.
    9900012    2    1    2    0    0 -0.15746648841E+02  0.13730408148E+02 -0.38041322179E+02  0.47787271311E+02  0.20000001214E+02 0.  0.
         12    1    1    2    0    0  0.15746648841E+02 -0.13730408148E+02  0.38041322179E+02  0.43400728689E+02  0.00000000000E+00 0. -1.
         11    1    3    3    0    0 -0.14408117456E+02  0.18352654854E+02 -0.29209098982E+02  0.37384291519E+02  0.51100000000E-03 0. -1.
        -11    1    3    3    0    0  0.60112550836E+00 -0.15956908203E+00 -0.11986834489E+01  0.13504282434E+01  0.51100000000E-03 0.  1.
         12    1    3    3    0    0 -0.19396568930E+01 -0.44626776239E+01 -0.76335397486E+01  0.90525515481E+01  0.00000000000E+00 0. -1.
</event>
<event>
 7    1  0.1184269E-010  0.4778725E+02  0.7816164E-02  0.1312668E+00
        -11   -1    0    0    0    0  0.00000000000E+00  0.00000000000E+00  0.45593999997E+02  0.45594000000E+02  0.51100000000E-03 0. -1.
         11   -1    0    0    0    0 -0.00000000000E+00 -0.00000000000E+00 -0.45593999997E+02  0.45594000000E+02  0.51100000000E-03 0.  1.
    9900012    2    1    2    0    0 -0.51797799656E+01  0.13258517519E+02 -0.41000077978E+02  0.47787253445E+02  0.19999919759E+02 0.  0.
         12    1    1    2    0    0  0.51797799656E+01 -0.13258517519E+02  0.41000077978E+02  0.43400746555E+02  0.00000000000E+00 0. -1.
         11    1    3    3    0    0 -0.17093392077E+01 -0.37723364421E+01 -0.61451203258E+01  0.74104565878E+01  0.51100000000E-03 0. -1.
        -11    1    3    3    0    0 -0.64961268603E+01  0.11332532537E+02 -0.17326720088E+02  0.21698875250E+02  0.51100000000E-03 0.  1.
        -12    1    3    3    0    0  0.30256861023E+01  0.56983214245E+01 -0.17528237564E+02  0.18677921607E+02  0.00000000000E+00 0.  1.
</event>
<event>
 7    1  0.7357971E-011  0.4778728E+02  0.7816164E-02  0.1312668E+00
        -11   -1    0    0    0    0  0.00000000000E+00  0.00000000000E+00  0.45593999997E+02  0.45594000000E+02  0.51100000000E-03 0. -1.
         11   -1    0    0    0    0 -0.00000000000E+00 -0.00000000000E+00 -0.45593999997E+02  0.45594000000E+02  0.51100000000E-03 0.  1.
    9900012    2    1    2    0    0  0.28133402595E+02  0.32988684474E+02 -0.19699425512E+01  0.47787282050E+02  0.20000050179E+02 0.  0.
         12    1    1    2    0    0 -0.28133402595E+02 -0.32988684474E+02  0.19699425512E+01  0.43400717950E+02  0.00000000000E+00 0. -1.
         11    1    3    3    0    0  0.64425630774E+01  0.10156615519E+02  0.69666026319E+01  0.13899532737E+02  0.51100000000E-03 0.  1.
        -11    1    3    3    0    0  0.21495565587E+02  0.18652550041E+02 -0.71935316649E+01  0.29355133470E+02  0.51100000000E-03 0. -1.
         12    1    3    3    0    0  0.19527393070E+00  0.41795189141E+01 -0.17430135183E+01  0.45326158437E+01  0.00000000000E+00 0. -1.
</event>
<event>
 7    1  0.7357971E-011  0.4778727E+02  0.7816164E-02  0.1312668E+00
        -11   -1    0    0    0    0  0.00000000000E+00  0.00000000000E+00  0.45593999997E+02  0.45594000000E+02  0.51100000000E-03 0.  1.
         11   -1    0    0    0    0 -0.00000000000E+00 -0.00000000000E+00 -0.45593999997E+02  0.45594000000E+02  0.51100000000E-03 0. -1.
    9900012    2    1    2    0    0 -0.34294427516E+02  0.11397783507E+02  0.24033436474E+02  0.47787270786E+02  0.19999998824E+02 0.  0.
         12    1    1    2    0    0  0.34294427516E+02 -0.11397783507E+02 -0.24033436474E+02  0.43400729214E+02  0.00000000000E+00 0. -1.
         11    1    3    3    0    0 -0.19996817198E+00  0.46044593378E+01  0.24041451383E+01  0.51981676743E+01  0.51100000000E-03 0. -1.
        -11    1    3    3    0    0 -0.23549713214E+02  0.96961085747E+01  0.12639791314E+02  0.28431810331E+02  0.51100000000E-03 0.  1.
        -12    1    3    3    0    0 -0.10544746130E+02 -0.29027844061E+01  0.89895000217E+01  0.14157292782E+02  0.00000000000E+00 0.  1.
</event>
<event>
 7    1  0.7357971E-011  0.4778727E+02  0.7816164E-02  0.1312668E+00
        -11   -1    0    0    0    0  0.00000000000E+00  0.00000000000E+00  0.45593999997E+02  0.45594000000E+02  0.51100000000E-03 0. -1.
         11   -1    0    0    0    0 -0.00000000000E+00 -0.00000000000E+00 -0.45593999997E+02  0.45594000000E+02  0.51100000000E-03 0.  1.
    9900012    2    1    2    0    0 -0.26778406329E+02  0.61345577843E+01 -0.33599224222E+02  0.47787265985E+02  0.19999976932E+02 0.  0.
         12    1    1    2    0    0  0.26778406329E+02 -0.61345577843E+01  0.33599224222E+02  0.43400734015E+02  0.00000000000E+00 0. -1.
         11    1    3    3    0    0 -0.41067739752E+01 -0.33457231391E+01 -0.10796442891E+01  0.54060232943E+01  0.51100000000E-03 0. -1.
        -11    1    3    3    0    0 -0.19500755921E+02  0.11747144644E+02 -0.30287953849E+02  0.37889774840E+02  0.51100000000E-03 0.  1.
        -12    1    3    3    0    0 -0.31708764324E+01 -0.22668637206E+01 -0.22316260837E+01  0.44914678508E+01  0.00000000000E+00 0.  1.
</event>
<event>
 7    1  0.7357971E-011  0.4778727E+02  0.7816164E-02  0.1312668E+00
        -11   -1    0    0    0    0  0.00000000000E+00  0.00000000000E+00  0.45593999997E+02  0.45594000000E+02  0.51100000000E-03 0. -1.
         11   -1    0    0    0    0 -0.00000000000E+00 -0.00000000000E+00 -0.45593999997E+02  0.45594000000E+02  0.51100000000E-03 0.  1.
    9900012    2    1    2    0    0  0.18480651833E+02 -0.21920999510E+01 -0.39208204902E+02  0.47787272748E+02  0.20000007766E+02 0.  0.
         12    1    1    2    0    0 -0.18480651833E+02  0.21920999510E+01  0.39208204902E+02  0.43400727252E+02  0.00000000000E+00 0. -1.
         11    1    3    3    0    0 -0.99057073316E+00  0.30370071044E+01 -0.84048546304E+01  0.89914528386E+01  0.51100000000E-03 0. -1.
        -11    1    3    3    0    0  0.18817597390E+02 -0.80344126849E+01 -0.28618180321E+02  0.35180307046E+02  0.51100000000E-03 0.  1.
        -12    1    3    3    0    0  0.65362517545E+00  0.28053056295E+01 -0.21851699511E+01  0.36155128626E+01  0.00000000000E+00 0.  1.
</event>
<event>
 7    1  0.7357971E-011  0.4778727E+02  0.7816164E-02  0.1312668E+00
        -11   -1    0    0    0    0  0.00000000000E+00  0.00000000000E+00  0.45593999997E+02  0.45594000000E+02  0.51100000000E-03 0. -1.
         11   -1    0    0    0    0 -0.00000000000E+00 -0.00000000000E+00 -0.45593999997E+02  0.45594000000E+02  0.51100000000E-03 0.  1.
    9900012    2    1    2    0    0  0.53985489115E+01 -0.15246788290E+02  0.40274238533E+02  0.47787272208E+02  0.20000005303E+02 0.  0.
        -12    1    1    2    0    0 -0.53985489115E+01  0.15246788290E+02 -0.40274238533E+02  0.43400727792E+02  0.00000000000E+00 0.  1.
         11    1    3    3    0    0 -0.79496842955E+00  0.88693808178E+00  0.14124256533E+02  0.14174387353E+02  0.51100000000E-03 0. -1.
        -11    1    3    3    0    0  0.84051878967E+01 -0.15158423263E+02  0.25924791293E+02  0.31185249450E+02  0.51100000000E-03 0.  1.
         12    1    3    3    0    0 -0.22116705557E+01 -0.97530310911E+00  0.22519070633E+00  0.24276354042E+01  0.00000000000E+00 0. -1.
</event>
<event>
 7    1  0.7357971E-011  0.4778727E+02  0.7816164E-02  0.1312668E+00
        -11   -1    0    0    0    0  0.00000000000E+00  0.00000000000E+00  0.45593999997E+02  0.45594000000E+02  0.51100000000E-03 0. -1.
         11   -1    0    0    0    0 -0.00000000000E+00 -0.00000000000E+00 -0.45593999997E+02  0.45594000000E+02  0.51100000000E-03 0.  1.
    9900012    2    1    2    0    0  0.31487955665E+01  0.22461925911E+02  0.37002302138E+02  0.47787269676E+02  0.19999993760E+02 0.  0.
        -12    1    1    2    0    0 -0.31487955665E+01 -0.22461925911E+02 -0.37002302138E+02  0.43400730324E+02  0.00000000000E+00 0.  1.
         11    1    3    3    0    0 -0.71547317014E+01  0.16136409518E+02  0.21725078206E+02  0.27992015311E+02  0.51100000000E-03 0. -1.
        -11    1    3    3    0    0  0.65956554743E+01  0.20181110165E+01  0.87044459728E+01  0.11105981414E+02  0.51100000000E-03 0.  1.
         12    1    3    3    0    0  0.37078717936E+01  0.43074053768E+01  0.65727779593E+01  0.86892729512E+01  0.00000000000E+00 0. -1.
</event>
<event>
 7    1  0.7357971E-011  0.4778730E+02  0.7816164E-02  0.1312668E+00
        -11   -1    0    0    0    0  0.00000000000E+00  0.00000000000E+00  0.45593999997E+02  0.45594000000E+02  0.51100000000E-03 0. -1.
         11   -1    0    0    0    0 -0.00000000000E+00 -0.00000000000E+00 -0.45593999997E+02  0.45594000000E+02  0.51100000000E-03 0.  1.
    9900012    2    1    2    0    0 -0.65834338382E+00 -0.58261214333E+01 -0.43002837204E+02  0.47787295921E+02  0.20000113420E+02 0.  0.
         12    1    1    2    0    0  0.65834338382E+00  0.58261214333E+01  0.43002837204E+02  0.43400704079E+02  0.00000000000E+00 0. -1.
         11    1    3    3    0    0 -0.47323046504E+01  0.25005036830E+01 -0.19738207695E+01  0.57046642902E+01  0.51100000000E-03 0. -1.
        -11    1    3    3    0    0  0.28207990233E+01 -0.43203515538E+01 -0.22434315346E+02  0.23020009774E+02  0.51100000000E-03 0.  1.
         12    1    3    3    0    0  0.12531622433E+01 -0.40062735625E+01 -0.18594701088E+02  0.19062621856E+02  0.00000000000E+00 0. -1.
</event>
<event>
 7    1  0.7357971E-011  0.4778727E+02  0.7816164E-02  0.1312668E+00
        -11   -1    0    0    0    0  0.00000000000E+00  0.00000000000E+00  0.45593999997E+02  0.45594000000E+02  0.51100000000E-03 0.  1.
         11   -1    0    0    0    0 -0.00000000000E+00 -0.00000000000E+00 -0.45593999997E+02  0.45594000000E+02  0.51100000000E-03 0. -1.
    9900012    2    1    2    0    0 -0.24688296150E+02  0.34176213506E+02  0.10300377440E+02  0.47787270608E+02  0.19999998009E+02 0.  0.
        -12    1    1    2    0    0  0.24688296150E+02 -0.34176213506E+02 -0.10300377440E+02  0.43400729392E+02  0.00000000000E+00 0.  1.
         11    1    3    3    0    0 -0.10800557044E+02  0.25189579952E+02  0.96627344551E+01  0.29060891384E+02  0.51100000000E-03 0. -1.
        -11    1    3    3    0    0  0.78144812394E+00  0.31106214249E+00  0.14369808179E+01  0.16650330204E+01  0.51100000000E-03 0.  1.
         12    1    3    3    0    0 -0.14669187230E+02  0.86755714111E+01 -0.79933783316E+00  0.17061346203E+02  0.00000000000E+00 0. -1.
</event>
<event>
 7    1  0.7357971E-011  0.4778727E+02  0.7816164E-02  0.1312668E+00
        -11   -1    0    0    0    0  0.00000000000E+00  0.00000000000E+00  0.45593999997E+02  0.45594000000E+02  0.51100000000E-03 0. -1.
         11   -1    0    0    0    0 -0.00000000000E+00 -0.00000000000E+00 -0.45593999997E+02  0.45594000000E+02  0.51100000000E-03 0.  1.
    9900012    2    1    2    0    0 -0.10234474051E+02 -0.28544905108E+02  0.31049431071E+02  0.47787271475E+02  0.20000001961E+02 0.  0.
        -12    1    1    2    0    0  0.10234474051E+02  0.28544905108E+02 -0.31049431071E+02  0.43400728525E+02  0.00000000000E+00 0.  1.
         11    1    3    3    0    0 -0.10448005649E+01 -0.13137273928E+02  0.26810082719E+01  0.13448694364E+02  0.51100000000E-03 0. -1.
        -11    1    3    3    0    0 -0.19758940928E+01 -0.73630278696E+00  0.73875140143E+00  0.22342903021E+01  0.51100000000E-03 0.  1.
         12    1    3    3    0    0 -0.72137793937E+01 -0.14671328393E+02  0.27629671397E+02  0.32104286808E+02  0.00000000000E+00 0. -1.
</event>
<event>
 7    1  0.7357971E-011  0.4778727E+02  0.7816164E-02  0.1312668E+00
        -11   -1    0    0    0    0  0.00000000000E+00  0.00000000000E+00  0.45593999997E+02  0.45594000000E+02  0.51100000000E-03 0. -1.
         11   -1    0    0    0    0 -0.00000000000E+00 -0.00000000000E+00 -0.45593999997E+02  0.45594000000E+02  0.51100000000E-03 0.  1.
    9900012    2    1    2    0    0  0.21522477844E+02  0.36051515723E+02 -0.10986095450E+02  0.47787272682E+02  0.20000007469E+02 0.  0.
         12    1    1    2    0    0 -0.21522477844E+02 -0.36051515723E+02  0.10986095450E+02  0.43400727318E+02  0.00000000000E+00 0. -1.
         11    1    3    3    0    0 -0.16981756701E+01  0.36930534222E+01  0.10656355510E+01  0.42021451158E+01  0.51100000000E-03 0. -1.
        -11    1    3    3    0    0 -0.56563747984E+00  0.19165565028E+01 -0.34797609892E+01  0.40127137189E+01  0.51100000000E-03 0.  1.
        -12    1    3    3    0    0  0.23786290994E+02  0.30441905798E+02 -0.85719700115E+01  0.39572413848E+02  0.00000000000E+00 0.  1.
</event>
<event>
 7    1  0.7357971E-011  0.4778728E+02  0.7816164E-02  0.1312668E+00
        -11   -1    0    0    0    0  0.00000000000E+00  0.00000000000E+00  0.45593999997E+02  0.45594000000E+02  0.51100000000E-03 0. -1.
         11   -1    0    0    0    0 -0.00000000000E+00 -0.00000000000E+00 -0.45593999997E+02  0.45594000000E+02  0.51100000000E-03 0.  1.
    9900012    2    1    2    0    0  0.22191019485E+02 -0.34123251283E+02 -0.15059382228E+02  0.47787278612E+02  0.20000034502E+02 0.  0.
         12    1    1    2    0    0 -0.22191019485E+02  0.34123251283E+02  0.15059382228E+02  0.43400721388E+02  0.00000000000E+00 0. -1.
         11    1    3    3    0    0  0.41264306565E+01 -0.61352093615E+01  0.22654531692E+01  0.77330784424E+01  0.51100000000E-03 0. -1.
        -11    1    3    3    0    0  0.10533600730E+01 -0.13111715823E+02 -0.91468190500E+01  0.16021577895E+02  0.51100000000E-03 0.  1.
        -12    1    3    3    0    0  0.17011228756E+02 -0.14876326099E+02 -0.81780163470E+01  0.24032622274E+02  0.00000000000E+00 0.  1.
</event>
<event>
 7    1  0.7357971E-011  0.4778727E+02  0.7816164E-02  0.1312668E+00
        -11   -1    0    0    0    0  0.00000000000E+00  0.00000000000E+00  0.45593999997E+02  0.45594000000E+02  0.51100000000E-03 0. -1.
         11   -1    0    0    0    0 -0.00000000000E+00 -0.00000000000E+00 -0.45593999997E+02  0.45594000000E+02  0.51100000000E-03 0.  1.
    9900012    2    1    2    0    0 -0.34634476577E+02 -0.18466639369E+02 -0.18521874280E+02  0.47787267700E+02  0.19999984750E+02 0.  0.
         12    1    1    2    0    0  0.34634476577E+02  0.18466639369E+02  0.18521874280E+02  0.43400732300E+02  0.00000000000E+00 0. -1.
         11    1    3    3    0    0 -0.46444063720E+01 -0.36642167997E+01 -0.11252310620E+02  0.12712650780E+02  0.51100000000E-03 0. -1.
        -11    1    3    3    0    0 -0.24266710916E+02 -0.95338276443E+01 -0.79718397115E+01  0.27263847066E+02  0.51100000000E-03 0.  1.
         12    1    3    3    0    0 -0.57233592897E+01 -0.52685949252E+01  0.70227605208E+00  0.78107698531E+01  0.00000000000E+00 0. -1.
</event>
<event>
 7    1  0.7357971E-011  0.4778727E+02  0.7816164E-02  0.1312668E+00
        -11   -1    0    0    0    0  0.00000000000E+00  0.00000000000E+00  0.45593999997E+02  0.45594000000E+02  0.51100000000E-03 0. -1.
         11   -1    0    0    0    0 -0.00000000000E+00 -0.00000000000E+00 -0.45593999997E+02  0.45594000000E+02  0.51100000000E-03 0.  1.
    9900012    2    1    2    0    0  0.22169749282E+02 -0.15464579865E+02 -0.33955449426E+02  0.47787267756E+02  0.19999985006E+02 0.  0.
         12    1    1    2    0    0 -0.22169749282E+02  0.15464579865E+02  0.33955449426E+02  0.43400732244E+02  0.00000000000E+00 0. -1.
         11    1    3    3    0    0 -0.21627778710E+00  0.35536903838E+01 -0.50597184938E+01  0.61867796892E+01  0.51100000000E-03 0. -1.
        -11    1    3    3    0    0  0.16473210921E+02 -0.16724599804E+02 -0.21227647540E+02  0.31649517169E+02  0.51100000000E-03 0.  1.
        -12    1    3    3    0    0  0.59128161479E+01 -0.22936704447E+01 -0.76680833920E+01  0.99509708981E+01  0.00000000000E+00 0.  1.
</event>
<event>
 7    1  0.7357971E-011  0.4778727E+02  0.7816164E-02  0.1312668E+00
        -11   -1    0    0    0    0  0.00000000000E+00  0.00000000000E+00  0.45593999997E+02  0.45594000000E+02  0.51100000000E-03 0. -1.
         11   -1    0    0    0    0 -0.00000000000E+00 -0.00000000000E+00 -0.45593999997E+02  0.45594000000E+02  0.51100000000E-03 0.  1.
    9900012    2    1    2    0    0 -0.35291980769E+02 -0.39303920012E+00  0.25257576170E+02  0.47787267974E+02  0.19999986003E+02 0.  0.
        -12    1    1    2    0    0  0.35291980769E+02  0.39303920012E+00 -0.25257576170E+02  0.43400732026E+02  0.00000000000E+00 0.  1.
         11    1    3    3    0    0 -0.53118733518E+00 -0.11356835887E+01  0.82265838662E+01  0.83215755460E+01  0.51100000000E-03 0. -1.
        -11    1    3    3    0    0 -0.25127458226E+02  0.39753618522E+01  0.12074448076E+02  0.28159988554E+02  0.51100000000E-03 0.  1.
        -12    1    3    3    0    0 -0.96333352076E+01 -0.32327174637E+01  0.49565442269E+01  0.11305703874E+02  0.00000000000E+00 0.  1.
</event>
<event>
 7    1  0.7357971E-011  0.4778726E+02  0.7816164E-02  0.1312668E+00
        -11   -1    0    0    0    0  0.00000000000E+00  0.00000000000E+00  0.45593999997E+02  0.45594000000E+02  0.51100000000E-03 0. -1.
         11   -1    0    0    0    0 -0.00000000000E+00 -0.00000000000E+00 -0.45593999997E+02  0.45594000000E+02  0.51100000000E-03 0.  1.
    9900012    2    1    2    0    0 -0.14242475102E+02 -0.16672119552E+02  0.37454193770E+02  0.47787259242E+02  0.19999946186E+02 0.  0.
        -12    1    1    2    0    0  0.14242475102E+02  0.16672119552E+02 -0.37454193770E+02  0.43400740758E+02  0.00000000000E+00 0.  1.
         11    1    3    3    0    0 -0.28264504565E+01 -0.31840374062E+01  0.10413333705E+02  0.11250086022E+02  0.51100000000E-03 0. -1.
        -11    1    3    3    0    0 -0.12357317744E+02 -0.16931255934E+01  0.16550046069E+02  0.20723754516E+02  0.51100000000E-03 0.  1.
        -12    1    3    3    0    0  0.94129309883E+00 -0.11794956553E+02  0.10490813996E+02  0.15813418703E+02  0.00000000000E+00 0.  1.
</event>
<event>
 7    1  0.7357971E-011  0.4778727E+02  0.7816164E-02  0.1312668E+00
        -11   -1    0    0    0    0  0.00000000000E+00  0.00000000000E+00  0.45593999997E+02  0.45594000000E+02  0.51100000000E-03 0. -1.
         11   -1    0    0    0    0 -0.00000000000E+00 -0.00000000000E+00 -0.45593999997E+02  0.45594000000E+02  0.51100000000E-03 0.  1.
    9900012    2    1    2    0    0 -0.22159835678E+02  0.98473658179E+01 -0.35994364915E+02  0.47787271475E+02  0.20000001963E+02 0.  0.
         12    1    1    2    0    0  0.22159835678E+02 -0.98473658179E+01  0.35994364915E+02  0.43400728525E+02  0.00000000000E+00 0. -1.
         11    1    3    3    0    0 -0.50029008813E+01 -0.33801622989E+01 -0.41319299643E+00  0.60518793039E+01  0.51100000000E-03 0. -1.
        -11    1    3    3    0    0 -0.94064729918E+01  0.56431766302E+01 -0.17912951862E+02  0.21004785676E+02  0.51100000000E-03 0.  1.
         12    1    3    3    0    0 -0.77504618053E+01  0.75843514866E+01 -0.17668220057E+02  0.20730606495E+02  0.00000000000E+00 0. -1.
</event>
<event>
 7    1  0.7357971E-011  0.4778730E+02  0.7816164E-02  0.1312668E+00
        -11   -1    0    0    0    0  0.00000000000E+00  0.00000000000E+00  0.45593999997E+02  0.45594000000E+02  0.51100000000E-03 0. -1.
         11   -1    0    0    0    0 -0.00000000000E+00 -0.00000000000E+00 -0.45593999997E+02  0.45594000000E+02  0.51100000000E-03 0.  1.
    9900012    2    1    2    0    0 -0.26983744061E+01  0.20220896131E+02  0.38307374017E+02  0.47787299903E+02  0.20000131579E+02 0.  0.
        -12    1    1    2    0    0  0.26983744061E+01 -0.20220896131E+02 -0.38307374017E+02  0.43400700097E+02  0.00000000000E+00 0.  1.
         11    1    3    3    0    0  0.44050973857E+00  0.11188403214E+02  0.24810583142E+02  0.27220203001E+02  0.51100000000E-03 0. -1.
        -11    1    3    3    0    0  0.22961104234E+01 -0.57116762040E+00 -0.80836416617E+00  0.25003616565E+01  0.51100000000E-03 0.  1.
        -12    1    3    3    0    0 -0.54349945680E+01  0.96036605383E+01  0.14305155041E+02  0.18066735246E+02  0.00000000000E+00 0.  1.
</event>
<event>
 7    1  0.7357971E-011  0.4778727E+02  0.7816164E-02  0.1312668E+00
        -11   -1    0    0    0    0  0.00000000000E+00  0.00000000000E+00  0.45593999997E+02  0.45594000000E+02  0.51100000000E-03 0. -1.
         11   -1    0    0    0    0 -0.00000000000E+00 -0.00000000000E+00 -0.45593999997E+02  0.45594000000E+02  0.51100000000E-03 0.  1.
    9900012    2    1    2    0    0  0.22341829585E+02 -0.53949371582E+01 -0.36815220625E+02  0.47787272289E+02  0.20000005674E+02 0.  0.
         12    1    1    2    0    0 -0.22341829585E+02  0.53949371582E+01  0.36815220625E+02  0.43400727711E+02  0.00000000000E+00 0. -1.
         11    1    3    3    0    0  0.10729523275E+02  0.20945797661E+01 -0.73102261905E+01  0.13151020543E+02  0.51100000000E-03 0. -1.
        -11    1    3    3    0    0  0.68622849337E+01 -0.26083192204E+01 -0.25919719747E+02  0.26939305034E+02  0.51100000000E-03 0.  1.
        -12    1    3    3    0    0  0.47500213772E+01 -0.48811977039E+01 -0.35852746878E+01  0.76969467125E+01  0.00000000000E+00 0.  1.
</event>
<event>
 7    1  0.7357971E-011  0.4778727E+02  0.7816164E-02  0.1312668E+00
        -11   -1    0    0    0    0  0.00000000000E+00  0.00000000000E+00  0.45593999997E+02  0.45594000000E+02  0.51100000000E-03 0. -1.
         11   -1    0    0    0    0 -0.00000000000E+00 -0.00000000000E+00 -0.45593999997E+02  0.45594000000E+02  0.51100000000E-03 0.  1.
    9900012    2    1    2    0    0 -0.25585499120E+02 -0.56075583371E+01  0.34605798405E+02  0.47787265456E+02  0.19999974520E+02 0.  0.
        -12    1    1    2    0    0  0.25585499120E+02  0.56075583371E+01 -0.34605798405E+02  0.43400734544E+02  0.00000000000E+00 0.  1.
         11    1    3    3    0    0 -0.19457570743E+02 -0.43930175422E+01  0.29405058812E+02  0.35532423873E+02  0.51100000000E-03 0. -1.
        -11    1    3    3    0    0 -0.77753699147E+01  0.34740273013E+00  0.15197755867E+01  0.79301187924E+01  0.51100000000E-03 0.  1.
         12    1    3    3    0    0  0.16474415375E+01 -0.15619435249E+01  0.36809640068E+01  0.43247227904E+01  0.00000000000E+00 0. -1.
</event>
<event>
 7    1  0.7357971E-011  0.4778727E+02  0.7816164E-02  0.1312668E+00
        -11   -1    0    0    0    0  0.00000000000E+00  0.00000000000E+00  0.45593999997E+02  0.45594000000E+02  0.51100000000E-03 0.  1.
         11   -1    0    0    0    0 -0.00000000000E+00 -0.00000000000E+00 -0.45593999997E+02  0.45594000000E+02  0.51100000000E-03 0. -1.
    9900012    2    1    2    0    0 -0.28126242597E+02  0.30491149385E+02 -0.12760380356E+02  0.47787273967E+02  0.20000013323E+02 0.  0.
        -12    1    1    2    0    0  0.28126242597E+02 -0.30491149385E+02  0.12760380356E+02  0.43400726033E+02  0.00000000000E+00 0.  1.
         11    1    3    3    0    0 -0.15240967328E+02  0.67913466464E+01 -0.75356482074E+01  0.18308344232E+02  0.51100000000E-03 0. -1.
        -11    1    3    3    0    0 -0.14727887815E+02  0.22126903072E+02 -0.45801002191E+01  0.26971982451E+02  0.51100000000E-03 0.  1.
        -12    1    3    3    0    0  0.18426125467E+01  0.15728996667E+01 -0.64463192935E+00  0.25069472836E+01  0.00000000000E+00 0.  1.
</event>
<event>
 7    1  0.7357971E-011  0.4778727E+02  0.7816164E-02  0.1312668E+00
        -11   -1    0    0    0    0  0.00000000000E+00  0.00000000000E+00  0.45593999997E+02  0.45594000000E+02  0.51100000000E-03 0. -1.
         11   -1    0    0    0    0 -0.00000000000E+00 -0.00000000000E+00 -0.45593999997E+02  0.45594000000E+02  0.51100000000E-03 0.  1.
    9900012    2    1    2    0    0 -0.12929820197E+02 -0.38247081536E+01  0.41253060167E+02  0.47787267104E+02  0.19999982035E+02 0.  0.
        -12    1    1    2    0    0  0.12929820197E+02  0.38247081536E+01 -0.41253060167E+02  0.43400732896E+02  0.00000000000E+00 0.  1.
         11    1    3    3    0    0  0.27144998589E+01 -0.23016734243E+01  0.17127905192E+02  0.17493751644E+02  0.51100000000E-03 0. -1.
        -11    1    3    3    0    0 -0.46590190964E+01  0.36787278678E-01  0.11797075176E+01  0.48061962436E+01  0.51100000000E-03 0.  1.
         12    1    3    3    0    0 -0.10985300959E+02 -0.15598220079E+01  0.22945447457E+02  0.25487319217E+02  0.00000000000E+00 0. -1.
</event>
<event>
 7    1  0.7357971E-011  0.4778727E+02  0.7816164E-02  0.1312668E+00
        -11   -1    0    0    0    0  0.00000000000E+00  0.00000000000E+00  0.45593999997E+02  0.45594000000E+02  0.51100000000E-03 0. -1.
         11   -1    0    0    0    0 -0.00000000000E+00 -0.00000000000E+00 -0.45593999997E+02  0.45594000000E+02  0.51100000000E-03 0.  1.
    9900012    2    1    2    0    0  0.18300319200E+02 -0.28715310753E+02 -0.26910091266E+02  0.47787265370E+02  0.19999974128E+02 0.  0.
         12    1    1    2    0    0 -0.18300319200E+02  0.28715310753E+02  0.26910091266E+02  0.43400734630E+02  0.00000000000E+00 0. -1.
         11    1    3    3    0    0 -0.17062153862E+01 -0.77146545589E+01 -0.10911883187E+01  0.79760741042E+01  0.51100000000E-03 0. -1.
        -11    1    3    3    0    0  0.13142350638E+02 -0.13227116999E+02 -0.10763472693E+02  0.21529754971E+02  0.51100000000E-03 0.  1.
         12    1    3    3    0    0  0.68641839476E+01 -0.77735391952E+01 -0.15055430254E+02  0.18281436295E+02  0.00000000000E+00 0. -1.
</event>
<event>
 7    1  0.7357971E-011  0.4778727E+02  0.7816164E-02  0.1312668E+00
        -11   -1    0    0    0    0  0.00000000000E+00  0.00000000000E+00  0.45593999997E+02  0.45594000000E+02  0.51100000000E-03 0. -1.
         11   -1    0    0    0    0 -0.00000000000E+00 -0.00000000000E+00 -0.45593999997E+02  0.45594000000E+02  0.51100000000E-03 0.  1.
    9900012    2    1    2    0    0  0.29313608832E+02  0.25561114277E+02 -0.19260454158E+02  0.47787270511E+02  0.19999997566E+02 0.  0.
         12    1    1    2    0    0 -0.29313608832E+02 -0.25561114277E+02  0.19260454158E+02  0.43400729489E+02  0.00000000000E+00 0. -1.
         11    1    3    3    0    0  0.61569313245E+01 -0.20037741956E+01 -0.13765952151E+01  0.66195112364E+01  0.51100000000E-03 0. -1.
        -11    1    3    3    0    0  0.12833512666E+02  0.17451447272E+02 -0.60555969255E+01  0.22492716902E+02  0.51100000000E-03 0.  1.
        -12    1    3    3    0    0  0.10323164841E+02  0.10113441201E+02 -0.11828262017E+02  0.18675042372E+02  0.00000000000E+00 0.  1.
</event>
<event>
 7    1  0.7357971E-011  0.4778727E+02  0.7816164E-02  0.1312668E+00
        -11   -1    0    0    0    0  0.00000000000E+00  0.00000000000E+00  0.45593999997E+02  0.45594000000E+02  0.51100000000E-03 0. -1.
         11   -1    0    0    0    0 -0.00000000000E+00 -0.00000000000E+00 -0.45593999997E+02  0.45594000000E+02  0.51100000000E-03 0.  1.
    9900012    2    1    2    0    0  0.40685003891E+02 -0.10770932911E+02 -0.10599090157E+02  0.47787271325E+02  0.20000001279E+02 0.  0.
         12    1    1    2    0    0 -0.40685003891E+02  0.10770932911E+02  0.10599090157E+02  0.43400728675E+02  0.00000000000E+00 0. -1.
         11    1    3    3    0    0  0.34565476450E+02 -0.12901787840E+01 -0.42860719078E+01  0.34854083494E+02  0.51100000000E-03 0. -1.
        -11    1    3    3    0    0  0.50699923958E+01 -0.79075505833E+01 -0.51373968008E+01  0.10706401135E+02  0.51100000000E-03 0.  1.
         12    1    3    3    0    0  0.10495350452E+01 -0.15732035435E+01 -0.11756214480E+01  0.22267866960E+01  0.00000000000E+00 0. -1.
</event>
<event>
 7    1  0.7357971E-011  0.4778727E+02  0.7816164E-02  0.1312668E+00
        -11   -1    0    0    0    0  0.00000000000E+00  0.00000000000E+00  0.45593999997E+02  0.45594000000E+02  0.51100000000E-03 0.  1.
         11   -1    0    0    0    0 -0.00000000000E+00 -0.00000000000E+00 -0.45593999997E+02  0.45594000000E+02  0.51100000000E-03 0. -1.
    9900012    2    1    2    0    0  0.41513858603E+02 -0.10785671704E+02 -0.66251180258E+01  0.47787270063E+02  0.19999995524E+02 0.  0.
         12    1    1    2    0    0 -0.41513858603E+02  0.10785671704E+02  0.66251180258E+01  0.43400729937E+02  0.00000000000E+00 0. -1.
         11    1    3    3    0    0  0.20421784437E+02  0.26627390453E+01 -0.36958190160E+01  0.20923635852E+02  0.51100000000E-03 0. -1.
        -11    1    3    3    0    0  0.14117608265E+02 -0.81534214100E+01  0.25976551556E+01  0.16508572209E+02  0.51100000000E-03 0.  1.
         12    1    3    3    0    0  0.69744659011E+01 -0.52949893389E+01 -0.55269541654E+01  0.10355062001E+02  0.00000000000E+00 0. -1.
</event>
<event>
 7    1  0.7357971E-011  0.4778727E+02  0.7816164E-02  0.1312668E+00
        -11   -1    0    0    0    0  0.00000000000E+00  0.00000000000E+00  0.45593999997E+02  0.45594000000E+02  0.51100000000E-03 0. -1.
         11   -1    0    0    0    0 -0.00000000000E+00 -0.00000000000E+00 -0.45593999997E+02  0.45594000000E+02  0.51100000000E-03 0.  1.
    9900012    2    1    2    0    0  0.79262629677E+01 -0.34742120948E+02 -0.24774641794E+02  0.47787268570E+02  0.19999988719E+02 0.  0.
         12    1    1    2    0    0 -0.79262629677E+01  0.34742120948E+02  0.24774641794E+02  0.43400731430E+02  0.00000000000E+00 0. -1.
         11    1    3    3    0    0 -0.76190647146E+00 -0.70598108314E+01 -0.74456769223E+00  0.71397347119E+01  0.51100000000E-03 0. -1.
        -11    1    3    3    0    0  0.13754532567E+01 -0.51817908997E+01  0.17662488191E+01  0.56446845564E+01  0.51100000000E-03 0.  1.
        -12    1    3    3    0    0  0.73127161825E+01 -0.22500519217E+02 -0.25796322921E+02  0.35002849302E+02  0.00000000000E+00 0.  1.
</event>
<event>
 7    1  0.7357971E-011  0.4778727E+02  0.7816164E-02  0.1312668E+00
        -11   -1    0    0    0    0  0.00000000000E+00  0.00000000000E+00  0.45593999997E+02  0.45594000000E+02  0.51100000000E-03 0.  1.
         11   -1    0    0    0    0 -0.00000000000E+00 -0.00000000000E+00 -0.45593999997E+02  0.45594000000E+02  0.51100000000E-03 0. -1.
    9900012    2    1    2    0    0  0.25252377335E+02 -0.25046633462E+02  0.24871813382E+02  0.47787268327E+02  0.19999987609E+02 0.  0.
        -12    1    1    2    0    0 -0.25252377335E+02  0.25046633462E+02 -0.24871813382E+02  0.43400731673E+02  0.00000000000E+00 0.  1.
         11    1    3    3    0    0  0.21640558676E+02 -0.11391465844E+02  0.11896741209E+02  0.27195803455E+02  0.51100000000E-03 0. -1.
        -11    1    3    3    0    0 -0.32915289711E+00 -0.10357304757E+02  0.61568323170E+01  0.12053575731E+02  0.51100000000E-03 0.  1.
        -12    1    3    3    0    0  0.39409715563E+01 -0.32978628618E+01  0.68182398554E+01  0.85378891413E+01  0.00000000000E+00 0.  1.
</event>
<event>
 7    1  0.7357971E-011  0.4778727E+02  0.7816164E-02  0.1312668E+00
        -11   -1    0    0    0    0  0.00000000000E+00  0.00000000000E+00  0.45593999997E+02  0.45594000000E+02  0.51100000000E-03 0. -1.
         11   -1    0    0    0    0 -0.00000000000E+00 -0.00000000000E+00 -0.45593999997E+02  0.45594000000E+02  0.51100000000E-03 0.  1.
    9900012    2    1    2    0    0  0.22684691455E+02  0.18918507810E+02  0.31798081045E+02  0.47787272790E+02  0.20000007960E+02 0.  0.
        -12    1    1    2    0    0 -0.22684691455E+02 -0.18918507810E+02 -0.31798081045E+02  0.43400727210E+02  0.00000000000E+00 0.  1.
         11    1    3    3    0    0  0.10783070477E+02  0.12022871137E+02  0.27023855977E+02  0.31481944531E+02  0.51100000000E-03 0. -1.
        -11    1    3    3    0    0  0.90836570646E+01  0.11957727816E+01  0.35750888453E+01  0.98348339450E+01  0.51100000000E-03 0.  1.
        -12    1    3    3    0    0  0.28179639127E+01  0.56998638914E+01  0.11991362230E+01  0.64704943146E+01  0.00000000000E+00 0.  1.
</event>
<event>
 7    1  0.7357971E-011  0.4778727E+02  0.7816164E-02  0.1312668E+00
        -11   -1    0    0    0    0  0.00000000000E+00  0.00000000000E+00  0.45593999997E+02  0.45594000000E+02  0.51100000000E-03 0. -1.
         11   -1    0    0    0    0 -0.00000000000E+00 -0.00000000000E+00 -0.45593999997E+02  0.45594000000E+02  0.51100000000E-03 0.  1.
    9900012    2    1    2    0    0  0.19228176538E+02 -0.80955401250E+01  0.38057367097E+02  0.47787265752E+02  0.19999975870E+02 0.  0.
        -12    1    1    2    0    0 -0.19228176538E+02  0.80955401250E+01 -0.38057367097E+02  0.43400734248E+02  0.00000000000E+00 0.  1.
         11    1    3    3    0    0 -0.10986264495E+01  0.37869313175E+01  0.90243323938E+01  0.98481675602E+01  0.51100000000E-03 0. -1.
        -11    1    3    3    0    0  0.12959857386E+02 -0.77091447506E+01  0.13458547990E+02  0.20211910610E+02  0.51100000000E-03 0.  1.
         12    1    3    3    0    0  0.73669456012E+01 -0.41733266919E+01  0.15574486714E+02  0.17727187582E+02  0.00000000000E+00 0. -1.
</event>
<event>
 7    1  0.7357971E-011  0.4778727E+02  0.7816164E-02  0.1312668E+00
        -11   -1    0    0    0    0  0.00000000000E+00  0.00000000000E+00  0.45593999997E+02  0.45594000000E+02  0.51100000000E-03 0. -1.
         11   -1    0    0    0    0 -0.00000000000E+00 -0.00000000000E+00 -0.45593999997E+02  0.45594000000E+02  0.51100000000E-03 0.  1.
    9900012    2    1    2    0    0  0.37022231072E+02 -0.15603552502E+02 -0.16416661443E+02  0.47787271698E+02  0.20000002979E+02 0.  0.
         12    1    1    2    0    0 -0.37022231072E+02  0.15603552502E+02  0.16416661443E+02  0.43400728302E+02  0.00000000000E+00 0. -1.
         11    1    3    3    0    0  0.41242230487E+01 -0.91456020264E+00 -0.90949196649E+01  0.10028120467E+02  0.51100000000E-03 0. -1.
        -11    1    3    3    0    0  0.46856158994E+01  0.24306097677E+00 -0.29465178814E+01  0.55404009676E+01  0.51100000000E-03 0.  1.
         12    1    3    3    0    0  0.28212392124E+02 -0.14932053277E+02 -0.43752238967E+01  0.32218750264E+02  0.00000000000E+00 0. -1.
</event>
<event>
 7    1  0.7357971E-011  0.4778727E+02  0.7816164E-02  0.1312668E+00
        -11   -1    0    0    0    0  0.00000000000E+00  0.00000000000E+00  0.45593999997E+02  0.45594000000E+02  0.51100000000E-03 0. -1.
         11   -1    0    0    0    0 -0.00000000000E+00 -0.00000000000E+00 -0.45593999997E+02  0.45594000000E+02  0.51100000000E-03 0.  1.
    9900012    2    1    2    0    0  0.17770804960E+02 -0.11628024219E+02  0.37849851325E+02  0.47787266118E+02  0.19999977539E+02 0.  0.
        -12    1    1    2    0    0 -0.17770804960E+02  0.11628024219E+02 -0.37849851325E+02  0.43400733882E+02  0.00000000000E+00 0.  1.
         11    1    3    3    0    0  0.41988526042E+01  0.28088051258E+01  0.22556104914E+01  0.55324071051E+01  0.51100000000E-03 0. -1.
        -11    1    3    3    0    0  0.80963192755E+01 -0.11343838620E+02  0.32249106472E+02  0.35131722545E+02  0.51100000000E-03 0.  1.
        -12    1    3    3    0    0  0.54756330799E+01 -0.30929907245E+01  0.33451343613E+01  0.71231364680E+01  0.00000000000E+00 0.  1.
</event>
<event>
 7    1  0.7357971E-011  0.4778731E+02  0.7816164E-02  0.1312668E+00
        -11   -1    0    0    0    0  0.00000000000E+00  0.00000000000E+00  0.45593999997E+02  0.45594000000E+02  0.51100000000E-03 0. -1.
         11   -1    0    0    0    0 -0.00000000000E+00 -0.00000000000E+00 -0.45593999997E+02  0.45594000000E+02  0.51100000000E-03 0.  1.
    9900012    2    1    2    0    0 -0.19468511929E+02 -0.68872626851E-01 -0.38789076181E+02  0.47787307251E+02  0.20000165079E+02 0.  0.
         12    1    1    2    0    0  0.19468511929E+02  0.68872626851E-01  0.38789076181E+02  0.43400692749E+02  0.00000000000E+00 0. -1.
         11    1    3    3    0    0  0.15377022190E+01 -0.12989468021E+01  0.96964143412E+00  0.22342774404E+01  0.51100000000E-03 0. -1.
        -11    1    3    3    0    0 -0.18851515555E+02  0.27174824336E+01 -0.37641559579E+02  0.42185914205E+02  0.51100000000E-03 0.  1.
        -12    1    3    3    0    0 -0.21546985929E+01 -0.14874082584E+01 -0.21171580361E+01  0.33671156059E+01  0.00000000000E+00 0.  1.
</event>
<event>
 7    1  0.7357971E-011  0.4778727E+02  0.7816164E-02  0.1312668E+00
        -11   -1    0    0    0    0  0.00000000000E+00  0.00000000000E+00  0.45593999997E+02  0.45594000000E+02  0.51100000000E-03 0. -1.
         11   -1    0    0    0    0 -0.00000000000E+00 -0.00000000000E+00 -0.45593999997E+02  0.45594000000E+02  0.51100000000E-03 0.  1.
    9900012    2    1    2    0    0 -0.23017701115E+02  0.32847821667E+02  0.16577980257E+02  0.47787269796E+02  0.19999994306E+02 0.  0.
        -12    1    1    2    0    0  0.23017701115E+02 -0.32847821667E+02 -0.16577980257E+02  0.43400730204E+02  0.00000000000E+00 0.  1.
         11    1    3    3    0    0  0.16063742612E+01  0.69684438111E+01  0.65902985217E+01  0.97247972875E+01  0.51100000000E-03 0. -1.
        -11    1    3    3    0    0 -0.19683436801E+02  0.22214177164E+02  0.49049784126E+01  0.30082655549E+02  0.51100000000E-03 0.  1.
         12    1    3    3    0    0 -0.49406385748E+01  0.36652006919E+01  0.50827033223E+01  0.79798169591E+01  0.00000000000E+00 0. -1.
</event>
<event>
 7    1  0.7357971E-011  0.4778727E+02  0.7816164E-02  0.1312668E+00
        -11   -1    0    0    0    0  0.00000000000E+00  0.00000000000E+00  0.45593999997E+02  0.45594000000E+02  0.51100000000E-03 0.  1.
         11   -1    0    0    0    0 -0.00000000000E+00 -0.00000000000E+00 -0.45593999997E+02  0.45594000000E+02  0.51100000000E-03 0. -1.
    9900012    2    1    2    0    0 -0.41774658522E+02 -0.91373896056E+00  0.11733128856E+02  0.47787270441E+02  0.19999997247E+02 0.  0.
        -12    1    1    2    0    0  0.41774658522E+02  0.91373896056E+00 -0.11733128856E+02  0.43400729559E+02  0.00000000000E+00 0.  1.
         11    1    3    3    0    0 -0.34160974898E+02 -0.21155204165E+01  0.82539750219E+01  0.35207609072E+02  0.51100000000E-03 0. -1.
        -11    1    3    3    0    0  0.54539328135E-01  0.37660999183E+01 -0.26959565483E-01  0.37665913254E+01  0.51100000000E-03 0.  1.
         12    1    3    3    0    0 -0.76682229523E+01 -0.25643184623E+01  0.35061133993E+01  0.88130700435E+01  0.00000000000E+00 0. -1.
</event>
<event>
 7    1  0.7357971E-011  0.4778727E+02  0.7816164E-02  0.1312668E+00
        -11   -1    0    0    0    0  0.00000000000E+00  0.00000000000E+00  0.45593999997E+02  0.45594000000E+02  0.51100000000E-03 0. -1.
         11   -1    0    0    0    0 -0.00000000000E+00 -0.00000000000E+00 -0.45593999997E+02  0.45594000000E+02  0.51100000000E-03 0.  1.
    9900012    2    1    2    0    0 -0.10015760985E+02 -0.76852634650E+01  0.41524020446E+02  0.47787274008E+02  0.20000013513E+02 0.  0.
        -12    1    1    2    0    0  0.10015760985E+02  0.76852634650E+01 -0.41524020446E+02  0.43400725992E+02  0.00000000000E+00 0.  1.
         11    1    3    3    0    0 -0.57927661881E+01  0.13473176960E+01  0.88474169219E+01  0.10660590581E+02  0.51100000000E-03 0. -1.
        -11    1    3    3    0    0  0.45748827402E+01 -0.73647855455E+01  0.16137181280E+02  0.18318794669E+02  0.51100000000E-03 0.  1.
        -12    1    3    3    0    0 -0.87978775367E+01 -0.16677956156E+01  0.16539422244E+02  0.18807888758E+02  0.00000000000E+00 0.  1.
</event>
<event>
 7    1  0.7357971E-011  0.4778728E+02  0.7816164E-02  0.1312668E+00
        -11   -1    0    0    0    0  0.00000000000E+00  0.00000000000E+00  0.45593999997E+02  0.45594000000E+02  0.51100000000E-03 0. -1.
         11   -1    0    0    0    0 -0.00000000000E+00 -0.00000000000E+00 -0.45593999997E+02  0.45594000000E+02  0.51100000000E-03 0.  1.
    9900012    2    1    2    0    0 -0.39183455459E+02  0.15115867978E+02  0.10944868656E+02  0.47787276545E+02  0.20000025081E+02 0.  0.
        -12    1    1    2    0    0  0.39183455459E+02 -0.15115867978E+02 -0.10944868656E+02  0.43400723455E+02  0.00000000000E+00 0.  1.
         11    1    3    3    0    0 -0.14240152943E+02  0.71929701601E+01 -0.40510218779E+01  0.16459998605E+02  0.51100000000E-03 0.  1.
        -11    1    3    3    0    0 -0.10829330588E+02  0.23575018298E+01  0.18168812313E+01  0.11230907066E+02  0.51100000000E-03 0. -1.
         12    1    3    3    0    0 -0.14113971929E+02  0.55653959885E+01  0.13179009303E+02  0.20096370875E+02  0.00000000000E+00 0. -1.
</event>
<event>
 7    1  0.7357971E-011  0.4778727E+02  0.7816164E-02  0.1312668E+00
        -11   -1    0    0    0    0  0.00000000000E+00  0.00000000000E+00  0.45593999997E+02  0.45594000000E+02  0.51100000000E-03 0. -1.
         11   -1    0    0    0    0 -0.00000000000E+00 -0.00000000000E+00 -0.45593999997E+02  0.45594000000E+02  0.51100000000E-03 0.  1.
    9900012    2    1    2    0    0 -0.25478446243E+02  0.20709074168E+02  0.28383204631E+02  0.47787270963E+02  0.19999999629E+02 0.  0.
        -12    1    1    2    0    0  0.25478446243E+02 -0.20709074168E+02 -0.28383204631E+02  0.43400729037E+02  0.00000000000E+00 0.  1.
         11    1    3    3    0    0 -0.70792887884E+01  0.75364969413E+01  0.19460068177E+02  0.22036546227E+02  0.51100000000E-03 0. -1.
        -11    1    3    3    0    0 -0.14896159793E+02  0.58200697807E+01  0.63821928721E+01  0.17219209475E+02  0.51100000000E-03 0.  1.
        -12    1    3    3    0    0 -0.35029976611E+01  0.73525074460E+01  0.25409435812E+01  0.85315152605E+01  0.00000000000E+00 0.  1.
</event>
<event>
 7    1  0.8307588E-011  0.4778727E+02  0.7816164E-02  0.1312668E+00
        -11   -1    0    0    0    0  0.00000000000E+00  0.00000000000E+00  0.45593999997E+02  0.45594000000E+02  0.51100000000E-03 0. -1.
         11   -1    0    0    0    0 -0.00000000000E+00 -0.00000000000E+00 -0.45593999997E+02  0.45594000000E+02  0.51100000000E-03 0.  1.
    9900012    2    1    2    0    0 -0.74466227974E+00 -0.12129243507E+02  0.41664737505E+02  0.47787269346E+02  0.19999992255E+02 0.  0.
        -12    1    1    2    0    0  0.74466227974E+00  0.12129243507E+02 -0.41664737505E+02  0.43400730654E+02  0.00000000000E+00 0.  1.
         11    1    3    3    0    0 -0.22670728354E+01 -0.78137171777E+01  0.38866070579E+02  0.39708503345E+02  0.51100000000E-03 0. -1.
        -11    1    3    3    0    0 -0.18838266976E+01 -0.16542896503E+00 -0.24532524379E+00  0.19069227843E+01  0.51100000000E-03 0.  1.
         12    1    3    3    0    0  0.34062372533E+01 -0.41500973647E+01  0.30439921698E+01  0.61718432167E+01  0.00000000000E+00 0. -1.
</event>
<event>
 7    1  0.7357971E-011  0.4778728E+02  0.7816164E-02  0.1312668E+00
        -11   -1    0    0    0    0  0.00000000000E+00  0.00000000000E+00  0.45593999997E+02  0.45594000000E+02  0.51100000000E-03 0. -1.
         11   -1    0    0    0    0 -0.00000000000E+00 -0.00000000000E+00 -0.45593999997E+02  0.45594000000E+02  0.51100000000E-03 0.  1.
    9900012    2    1    2    0    0 -0.20717674773E+02  0.32790530922E+02  0.19472594086E+02  0.47787275506E+02  0.20000020342E+02 0.  0.
        -12    1    1    2    0    0  0.20717674773E+02 -0.32790530922E+02 -0.19472594086E+02  0.43400724494E+02  0.00000000000E+00 0.  1.
         11    1    3    3    0    0 -0.13010298521E+02  0.20847365712E+02  0.59579366801E+01  0.25285915733E+02  0.51100000000E-03 0. -1.
        -11    1    3    3    0    0  0.28602268721E+00 -0.15128741932E+01  0.37503698427E+01  0.40541178473E+01  0.51100000000E-03 0.  1.
        -12    1    3    3    0    0 -0.79933989400E+01  0.13456039404E+02  0.97642875629E+01  0.18447241926E+02  0.00000000000E+00 0.  1.
</event>
<event>
 7    1  0.7357971E-011  0.4778727E+02  0.7816164E-02  0.1312668E+00
        -11   -1    0    0    0    0  0.00000000000E+00  0.00000000000E+00  0.45593999997E+02  0.45594000000E+02  0.51100000000E-03 0. -1.
         11   -1    0    0    0    0 -0.00000000000E+00 -0.00000000000E+00 -0.45593999997E+02  0.45594000000E+02  0.51100000000E-03 0.  1.
    9900012    2    1    2    0    0 -0.82273443201E+01  0.21563026431E+02  0.36755539948E+02  0.47787273965E+02  0.20000013318E+02 0.  0.
        -12    1    1    2    0    0  0.82273443201E+01 -0.21563026431E+02 -0.36755539948E+02  0.43400726035E+02  0.00000000000E+00 0.  1.
         11    1    3    3    0    0 -0.68897480025E+01  0.79431106091E+01  0.57453568784E+01  0.11982101636E+02  0.51100000000E-03 0. -1.
        -11    1    3    3    0    0  0.12463023034E+01  0.14903144237E+02  0.24854219400E+02  0.29006709566E+02  0.51100000000E-03 0.  1.
         12    1    3    3    0    0 -0.25838986211E+01 -0.12832284152E+01  0.61559636694E+01  0.67984627637E+01  0.00000000000E+00 0. -1.
</event>
<event>
 7    1  0.7357971E-011  0.4778727E+02  0.7816164E-02  0.1312668E+00
        -11   -1    0    0    0    0  0.00000000000E+00  0.00000000000E+00  0.45593999997E+02  0.45594000000E+02  0.51100000000E-03 0.  1.
         11   -1    0    0    0    0 -0.00000000000E+00 -0.00000000000E+00 -0.45593999997E+02  0.45594000000E+02  0.51100000000E-03 0. -1.
    9900012    2    1    2    0    0  0.41760876451E+02  0.87569624777E+01  0.79352460714E+01  0.47787270467E+02  0.19999997369E+02 0.  0.
        -12    1    1    2    0    0 -0.41760876451E+02 -0.87569624777E+01 -0.79352460714E+01  0.43400729533E+02  0.00000000000E+00 0.  1.
         11    1    3    3    0    0  0.17854673000E+02  0.21598476711E+01 -0.39559160084E+01  0.18414764772E+02  0.51100000000E-03 0.  1.
        -11    1    3    3    0    0  0.15845819969E+02  0.26669916388E+00  0.10544234886E+02  0.19035283778E+02  0.51100000000E-03 0. -1.
        -12    1    3    3    0    0  0.80603834822E+01  0.63304156428E+01  0.13469271935E+01  0.10337221917E+02  0.00000000000E+00 0.  1.
</event>
<event>
 7    1  0.7357971E-011  0.4778727E+02  0.7816164E-02  0.1312668E+00
        -11   -1    0    0    0    0  0.00000000000E+00  0.00000000000E+00  0.45593999997E+02  0.45594000000E+02  0.51100000000E-03 0.  1.
         11   -1    0    0    0    0 -0.00000000000E+00 -0.00000000000E+00 -0.45593999997E+02  0.45594000000E+02  0.51100000000E-03 0. -1.
    9900012    2    1    2    0    0  0.27207801263E+02  0.13078656536E+02 -0.31181846232E+02  0.47787271425E+02  0.20000001737E+02 0.  0.
         12    1    1    2    0    0 -0.27207801263E+02 -0.13078656536E+02  0.31181846232E+02  0.43400728575E+02  0.00000000000E+00 0. -1.
         11    1    3    3    0    0 -0.20352040212E+01  0.17696391801E+01 -0.28102316334E+01  0.38950071027E+01  0.51100000000E-03 0. -1.
        -11    1    3    3    0    0  0.16363341612E+02  0.11071431572E+02 -0.12211990539E+02  0.23226456014E+02  0.51100000000E-03 0.  1.
        -12    1    3    3    0    0  0.12879663672E+02  0.23758578351E+00 -0.16159624060E+02  0.20665808309E+02  0.00000000000E+00 0.  1.
</event>
<event>
 7    1  0.7357971E-011  0.4778727E+02  0.7816164E-02  0.1312668E+00
        -11   -1    0    0    0    0  0.00000000000E+00  0.00000000000E+00  0.45593999997E+02  0.45594000000E+02  0.51100000000E-03 0. -1.
         11   -1    0    0    0    0 -0.00000000000E+00 -0.00000000000E+00 -0.45593999997E+02  0.45594000000E+02  0.51100000000E-03 0.  1.
    9900012    2    1    2    0    0  0.90308883730E+01  0.31053706853E+01 -0.42337018166E+02  0.47787269832E+02  0.19999994474E+02 0.  0.
         12    1    1    2    0    0 -0.90308883730E+01 -0.31053706853E+01  0.42337018166E+02  0.43400730168E+02  0.00000000000E+00 0. -1.
         11    1    3    3    0    0 -0.48430320076E+01 -0.13776986836E+01 -0.55371863477E+01  0.74842130916E+01  0.51100000000E-03 0.  1.
        -11    1    3    3    0    0  0.13902155292E+02  0.55092225513E+01 -0.31062754832E+02  0.34474863203E+02  0.51100000000E-03 0. -1.
        -12    1    3    3    0    0 -0.28234911715E-01 -0.10261531824E+01 -0.57370769866E+01  0.58281935378E+01  0.00000000000E+00 0.  1.
</event>
<event>
 7    1  0.7357971E-011  0.4778727E+02  0.7816164E-02  0.1312668E+00
        -11   -1    0    0    0    0  0.00000000000E+00  0.00000000000E+00  0.45593999997E+02  0.45594000000E+02  0.51100000000E-03 0. -1.
         11   -1    0    0    0    0 -0.00000000000E+00 -0.00000000000E+00 -0.45593999997E+02  0.45594000000E+02  0.51100000000E-03 0.  1.
    9900012    2    1    2    0    0 -0.12229751973E+02  0.59689919191E+01  0.41211981717E+02  0.47787272645E+02  0.20000007299E+02 0.  0.
        -12    1    1    2    0    0  0.12229751973E+02 -0.59689919191E+01 -0.41211981717E+02  0.43400727355E+02  0.00000000000E+00 0.  1.
         11    1    3    3    0    0 -0.83420778983E+00  0.48936603558E+01  0.23660853113E+02  0.24176016724E+02  0.51100000000E-03 0. -1.
        -11    1    3    3    0    0 -0.99563595356E+01 -0.38384241563E+01  0.11638504031E+02  0.15789786938E+02  0.51100000000E-03 0.  1.
        -12    1    3    3    0    0 -0.14391846471E+01  0.49137557196E+01  0.59126245726E+01  0.78214689833E+01  0.00000000000E+00 0.  1.
</event>
<event>
 7    1  0.7357971E-011  0.4778732E+02  0.7816164E-02  0.1312668E+00
        -11   -1    0    0    0    0  0.00000000000E+00  0.00000000000E+00  0.45593999997E+02  0.45594000000E+02  0.51100000000E-03 0. -1.
         11   -1    0    0    0    0 -0.00000000000E+00 -0.00000000000E+00 -0.45593999997E+02  0.45594000000E+02  0.51100000000E-03 0.  1.
    9900012    2    1    2    0    0 -0.31398890887E+02  0.21340540271E+01  0.29886021715E+02  0.47787322247E+02  0.20000233451E+02 0.  0.
        -12    1    1    2    0    0  0.31398890887E+02 -0.21340540271E+01 -0.29886021715E+02  0.43400677753E+02  0.00000000000E+00 0.  1.
         11    1    3    3    0    0 -0.19684769373E+02  0.80395665277E+01  0.14402172527E+02  0.25681653938E+02  0.51100000000E-03 0. -1.
        -11    1    3    3    0    0 -0.41584275097E+01 -0.43100566476E+01  0.12437205534E+02  0.13804100456E+02  0.51100000000E-03 0.  1.
        -12    1    3    3    0    0 -0.75556940043E+01 -0.15954558530E+01  0.30466436537E+01  0.83015678530E+01  0.00000000000E+00 0.  1.
</event>
<event>
 7    1  0.7357971E-011  0.4778727E+02  0.7816164E-02  0.1312668E+00
        -11   -1    0    0    0    0  0.00000000000E+00  0.00000000000E+00  0.45593999997E+02  0.45594000000E+02  0.51100000000E-03 0. -1.
         11   -1    0    0    0    0 -0.00000000000E+00 -0.00000000000E+00 -0.45593999997E+02  0.45594000000E+02  0.51100000000E-03 0.  1.
    9900012    2    1    2    0    0  0.42497002206E+02 -0.21833872707E+01  0.85358541401E+01  0.47787272099E+02  0.20000004808E+02 0.  0.
        -12    1    1    2    0    0 -0.42497002206E+02  0.21833872707E+01 -0.85358541401E+01  0.43400727901E+02  0.00000000000E+00 0.  1.
         11    1    3    3    0    0  0.20114333301E+00 -0.47318338353E-01  0.16476815535E+01  0.16605879767E+01  0.51100000000E-03 0. -1.
        -11    1    3    3    0    0  0.30088367601E+02 -0.28270840411E+01  0.12461527655E+02  0.32689324570E+02  0.51100000000E-03 0.  1.
        -12    1    3    3    0    0  0.12207491272E+02  0.69101510877E+00 -0.55733550685E+01  0.13437359553E+02  0.00000000000E+00 0.  1.
</event>
<event>
 7    1  0.7357971E-011  0.4778727E+02  0.7816164E-02  0.1312668E+00
        -11   -1    0    0    0    0  0.00000000000E+00  0.00000000000E+00  0.45593999997E+02  0.45594000000E+02  0.51100000000E-03 0.  1.
         11   -1    0    0    0    0 -0.00000000000E+00 -0.00000000000E+00 -0.45593999997E+02  0.45594000000E+02  0.51100000000E-03 0. -1.
    9900012    2    1    2    0    0  0.14865956377E+02  0.40014687449E+02 -0.78391099631E+01  0.47787268259E+02  0.19999987299E+02 0.  0.
         12    1    1    2    0    0 -0.14865956377E+02 -0.40014687449E+02  0.78391099631E+01  0.43400731741E+02  0.00000000000E+00 0. -1.
         11    1    3    3    0    0 -0.28679588732E+01  0.60461019538E+01  0.21279843576E+01  0.70220263900E+01  0.51100000000E-03 0. -1.
        -11    1    3    3    0    0  0.14564956262E+02  0.21947945026E+02 -0.10416344172E+02  0.28325791568E+02  0.51100000000E-03 0.  1.
        -12    1    3    3    0    0  0.31689589888E+01  0.12020640469E+02  0.44924985084E+00  0.12439450301E+02  0.00000000000E+00 0.  1.
</event>
<event>
 7    1  0.8343091E-011  0.4778725E+02  0.7816164E-02  0.1312668E+00
        -11   -1    0    0    0    0  0.00000000000E+00  0.00000000000E+00  0.45593999997E+02  0.45594000000E+02  0.51100000000E-03 0. -1.
         11   -1    0    0    0    0 -0.00000000000E+00 -0.00000000000E+00 -0.45593999997E+02  0.45594000000E+02  0.51100000000E-03 0.  1.
    9900012    2    1    2    0    0  0.24760919858E+02  0.11701549553E+02 -0.33668916956E+02  0.47787246744E+02  0.19999889205E+02 0.  0.
         12    1    1    2    0    0 -0.24760919858E+02 -0.11701549553E+02  0.33668916956E+02  0.43400753256E+02  0.00000000000E+00 0. -1.
         11    1    3    3    0    0  0.20497941244E+01 -0.11997258547E+01 -0.23547128323E+00  0.23867226620E+01  0.51100000000E-03 0. -1.
        -11    1    3    3    0    0  0.22151117739E+02  0.99842984598E+01 -0.19501646910E+02  0.31155616913E+02  0.51100000000E-03 0.  1.
        -12    1    3    3    0    0  0.56000799534E+00  0.29169769484E+01 -0.13931798763E+02  0.14244907169E+02  0.00000000000E+00 0.  1.
</event>
<event>
 7    1  0.7357971E-011  0.4778727E+02  0.7816164E-02  0.1312668E+00
        -11   -1    0    0    0    0  0.00000000000E+00  0.00000000000E+00  0.45593999997E+02  0.45594000000E+02  0.51100000000E-03 0. -1.
         11   -1    0    0    0    0 -0.00000000000E+00 -0.00000000000E+00 -0.45593999997E+02  0.45594000000E+02  0.51100000000E-03 0.  1.
    9900012    2    1    2    0    0  0.39993517360E+02 -0.15106769078E+02  0.74784455775E+01  0.47787273612E+02  0.20000011705E+02 0.  0.
         12    1    1    2    0    0 -0.39993517360E+02  0.15106769078E+02 -0.74784455775E+01  0.43400726388E+02  0.00000000000E+00 0. -1.
         11    1    3    3    0    0  0.32844380044E+01  0.98286715937E+00  0.36056022135E+01  0.49753319930E+01  0.51100000000E-03 0. -1.
        -11    1    3    3    0    0  0.12927834178E+02  0.12958840790E+01 -0.64691986011E+00  0.13008716987E+02  0.51100000000E-03 0.  1.
        -12    1    3    3    0    0  0.23781245177E+02 -0.17385520316E+02  0.45197632241E+01  0.29803224632E+02  0.00000000000E+00 0.  1.
</event>
<event>
 7    1  0.7357971E-011  0.4778727E+02  0.7816164E-02  0.1312668E+00
        -11   -1    0    0    0    0  0.00000000000E+00  0.00000000000E+00  0.45593999997E+02  0.45594000000E+02  0.51100000000E-03 0. -1.
         11   -1    0    0    0    0 -0.00000000000E+00 -0.00000000000E+00 -0.45593999997E+02  0.45594000000E+02  0.51100000000E-03 0.  1.
    9900012    2    1    2    0    0  0.39728266194E+02  0.11443791602E+02 -0.13203321392E+02  0.47787271933E+02  0.20000004051E+02 0.  0.
         12    1    1    2    0    0 -0.39728266194E+02 -0.11443791602E+02  0.13203321392E+02  0.43400728067E+02  0.00000000000E+00 0. -1.
         11    1    3    3    0    0  0.18507904403E+02 -0.26590298396E+00 -0.29614629413E+00  0.18512183358E+02  0.51100000000E-03 0. -1.
        -11    1    3    3    0    0  0.15911194113E+01 -0.14653828416E+01 -0.28647549392E+01  0.35896836875E+01  0.51100000000E-03 0.  1.
         12    1    3    3    0    0  0.19629242379E+02  0.13175077428E+02 -0.10042420158E+02  0.25685404888E+02  0.00000000000E+00 0. -1.
</event>
<event>
 7    1  0.7357971E-011  0.4778729E+02  0.7816164E-02  0.1312668E+00
        -11   -1    0    0    0    0  0.00000000000E+00  0.00000000000E+00  0.45593999997E+02  0.45594000000E+02  0.51100000000E-03 0. -1.
         11   -1    0    0    0    0 -0.00000000000E+00 -0.00000000000E+00 -0.45593999997E+02  0.45594000000E+02  0.51100000000E-03 0.  1.
    9900012    2    1    2    0    0  0.17960583997E+02 -0.36531995727E+01 -0.39340736672E+02  0.47787285645E+02  0.20000066571E+02 0.  0.
         12    1    1    2    0    0 -0.17960583997E+02  0.36531995727E+01  0.39340736672E+02  0.43400714355E+02  0.00000000000E+00 0. -1.
         11    1    3    3    0    0  0.18799116965E+01  0.41526353936E+01 -0.75765044080E+01  0.88420511198E+01  0.51100000000E-03 0. -1.
        -11    1    3    3    0    0  0.16874876852E+02 -0.82188821056E+01 -0.32665959588E+02  0.37674612246E+02  0.51100000000E-03 0.  1.
        -12    1    3    3    0    0 -0.79420455175E+00  0.41304713926E+00  0.90172732439E+00  0.12706222794E+01  0.00000000000E+00 0.  1.
</event>
<event>
 7    1  0.7357971E-011  0.4778727E+02  0.7816164E-02  0.1312668E+00
        -11   -1    0    0    0    0  0.00000000000E+00  0.00000000000E+00  0.45593999997E+02  0.45594000000E+02  0.51100000000E-03 0. -1.
         11   -1    0    0    0    0 -0.00000000000E+00 -0.00000000000E+00 -0.45593999997E+02  0.45594000000E+02  0.51100000000E-03 0.  1.
    9900012    2    1    2    0    0 -0.52109702044E+01  0.12157049380E+02 -0.41336122454E+02  0.47787273282E+02  0.20000010201E+02 0.  0.
         12    1    1    2    0    0  0.52109702044E+01 -0.12157049380E+02  0.41336122454E+02  0.43400726718E+02  0.00000000000E+00 0. -1.
         11    1    3    3    0    0 -0.17054050651E+01  0.68296424980E+01 -0.27987355765E+01  0.75753114903E+01  0.51100000000E-03 0. -1.
        -11    1    3    3    0    0 -0.10440304609E+01  0.39194710240E+01 -0.45062549055E+01  0.60628859668E+01  0.51100000000E-03 0.  1.
         12    1    3    3    0    0 -0.24615346783E+01  0.14079358580E+01 -0.34031131972E+02  0.34149075825E+02  0.00000000000E+00 0. -1.
</event>
<event>
 7    1  0.7357971E-011  0.4778727E+02  0.7816164E-02  0.1312668E+00
        -11   -1    0    0    0    0  0.00000000000E+00  0.00000000000E+00  0.45593999997E+02  0.45594000000E+02  0.51100000000E-03 0. -1.
         11   -1    0    0    0    0 -0.00000000000E+00 -0.00000000000E+00 -0.45593999997E+02  0.45594000000E+02  0.51100000000E-03 0.  1.
    9900012    2    1    2    0    0  0.26896187761E+02 -0.14419649465E+02  0.30859230733E+02  0.47787270418E+02  0.19999997145E+02 0.  0.
        -12    1    1    2    0    0 -0.26896187761E+02  0.14419649465E+02 -0.30859230733E+02  0.43400729582E+02  0.00000000000E+00 0.  1.
         11    1    3    3    0    0  0.40084337815E+01 -0.11508343593E+02  0.12608597617E+02  0.17535285791E+02  0.51100000000E-03 0. -1.
        -11    1    3    3    0    0  0.11217370165E+02  0.16875485823E+01  0.65535096817E+01  0.13100599339E+02  0.51100000000E-03 0.  1.
         12    1    3    3    0    0  0.11670383815E+02 -0.45988544548E+01  0.11697123435E+02  0.17151385289E+02  0.00000000000E+00 0. -1.
</event>
<event>
 7    1  0.7357971E-011  0.4778727E+02  0.7816164E-02  0.1312668E+00
        -11   -1    0    0    0    0  0.00000000000E+00  0.00000000000E+00  0.45593999997E+02  0.45594000000E+02  0.51100000000E-03 0.  1.
         11   -1    0    0    0    0 -0.00000000000E+00 -0.00000000000E+00 -0.45593999997E+02  0.45594000000E+02  0.51100000000E-03 0. -1.
    9900012    2    1    2    0    0  0.39594022807E+02 -0.17589282861E+02 -0.25601146371E+01  0.47787266129E+02  0.19999977587E+02 0.  0.
         12    1    1    2    0    0 -0.39594022807E+02  0.17589282861E+02  0.25601146371E+01  0.43400733871E+02  0.00000000000E+00 0. -1.
         11    1    3    3    0    0  0.27333365513E+02 -0.14118173373E+02 -0.75995524795E+01  0.31688939518E+02  0.51100000000E-03 0. -1.
        -11    1    3    3    0    0  0.86741552678E+01  0.48589838294E+00 -0.97446537546E-01  0.86883003480E+01  0.51100000000E-03 0.  1.
         12    1    3    3    0    0  0.35865020265E+01 -0.39570078718E+01  0.51368843799E+01  0.74100262628E+01  0.00000000000E+00 0. -1.
</event>
<event>
 7    1  0.7357971E-011  0.4778727E+02  0.7816164E-02  0.1312668E+00
        -11   -1    0    0    0    0  0.00000000000E+00  0.00000000000E+00  0.45593999997E+02  0.45594000000E+02  0.51100000000E-03 0. -1.
         11   -1    0    0    0    0 -0.00000000000E+00 -0.00000000000E+00 -0.45593999997E+02  0.45594000000E+02  0.51100000000E-03 0.  1.
    9900012    2    1    2    0    0  0.28964326197E+02 -0.65212370584E+01  0.31656981791E+02  0.47787271654E+02  0.20000002778E+02 0.  0.
        -12    1    1    2    0    0 -0.28964326197E+02  0.65212370584E+01 -0.31656981791E+02  0.43400728346E+02  0.00000000000E+00 0.  1.
         11    1    3    3    0    0  0.21543901406E+02 -0.93237245113E+01  0.20484411893E+02  0.31155780481E+02  0.51100000000E-03 0. -1.
        -11    1    3    3    0    0  0.37927454570E+01  0.60506604360E+01  0.84108110891E+01  0.11033456088E+02  0.51100000000E-03 0.  1.
        -12    1    3    3    0    0  0.36276793342E+01 -0.32481729831E+01  0.27617588097E+01  0.55980350841E+01  0.00000000000E+00 0.  1.
</event>
<event>
 7    1  0.7357971E-011  0.4778726E+02  0.7816164E-02  0.1312668E+00
        -11   -1    0    0    0    0  0.00000000000E+00  0.00000000000E+00  0.45593999997E+02  0.45594000000E+02  0.51100000000E-03 0. -1.
         11   -1    0    0    0    0 -0.00000000000E+00 -0.00000000000E+00 -0.45593999997E+02  0.45594000000E+02  0.51100000000E-03 0.  1.
    9900012    2    1    2    0    0  0.33294106640E+02  0.88828982946E+01  0.26385990944E+02  0.47787263403E+02  0.19999965159E+02 0.  0.
        -12    1    1    2    0    0 -0.33294106640E+02 -0.88828982946E+01 -0.26385990944E+02  0.43400736597E+02  0.00000000000E+00 0.  1.
         11    1    3    3    0    0  0.30329242215E+01  0.16301819845E+01  0.35555725850E+01  0.49495675876E+01  0.51100000000E-03 0.  1.
        -11    1    3    3    0    0  0.21580949229E+02  0.12165674519E+02  0.10318674113E+02  0.26836841129E+02  0.51100000000E-03 0. -1.
        -12    1    3    3    0    0  0.86802331899E+01 -0.49129582085E+01  0.12511744246E+02  0.16000854686E+02  0.00000000000E+00 0.  1.
</event>
<event>
 7    1  0.7357971E-011  0.4778727E+02  0.7816164E-02  0.1312668E+00
        -11   -1    0    0    0    0  0.00000000000E+00  0.00000000000E+00  0.45593999997E+02  0.45594000000E+02  0.51100000000E-03 0. -1.
         11   -1    0    0    0    0 -0.00000000000E+00 -0.00000000000E+00 -0.45593999997E+02  0.45594000000E+02  0.51100000000E-03 0.  1.
    9900012    2    1    2    0    0 -0.18701090738E+02 -0.23576856633E+01 -0.39093915477E+02  0.47787266091E+02  0.19999977415E+02 0.  0.
         12    1    1    2    0    0  0.18701090738E+02  0.23576856633E+01  0.39093915477E+02  0.43400733909E+02  0.00000000000E+00 0. -1.
         11    1    3    3    0    0 -0.46500539262E+01  0.23191896520E+01 -0.50684316356E+01  0.72588319766E+01  0.51100000000E-03 0. -1.
        -11    1    3    3    0    0 -0.12621196540E+02  0.33861501841E+01 -0.25806242247E+02  0.28926160380E+02  0.51100000000E-03 0.  1.
        -12    1    3    3    0    0 -0.14298402722E+01 -0.80630254993E+01 -0.82192415947E+01  0.11602273734E+02  0.00000000000E+00 0.  1.
</event>
<event>
 7    1  0.7357971E-011  0.4778727E+02  0.7816164E-02  0.1312668E+00
        -11   -1    0    0    0    0  0.00000000000E+00  0.00000000000E+00  0.45593999997E+02  0.45594000000E+02  0.51100000000E-03 0. -1.
         11   -1    0    0    0    0 -0.00000000000E+00 -0.00000000000E+00 -0.45593999997E+02  0.45594000000E+02  0.51100000000E-03 0.  1.
    9900012    2    1    2    0    0 -0.26494435409E+02  0.12944557051E+02 -0.31845038027E+02  0.47787272912E+02  0.20000008513E+02 0.  0.
         12    1    1    2    0    0  0.26494435409E+02 -0.12944557051E+02  0.31845038027E+02  0.43400727088E+02  0.00000000000E+00 0. -1.
         11    1    3    3    0    0 -0.13930532569E+02  0.12779286531E+02 -0.10854312036E+02  0.21798761248E+02  0.51100000000E-03 0. -1.
        -11    1    3    3    0    0 -0.39266089625E+01  0.35157691186E+01 -0.39293074760E+01  0.65740663171E+01  0.51100000000E-03 0.  1.
         12    1    3    3    0    0 -0.86372938771E+01 -0.33504985988E+01 -0.17061418515E+02  0.19414445347E+02  0.00000000000E+00 0. -1.
</event>
<event>
 7    1  0.7357971E-011  0.4778730E+02  0.7816164E-02  0.1312668E+00
        -11   -1    0    0    0    0  0.00000000000E+00  0.00000000000E+00  0.45593999997E+02  0.45594000000E+02  0.51100000000E-03 0. -1.
         11   -1    0    0    0    0 -0.00000000000E+00 -0.00000000000E+00 -0.45593999997E+02  0.45594000000E+02  0.51100000000E-03 0.  1.
    9900012    2    1    2    0    0  0.10984035373E+02 -0.28193162147E+01 -0.41892999604E+02  0.47787297323E+02  0.20000119815E+02 0.  0.
         12    1    1    2    0    0 -0.10984035373E+02  0.28193162147E+01  0.41892999604E+02  0.43400702677E+02  0.00000000000E+00 0. -1.
         11    1    3    3    0    0 -0.29944017420E+01 -0.36044131274E+01 -0.18765207081E+02  0.19341438231E+02  0.51100000000E-03 0. -1.
        -11    1    3    3    0    0  0.49739933968E+01  0.45418983728E+01 -0.81902206485E+01  0.10604205094E+02  0.51100000000E-03 0.  1.
         12    1    3    3    0    0  0.90044437183E+01 -0.37568014601E+01 -0.14937571875E+02  0.17841653999E+02  0.00000000000E+00 0. -1.
</event>
<event>
 7    1  0.7357971E-011  0.4778727E+02  0.7816164E-02  0.1312668E+00
        -11   -1    0    0    0    0  0.00000000000E+00  0.00000000000E+00  0.45593999997E+02  0.45594000000E+02  0.51100000000E-03 0. -1.
         11   -1    0    0    0    0 -0.00000000000E+00 -0.00000000000E+00 -0.45593999997E+02  0.45594000000E+02  0.51100000000E-03 0.  1.
    9900012    2    1    2    0    0  0.22767754154E+02 -0.29632068605E+02 -0.22072452591E+02  0.47787270946E+02  0.19999999550E+02 0.  0.
         12    1    1    2    0    0 -0.22767754154E+02  0.29632068605E+02  0.22072452591E+02  0.43400729054E+02  0.00000000000E+00 0. -1.
         11    1    3    3    0    0  0.22255335872E+01  0.24091718511E+01 -0.45947666371E+01  0.56452625684E+01  0.51100000000E-03 0.  1.
        -11    1    3    3    0    0  0.12570281756E+02 -0.22858904228E+02 -0.10490550308E+02  0.28117488010E+02  0.51100000000E-03 0. -1.
        -12    1    3    3    0    0  0.79719388105E+01 -0.91823362279E+01 -0.69871356467E+01  0.14024520368E+02  0.00000000000E+00 0.  1.
</event>
<event>
 7    1  0.7357971E-011  0.4778729E+02  0.7816164E-02  0.1312668E+00
        -11   -1    0    0    0    0  0.00000000000E+00  0.00000000000E+00  0.45593999997E+02  0.45594000000E+02  0.51100000000E-03 0. -1.
         11   -1    0    0    0    0 -0.00000000000E+00 -0.00000000000E+00 -0.45593999997E+02  0.45594000000E+02  0.51100000000E-03 0.  1.
    9900012    2    1    2    0    0 -0.62795696231E+01  0.27129115319E+01 -0.42858235836E+02  0.47787294216E+02  0.20000105647E+02 0.  0.
         12    1    1    2    0    0  0.62795696231E+01 -0.27129115319E+01  0.42858235836E+02  0.43400705784E+02  0.00000000000E+00 0. -1.
         11    1    3    3    0    0  0.34833052405E+00 -0.44992236159E+01 -0.21686072245E+02  0.22150622496E+02  0.51100000000E-03 0. -1.
        -11    1    3    3    0    0 -0.86333549581E+01  0.52108261071E+01 -0.10351871492E+02  0.14451600956E+02  0.51100000000E-03 0.  1.
        -12    1    3    3    0    0  0.20054548109E+01  0.20013090407E+01 -0.10820292099E+02  0.11185070763E+02  0.00000000000E+00 0.  1.
</event>
<event>
 7    1  0.7357971E-011  0.4778727E+02  0.7816164E-02  0.1312668E+00
        -11   -1    0    0    0    0  0.00000000000E+00  0.00000000000E+00  0.45593999997E+02  0.45594000000E+02  0.51100000000E-03 0. -1.
         11   -1    0    0    0    0 -0.00000000000E+00 -0.00000000000E+00 -0.45593999997E+02  0.45594000000E+02  0.51100000000E-03 0.  1.
    9900012    2    1    2    0    0 -0.13174074661E+02 -0.26675047289E+02  0.31599195119E+02  0.47787268172E+02  0.19999986902E+02 0.  0.
        -12    1    1    2    0    0  0.13174074661E+02  0.26675047289E+02 -0.31599195119E+02  0.43400731828E+02  0.00000000000E+00 0.  1.
         11    1    3    3    0    0 -0.91278990155E+01 -0.51756650833E+01  0.80888498099E+01  0.13248982640E+02  0.51100000000E-03 0. -1.
        -11    1    3    3    0    0 -0.59514879086E+01 -0.21722704140E+02  0.23593359922E+02  0.32618134774E+02  0.51100000000E-03 0.  1.
        -12    1    3    3    0    0  0.19053122631E+01  0.22332193362E+00 -0.83014612734E-01  0.19201507576E+01  0.00000000000E+00 0.  1.
</event>
<event>
 7    1  0.7357971E-011  0.4778727E+02  0.7816164E-02  0.1312668E+00
        -11   -1    0    0    0    0  0.00000000000E+00  0.00000000000E+00  0.45593999997E+02  0.45594000000E+02  0.51100000000E-03 0. -1.
         11   -1    0    0    0    0 -0.00000000000E+00 -0.00000000000E+00 -0.45593999997E+02  0.45594000000E+02  0.51100000000E-03 0.  1.
    9900012    2    1    2    0    0 -0.15358624756E+02  0.26975224615E+02  0.30332705710E+02  0.47787272667E+02  0.20000007396E+02 0.  0.
        -12    1    1    2    0    0  0.15358624756E+02 -0.26975224615E+02 -0.30332705710E+02  0.43400727333E+02  0.00000000000E+00 0.  1.
         11    1    3    3    0    0 -0.51844221579E+01  0.20508212754E+02  0.20434546247E+02  0.29411489320E+02  0.51100000000E-03 0. -1.
        -11    1    3    3    0    0  0.13423104725E+01  0.20637355160E+01  0.40264380167E+01  0.47194284663E+01  0.51100000000E-03 0.  1.
         12    1    3    3    0    0 -0.11516513070E+02  0.44032763450E+01  0.58717214460E+01  0.13656354880E+02  0.00000000000E+00 0. -1.
</event>
<event>
 7    1  0.7357971E-011  0.4778727E+02  0.7816164E-02  0.1312668E+00
        -11   -1    0    0    0    0  0.00000000000E+00  0.00000000000E+00  0.45593999997E+02  0.45594000000E+02  0.51100000000E-03 0. -1.
         11   -1    0    0    0    0 -0.00000000000E+00 -0.00000000000E+00 -0.45593999997E+02  0.45594000000E+02  0.51100000000E-03 0.  1.
    9900012    2    1    2    0    0  0.89181309358E+01  0.35594442629E+02  0.23175974587E+02  0.47787271855E+02  0.20000003698E+02 0.  0.
        -12    1    1    2    0    0 -0.89181309358E+01 -0.35594442629E+02 -0.23175974587E+02  0.43400728145E+02  0.00000000000E+00 0.  1.
         11    1    3    3    0    0 -0.17009373455E+01  0.78300108252E+01  0.11846993368E+02  0.14302220439E+02  0.51100000000E-03 0. -1.
        -11    1    3    3    0    0  0.97346042324E+01  0.26367164251E+02  0.71663474349E+01  0.29005971903E+02  0.51100000000E-03 0.  1.
        -12    1    3    3    0    0  0.88446404888E+00  0.13972675523E+01  0.41626337843E+01  0.44790795136E+01  0.00000000000E+00 0.  1.
</event>
<event>
 7    1  0.7357971E-011  0.4778727E+02  0.7816164E-02  0.1312668E+00
        -11   -1    0    0    0    0  0.00000000000E+00  0.00000000000E+00  0.45593999997E+02  0.45594000000E+02  0.51100000000E-03 0.  1.
         11   -1    0    0    0    0 -0.00000000000E+00 -0.00000000000E+00 -0.45593999997E+02  0.45594000000E+02  0.51100000000E-03 0. -1.
    9900012    2    1    2    0    0 -0.16064414726E+02  0.22052385581E+02 -0.33752781749E+02  0.47787269521E+02  0.19999993055E+02 0.  0.
         12    1    1    2    0    0  0.16064414726E+02 -0.22052385581E+02  0.33752781749E+02  0.43400730479E+02  0.00000000000E+00 0. -1.
         11    1    3    3    0    0 -0.19346959447E+01 -0.21341487256E+01 -0.94629163854E+01  0.98916341400E+01  0.51100000000E-03 0. -1.
        -11    1    3    3    0    0 -0.14134891667E+02  0.20906522144E+02 -0.18681978325E+02  0.31398951336E+02  0.51100000000E-03 0.  1.
        -12    1    3    3    0    0  0.51728861216E-02  0.32800121630E+01 -0.56078870386E+01  0.64966840454E+01  0.00000000000E+00 0.  1.
</event>
<event>
 7    1  0.7357971E-011  0.4778727E+02  0.7816164E-02  0.1312668E+00
        -11   -1    0    0    0    0  0.00000000000E+00  0.00000000000E+00  0.45593999997E+02  0.45594000000E+02  0.51100000000E-03 0. -1.
         11   -1    0    0    0    0 -0.00000000000E+00 -0.00000000000E+00 -0.45593999997E+02  0.45594000000E+02  0.51100000000E-03 0.  1.
    9900012    2    1    2    0    0 -0.31021603565E+02 -0.27008625614E+02 -0.13849811479E+02  0.47787273931E+02  0.20000013163E+02 0.  0.
         12    1    1    2    0    0  0.31021603565E+02  0.27008625614E+02  0.13849811479E+02  0.43400726069E+02  0.00000000000E+00 0. -1.
         11    1    3    3    0    0 -0.25885195301E+02 -0.21225461427E+02 -0.13130593487E+02  0.35957975946E+02  0.51100000000E-03 0. -1.
        -11    1    3    3    0    0 -0.11086227406E+01 -0.46197733262E+00 -0.41536048915E+01  0.43237600873E+01  0.51100000000E-03 0.  1.
         12    1    3    3    0    0 -0.40277855235E+01 -0.53211868541E+01  0.34343869001E+01  0.75055378980E+01  0.00000000000E+00 0. -1.
</event>
<event>
 7    1  0.7357971E-011  0.4778731E+02  0.7816164E-02  0.1312668E+00
        -11   -1    0    0    0    0  0.00000000000E+00  0.00000000000E+00  0.45593999997E+02  0.45594000000E+02  0.51100000000E-03 0. -1.
         11   -1    0    0    0    0 -0.00000000000E+00 -0.00000000000E+00 -0.45593999997E+02  0.45594000000E+02  0.51100000000E-03 0.  1.
    9900012    2    1    2    0    0  0.23191514652E+01 -0.28239904404E+02 -0.32874750717E+02  0.47787309925E+02  0.20000177272E+02 0.  0.
         12    1    1    2    0    0 -0.23191514652E+01  0.28239904404E+02  0.32874750717E+02  0.43400690075E+02  0.00000000000E+00 0. -1.
         11    1    3    3    0    0  0.35445712336E-01  0.11036021991E+01 -0.36999229381E+01  0.38611687637E+01  0.51100000000E-03 0. -1.
        -11    1    3    3    0    0  0.21686081522E+01 -0.26658370463E+02 -0.17539528574E+02  0.31984474983E+02  0.51100000000E-03 0.  1.
        -12    1    3    3    0    0  0.11509760062E+00 -0.26851361406E+01 -0.11635299204E+02  0.11941666179E+02  0.00000000000E+00 0.  1.
</event>
<event>
 7    1  0.7357971E-011  0.4778727E+02  0.7816164E-02  0.1312668E+00
        -11   -1    0    0    0    0  0.00000000000E+00  0.00000000000E+00  0.45593999997E+02  0.45594000000E+02  0.51100000000E-03 0. -1.
         11   -1    0    0    0    0 -0.00000000000E+00 -0.00000000000E+00 -0.45593999997E+02  0.45594000000E+02  0.51100000000E-03 0.  1.
    9900012    2    1    2    0    0 -0.27195196495E+02  0.28286630254E+02 -0.18544840233E+02  0.47787271172E+02  0.20000000582E+02 0.  0.
         12    1    1    2    0    0  0.27195196495E+02 -0.28286630254E+02  0.18544840233E+02  0.43400728828E+02  0.00000000000E+00 0. -1.
         11    1    3    3    0    0  0.21908685378E+01  0.49987003264E+01 -0.11851165944E+01  0.55849271711E+01  0.51100000000E-03 0. -1.
        -11    1    3    3    0    0 -0.21422816653E+02  0.14600847686E+02 -0.15680798017E+02  0.30298667516E+02  0.51100000000E-03 0.  1.
        -12    1    3    3    0    0 -0.79632483795E+01  0.86870822415E+01 -0.16789256219E+01  0.11903676485E+02  0.00000000000E+00 0.  1.
</event>
<event>
 7    1  0.7357971E-011  0.4778727E+02  0.7816164E-02  0.1312668E+00
        -11   -1    0    0    0    0  0.00000000000E+00  0.00000000000E+00  0.45593999997E+02  0.45594000000E+02  0.51100000000E-03 0. -1.
         11   -1    0    0    0    0 -0.00000000000E+00 -0.00000000000E+00 -0.45593999997E+02  0.45594000000E+02  0.51100000000E-03 0.  1.
    9900012    2    1    2    0    0 -0.32341522540E+02  0.14628544230E+02 -0.24973085098E+02  0.47787269985E+02  0.19999995171E+02 0.  0.
         12    1    1    2    0    0  0.32341522540E+02 -0.14628544230E+02  0.24973085098E+02  0.43400730015E+02  0.00000000000E+00 0. -1.
         11    1    3    3    0    0 -0.25845394723E+02  0.17011634608E+02 -0.14153150464E+02  0.34024870445E+02  0.51100000000E-03 0. -1.
        -11    1    3    3    0    0 -0.61008600506E+01 -0.36730311047E+01 -0.95214949598E+01  0.11889933447E+02  0.51100000000E-03 0.  1.
        -12    1    3    3    0    0 -0.39526776637E+00  0.12899407266E+01 -0.12984396735E+01  0.18724660934E+01  0.00000000000E+00 0.  1.
</event>
<event>
 7    1  0.7357971E-011  0.4778727E+02  0.7816164E-02  0.1312668E+00
        -11   -1    0    0    0    0  0.00000000000E+00  0.00000000000E+00  0.45593999997E+02  0.45594000000E+02  0.51100000000E-03 0. -1.
         11   -1    0    0    0    0 -0.00000000000E+00 -0.00000000000E+00 -0.45593999997E+02  0.45594000000E+02  0.51100000000E-03 0.  1.
    9900012    2    1    2    0    0  0.17976935129E+02 -0.29391081184E+02  0.26393508006E+02  0.47787272878E+02  0.20000008362E+02 0.  0.
        -12    1    1    2    0    0 -0.17976935129E+02  0.29391081184E+02 -0.26393508006E+02  0.43400727122E+02  0.00000000000E+00 0.  1.
         11    1    3    3    0    0  0.13088836114E+01 -0.42506611921E+00 -0.21676808918E+01  0.25676250162E+01  0.51100000000E-03 0. -1.
        -11    1    3    3    0    0  0.50251104724E+01 -0.16826957437E+01  0.55793494550E+01  0.76949555442E+01  0.51100000000E-03 0.  1.
         12    1    3    3    0    0  0.11642941046E+02 -0.27283319321E+02  0.22981839443E+02  0.37524692318E+02  0.00000000000E+00 0. -1.
</event>
<event>
 7    1  0.7357971E-011  0.4778727E+02  0.7816164E-02  0.1312668E+00
        -11   -1    0    0    0    0  0.00000000000E+00  0.00000000000E+00  0.45593999997E+02  0.45594000000E+02  0.51100000000E-03 0. -1.
         11   -1    0    0    0    0 -0.00000000000E+00 -0.00000000000E+00 -0.45593999997E+02  0.45594000000E+02  0.51100000000E-03 0.  1.
    9900012    2    1    2    0    0  0.16368122824E+02  0.12823065672E+02 -0.38095622978E+02  0.47787274798E+02  0.20000017113E+02 0.  0.
         12    1    1    2    0    0 -0.16368122824E+02 -0.12823065672E+02  0.38095622978E+02  0.43400725202E+02  0.00000000000E+00 0. -1.
         11    1    3    3    0    0 -0.49515532310E+00 -0.25525311909E+01 -0.19359829378E+00  0.26073118024E+01  0.51100000000E-03 0. -1.
        -11    1    3    3    0    0  0.12447288385E+02  0.11083087955E+02 -0.18869819439E+02  0.25176177483E+02  0.51100000000E-03 0.  1.
         12    1    3    3    0    0  0.44159897623E+01  0.42925089073E+01 -0.19032205245E+02  0.20003785512E+02  0.00000000000E+00 0. -1.
</event>
<event>
 7    1  0.7357971E-011  0.4778727E+02  0.7816164E-02  0.1312668E+00
        -11   -1    0    0    0    0  0.00000000000E+00  0.00000000000E+00  0.45593999997E+02  0.45594000000E+02  0.51100000000E-03 0. -1.
         11   -1    0    0    0    0 -0.00000000000E+00 -0.00000000000E+00 -0.45593999997E+02  0.45594000000E+02  0.51100000000E-03 0.  1.
    9900012    2    1    2    0    0  0.18256250353E+02 -0.14366147141E+02 -0.36659875275E+02  0.47787270561E+02  0.19999997797E+02 0.  0.
         12    1    1    2    0    0 -0.18256250353E+02  0.14366147141E+02  0.36659875275E+02  0.43400729439E+02  0.00000000000E+00 0. -1.
         11    1    3    3    0    0  0.13621328787E+02 -0.12326224524E+02 -0.18660763901E+02  0.26185883956E+02  0.51100000000E-03 0.  1.
        -11    1    3    3    0    0  0.52868035779E+01  0.33778815499E+01 -0.11630184928E+02  0.13214445791E+02  0.51100000000E-03 0. -1.
         12    1    3    3    0    0 -0.65188201135E+00 -0.54178041669E+01 -0.63689264461E+01  0.83869408144E+01  0.00000000000E+00 0. -1.
</event>
<event>
 7    1  0.7357971E-011  0.4778727E+02  0.7816164E-02  0.1312668E+00
        -11   -1    0    0    0    0  0.00000000000E+00  0.00000000000E+00  0.45593999997E+02  0.45594000000E+02  0.51100000000E-03 0. -1.
         11   -1    0    0    0    0 -0.00000000000E+00 -0.00000000000E+00 -0.45593999997E+02  0.45594000000E+02  0.51100000000E-03 0.  1.
    9900012    2    1    2    0    0 -0.20119510395E+01  0.22402783947E+02 -0.37117250256E+02  0.47787274866E+02  0.20000017426E+02 0.  0.
         12    1    1    2    0    0  0.20119510395E+01 -0.22402783947E+02  0.37117250256E+02  0.43400725134E+02  0.00000000000E+00 0. -1.
         11    1    3    3    0    0  0.63463148359E+01  0.98398783159E+01 -0.18824097853E+02  0.22168571842E+02  0.51100000000E-03 0. -1.
        -11    1    3    3    0    0 -0.58219954094E+01  0.35311681080E+01 -0.13417137734E+02  0.15046074703E+02  0.51100000000E-03 0.  1.
         12    1    3    3    0    0 -0.25362704660E+01  0.90317375229E+01 -0.48760146695E+01  0.10572628321E+02  0.00000000000E+00 0. -1.
</event>
<event>
 7    1  0.7357971E-011  0.4778727E+02  0.7816164E-02  0.1312668E+00
        -11   -1    0    0    0    0  0.00000000000E+00  0.00000000000E+00  0.45593999997E+02  0.45594000000E+02  0.51100000000E-03 0.  1.
         11   -1    0    0    0    0 -0.00000000000E+00 -0.00000000000E+00 -0.45593999997E+02  0.45594000000E+02  0.51100000000E-03 0. -1.
    9900012    2    1    2    0    0  0.13899316786E+02  0.40492526431E+02  0.71265657768E+01  0.47787266784E+02  0.19999980576E+02 0.  0.
         12    1    1    2    0    0 -0.13899316786E+02 -0.40492526431E+02 -0.71265657768E+01  0.43400733216E+02  0.00000000000E+00 0. -1.
         11    1    3    3    0    0  0.68393671182E+01  0.18783828367E+02 -0.14471061821E+01  0.20042536448E+02  0.51100000000E-03 0. -1.
        -11    1    3    3    0    0  0.98996958297E+01  0.13539613320E+02  0.90959345293E+01  0.19080386045E+02  0.51100000000E-03 0.  1.
        -12    1    3    3    0    0 -0.28397461619E+01  0.81690847435E+01 -0.52226257039E+00  0.86643442916E+01  0.00000000000E+00 0.  1.
</event>
<event>
 7    1  0.7357971E-011  0.4778727E+02  0.7816164E-02  0.1312668E+00
        -11   -1    0    0    0    0  0.00000000000E+00  0.00000000000E+00  0.45593999997E+02  0.45594000000E+02  0.51100000000E-03 0. -1.
         11   -1    0    0    0    0 -0.00000000000E+00 -0.00000000000E+00 -0.45593999997E+02  0.45594000000E+02  0.51100000000E-03 0.  1.
    9900012    2    1    2    0    0 -0.13386238974E+01 -0.94610348633E+01  0.42335799181E+02  0.47787274350E+02  0.20000015071E+02 0.  0.
        -12    1    1    2    0    0  0.13386238974E+01  0.94610348633E+01 -0.42335799181E+02  0.43400725650E+02  0.00000000000E+00 0.  1.
         11    1    3    3    0    0 -0.49700839179E+00 -0.49640153980E+01  0.59116758156E+01  0.77353976901E+01  0.51100000000E-03 0. -1.
        -11    1    3    3    0    0 -0.16471549821E+01 -0.80593211356E+01  0.35277520492E+02  0.36223876505E+02  0.51100000000E-03 0.  1.
        -12    1    3    3    0    0  0.80553947648E+00  0.35623016703E+01  0.11466028737E+01  0.38280001552E+01  0.00000000000E+00 0.  1.
</event>
<event>
 7    1  0.7357971E-011  0.4778727E+02  0.7816164E-02  0.1312668E+00
        -11   -1    0    0    0    0  0.00000000000E+00  0.00000000000E+00  0.45593999997E+02  0.45594000000E+02  0.51100000000E-03 0. -1.
         11   -1    0    0    0    0 -0.00000000000E+00 -0.00000000000E+00 -0.45593999997E+02  0.45594000000E+02  0.51100000000E-03 0.  1.
    9900012    2    1    2    0    0  0.40898976754E+02  0.68874942197E+01  0.12785140585E+02  0.47787266182E+02  0.19999977830E+02 0.  0.
        -12    1    1    2    0    0 -0.40898976754E+02 -0.68874942197E+01 -0.12785140585E+02  0.43400733818E+02  0.00000000000E+00 0.  1.
         11    1    3    3    0    0 -0.22480959512E-01  0.20105069743E+01 -0.58525876386E+00  0.20940801726E+01  0.51100000000E-03 0. -1.
        -11    1    3    3    0    0  0.27424727710E+02  0.10086569034E+02  0.92740421915E+01  0.30657175728E+02  0.51100000000E-03 0.  1.
        -12    1    3    3    0    0  0.13496730004E+02 -0.52095817882E+01  0.40963571569E+01  0.15036010281E+02  0.00000000000E+00 0.  1.
</event>
<event>
 7    1  0.7357971E-011  0.4778727E+02  0.7816164E-02  0.1312668E+00
        -11   -1    0    0    0    0  0.00000000000E+00  0.00000000000E+00  0.45593999997E+02  0.45594000000E+02  0.51100000000E-03 0. -1.
         11   -1    0    0    0    0 -0.00000000000E+00 -0.00000000000E+00 -0.45593999997E+02  0.45594000000E+02  0.51100000000E-03 0.  1.
    9900012    2    1    2    0    0 -0.16390978771E+02 -0.36475483345E+01 -0.40020677668E+02  0.47787269189E+02  0.19999991542E+02 0.  0.
         12    1    1    2    0    0  0.16390978771E+02  0.36475483345E+01  0.40020677668E+02  0.43400730811E+02  0.00000000000E+00 0. -1.
         11    1    3    3    0    0 -0.22539087567E+01 -0.17688210835E+01  0.16311132270E+01  0.32968717490E+01  0.51100000000E-03 0. -1.
        -11    1    3    3    0    0 -0.86921705187E+00  0.12923359892E+01 -0.18640594680E+01  0.24290715415E+01  0.51100000000E-03 0.  1.
         12    1    3    3    0    0 -0.13267852962E+02 -0.31710632401E+01 -0.39787731427E+02  0.42061325899E+02  0.00000000000E+00 0. -1.
</event>
<event>
 7    1  0.7357971E-011  0.4778727E+02  0.7816164E-02  0.1312668E+00
        -11   -1    0    0    0    0  0.00000000000E+00  0.00000000000E+00  0.45593999997E+02  0.45594000000E+02  0.51100000000E-03 0.  1.
         11   -1    0    0    0    0 -0.00000000000E+00 -0.00000000000E+00 -0.45593999997E+02  0.45594000000E+02  0.51100000000E-03 0. -1.
    9900012    2    1    2    0    0  0.36663511890E+02  0.22179048498E+02 -0.68920353502E+01  0.47787269043E+02  0.19999990874E+02 0.  0.
         12    1    1    2    0    0 -0.36663511890E+02 -0.22179048498E+02  0.68920353502E+01  0.43400730957E+02  0.00000000000E+00 0. -1.
         11    1    3    3    0    0  0.95412642239E+01  0.13169930536E+01 -0.60193416316E+01  0.11357934127E+02  0.51100000000E-03 0. -1.
        -11    1    3    3    0    0  0.23042876716E+02  0.21323490546E+02 -0.34464051641E+01  0.31583906111E+02  0.51100000000E-03 0.  1.
        -12    1    3    3    0    0  0.40793709494E+01 -0.46143510207E+00  0.25737114455E+01  0.48454288047E+01  0.00000000000E+00 0.  1.
</event>
<event>
 7    1  0.7357971E-011  0.4778728E+02  0.7816164E-02  0.1312668E+00
        -11   -1    0    0    0    0  0.00000000000E+00  0.00000000000E+00  0.45593999997E+02  0.45594000000E+02  0.51100000000E-03 0. -1.
         11   -1    0    0    0    0 -0.00000000000E+00 -0.00000000000E+00 -0.45593999997E+02  0.45594000000E+02  0.51100000000E-03 0.  1.
    9900012    2    1    2    0    0 -0.98782236841E+01 -0.29395615639E+02  0.30363481141E+02  0.47787279857E+02  0.20000040180E+02 0.  0.
        -12    1    1    2    0    0  0.98782236841E+01  0.29395615639E+02 -0.30363481141E+02  0.43400720143E+02  0.00000000000E+00 0.  1.
         11    1    3    3    0    0 -0.36638298584E+01 -0.10266472959E+00  0.61185547702E+01  0.71323840345E+01  0.51100000000E-03 0. -1.
        -11    1    3    3    0    0  0.46418161660E+00 -0.24275650306E+02  0.18182129035E+02  0.30333355879E+02  0.51100000000E-03 0.  1.
        -12    1    3    3    0    0 -0.66785754423E+01 -0.50173006033E+01  0.60627973353E+01  0.10321539944E+02  0.00000000000E+00 0.  1.
</event>
<event>
 7    1  0.1275414E-010  0.4778727E+02  0.7816164E-02  0.1312668E+00
        -11   -1    0    0    0    0  0.00000000000E+00  0.00000000000E+00  0.45593999997E+02  0.45594000000E+02  0.51100000000E-03 0. -1.
         11   -1    0    0    0    0 -0.00000000000E+00 -0.00000000000E+00 -0.45593999997E+02  0.45594000000E+02  0.51100000000E-03 0.  1.
    9900012    2    1    2    0    0 -0.13509744776E+02 -0.23901606519E+02 -0.33612842925E+02  0.47787271808E+02  0.20000003481E+02 0.  0.
         12    1    1    2    0    0  0.13509744776E+02  0.23901606519E+02  0.33612842925E+02  0.43400728192E+02  0.00000000000E+00 0. -1.
         11    1    3    3    0    0  0.50004663154E+00 -0.47500514048E+00  0.79178779816E+00  0.10500498539E+01  0.51100000000E-03 0. -1.
        -11    1    3    3    0    0 -0.50972438639E+01 -0.27992720088E+01 -0.17999215291E+02  0.18915326330E+02  0.51100000000E-03 0.  1.
        -12    1    3    3    0    0 -0.89125475441E+01 -0.20627329370E+02 -0.16405415432E+02  0.27821895624E+02  0.00000000000E+00 0.  1.
</event>
<event>
 7    1  0.7357971E-011  0.4778727E+02  0.7816164E-02  0.1312668E+00
        -11   -1    0    0    0    0  0.00000000000E+00  0.00000000000E+00  0.45593999997E+02  0.45594000000E+02  0.51100000000E-03 0. -1.
         11   -1    0    0    0    0 -0.00000000000E+00 -0.00000000000E+00 -0.45593999997E+02  0.45594000000E+02  0.51100000000E-03 0.  1.
    9900012    2    1    2    0    0  0.24647001171E+02 -0.32774401931E+02  0.14212223508E+02  0.47787269756E+02  0.19999994126E+02 0.  0.
        -12    1    1    2    0    0 -0.24647001171E+02  0.32774401931E+02 -0.14212223508E+02  0.43400730244E+02  0.00000000000E+00 0.  1.
         11    1    3    3    0    0  0.58709294258E+01 -0.97332730631E+01  0.32687171586E+01  0.11827465027E+02  0.51100000000E-03 0. -1.
        -11    1    3    3    0    0  0.15513540463E+02 -0.22910130662E+02  0.14411387309E+02  0.31196668237E+02  0.51100000000E-03 0.  1.
        -12    1    3    3    0    0  0.32625312817E+01 -0.13099820563E+00 -0.34678809592E+01  0.47631364919E+01  0.00000000000E+00 0.  1.
</event>
<event>
 7    1  0.7357971E-011  0.4778725E+02  0.7816164E-02  0.1312668E+00
        -11   -1    0    0    0    0  0.00000000000E+00  0.00000000000E+00  0.45593999997E+02  0.45594000000E+02  0.51100000000E-03 0. -1.
         11   -1    0    0    0    0 -0.00000000000E+00 -0.00000000000E+00 -0.45593999997E+02  0.45594000000E+02  0.51100000000E-03 0.  1.
    9900012    2    1    2    0    0 -0.14372270228E+01  0.13141538701E+02 -0.41338348296E+02  0.47787254606E+02  0.19999925049E+02 0.  0.
         12    1    1    2    0    0  0.14372270228E+01 -0.13141538701E+02  0.41338348296E+02  0.43400745394E+02  0.00000000000E+00 0. -1.
         11    1    3    3    0    0 -0.20524842820E+01  0.10581403767E+01 -0.26008958665E-01  0.23093352965E+01  0.51100000000E-03 0. -1.
        -11    1    3    3    0    0  0.52478923177E+01  0.99839562450E+01 -0.37392298820E+02  0.39056417749E+02  0.51100000000E-03 0.  1.
        -12    1    3    3    0    0 -0.46326350584E+01  0.20994420788E+01 -0.39200405177E+01  0.64215015602E+01  0.00000000000E+00 0.  1.
</event>
<event>
 7    1  0.7871918E-011  0.4778726E+02  0.7816164E-02  0.1312668E+00
        -11   -1    0    0    0    0  0.00000000000E+00  0.00000000000E+00  0.45593999997E+02  0.45594000000E+02  0.51100000000E-03 0. -1.
         11   -1    0    0    0    0 -0.00000000000E+00 -0.00000000000E+00 -0.45593999997E+02  0.45594000000E+02  0.51100000000E-03 0.  1.
    9900012    2    1    2    0    0  0.22961646923E+01 -0.21316390709E+02  0.37735436394E+02  0.47787262161E+02  0.19999959497E+02 0.  0.
        -12    1    1    2    0    0 -0.22961646923E+01  0.21316390709E+02 -0.37735436394E+02  0.43400737839E+02  0.00000000000E+00 0.  1.
         11    1    3    3    0    0 -0.55400235843E+01 -0.61335240944E+01  0.66264908869E+01  0.10593505599E+02  0.51100000000E-03 0. -1.
        -11    1    3    3    0    0 -0.56632079515E+00  0.77369188734E+00 -0.27506415652E+00  0.99748630611E+00  0.51100000000E-03 0.  1.
         12    1    3    3    0    0  0.84025090717E+01 -0.15956558502E+02  0.31384009663E+02  0.36196270256E+02  0.00000000000E+00 0. -1.
</event>
<event>
 7    1  0.7357971E-011  0.4778727E+02  0.7816164E-02  0.1312668E+00
        -11   -1    0    0    0    0  0.00000000000E+00  0.00000000000E+00  0.45593999997E+02  0.45594000000E+02  0.51100000000E-03 0. -1.
         11   -1    0    0    0    0 -0.00000000000E+00 -0.00000000000E+00 -0.45593999997E+02  0.45594000000E+02  0.51100000000E-03 0.  1.
    9900012    2    1    2    0    0 -0.26292697836E+02  0.29535400803E+02  0.17887911958E+02  0.47787271270E+02  0.20000001026E+02 0.  0.
        -12    1    1    2    0    0  0.26292697836E+02 -0.29535400803E+02 -0.17887911958E+02  0.43400728730E+02  0.00000000000E+00 0.  1.
         11    1    3    3    0    0 -0.25980049001E+01 -0.75424417666E+00  0.39169456069E+01  0.47603547018E+01  0.51100000000E-03 0. -1.
        -11    1    3    3    0    0 -0.18837985996E+02  0.30482943298E+02  0.12207164515E+02  0.37856233492E+02  0.51100000000E-03 0.  1.
        -12    1    3    3    0    0 -0.48567069407E+01 -0.19329831816E+00  0.17638018365E+01  0.51706830754E+01  0.00000000000E+00 0.  1.
</event>
<event>
 7    1  0.9495857E-011  0.4778727E+02  0.7816164E-02  0.1312668E+00
        -11   -1    0    0    0    0  0.00000000000E+00  0.00000000000E+00  0.45593999997E+02  0.45594000000E+02  0.51100000000E-03 0. -1.
         11   -1    0    0    0    0 -0.00000000000E+00 -0.00000000000E+00 -0.45593999997E+02  0.45594000000E+02  0.51100000000E-03 0.  1.
    9900012    2    1    2    0    0  0.14869151011E+02  0.16318100500E+02 -0.37366446540E+02  0.47787269790E+02  0.19999994283E+02 0.  0.
         12    1    1    2    0    0 -0.14869151011E+02 -0.16318100500E+02  0.37366446540E+02  0.43400730210E+02  0.00000000000E+00 0. -1.
         11    1    3    3    0    0  0.14957708236E+01 -0.21748835590E+01 -0.14505065445E+01  0.30118795375E+01  0.51100000000E-03 0. -1.
        -11    1    3    3    0    0  0.76127240895E+01  0.13665969484E+02 -0.33345150405E+02  0.36832205280E+02  0.51100000000E-03 0.  1.
        -12    1    3    3    0    0  0.57606560983E+01  0.48270145755E+01 -0.25707895896E+01  0.79431849726E+01  0.00000000000E+00 0.  1.
</event>
<event>
 7    1  0.7357971E-011  0.4778731E+02  0.7816164E-02  0.1312668E+00
        -11   -1    0    0    0    0  0.00000000000E+00  0.00000000000E+00  0.45593999997E+02  0.45594000000E+02  0.51100000000E-03 0. -1.
         11   -1    0    0    0    0 -0.00000000000E+00 -0.00000000000E+00 -0.45593999997E+02  0.45594000000E+02  0.51100000000E-03 0.  1.
    9900012    2    1    2    0    0  0.11234948338E+02  0.41800997696E+02  0.31736957026E+01  0.47787310870E+02  0.20000181579E+02 0.  0.
        -12    1    1    2    0    0 -0.11234948338E+02 -0.41800997696E+02 -0.31736957026E+01  0.43400689130E+02  0.00000000000E+00 0.  1.
         11    1    3    3    0    0  0.51185377243E+01  0.14969550696E+02  0.62940512845E+01  0.17026507519E+02  0.51100000000E-03 0. -1.
        -11    1    3    3    0    0 -0.19571323193E+01  0.13158471612E+02 -0.60496814230E+01  0.14614184468E+02  0.51100000000E-03 0.  1.
        -12    1    3    3    0    0  0.80735429327E+01  0.13672975388E+02  0.29293258410E+01  0.16146618883E+02  0.00000000000E+00 0.  1.
</event>
<event>
 7    1  0.7357971E-011  0.4778727E+02  0.7816164E-02  0.1312668E+00
        -11   -1    0    0    0    0  0.00000000000E+00  0.00000000000E+00  0.45593999997E+02  0.45594000000E+02  0.51100000000E-03 0. -1.
         11   -1    0    0    0    0 -0.00000000000E+00 -0.00000000000E+00 -0.45593999997E+02  0.45594000000E+02  0.51100000000E-03 0.  1.
    9900012    2    1    2    0    0  0.44600984090E+01  0.12297644493E+02  0.41382350583E+02  0.47787268697E+02  0.19999989296E+02 0.  0.
        -12    1    1    2    0    0 -0.44600984090E+01 -0.12297644493E+02 -0.41382350583E+02  0.43400731303E+02  0.00000000000E+00 0.  1.
         11    1    3    3    0    0  0.14476785553E+01  0.59438805539E+00  0.27730167740E+02  0.27774291594E+02  0.51100000000E-03 0. -1.
        -11    1    3    3    0    0  0.49885463605E+01  0.62718285271E+01  0.45063865005E+01  0.91939625525E+01  0.51100000000E-03 0.  1.
        -12    1    3    3    0    0 -0.19761265068E+01  0.54314279105E+01  0.91457963419E+01  0.10819014551E+02  0.00000000000E+00 0.  1.
</event>
<event>
 7    1  0.7357971E-011  0.4778725E+02  0.7816164E-02  0.1312668E+00
        -11   -1    0    0    0    0  0.00000000000E+00  0.00000000000E+00  0.45593999997E+02  0.45594000000E+02  0.51100000000E-03 0. -1.
         11   -1    0    0    0    0 -0.00000000000E+00 -0.00000000000E+00 -0.45593999997E+02  0.45594000000E+02  0.51100000000E-03 0.  1.
    9900012    2    1    2    0    0 -0.44724310548E+01 -0.15423512054E+02 -0.40320441037E+02  0.47787247367E+02  0.19999892047E+02 0.  0.
         12    1    1    2    0    0  0.44724310548E+01  0.15423512054E+02  0.40320441037E+02  0.43400752633E+02  0.00000000000E+00 0. -1.
         11    1    3    3    0    0 -0.59623091734E+01 -0.23253857393E+01 -0.18436439298E+02  0.19515605134E+02  0.51100000000E-03 0.  1.
        -11    1    3    3    0    0  0.28148318660E+01 -0.11564133886E+02 -0.82351142681E+01  0.14473063886E+02  0.51100000000E-03 0. -1.
         12    1    3    3    0    0 -0.13249537474E+01 -0.15339924286E+01 -0.13648887472E+02  0.13798578348E+02  0.00000000000E+00 0. -1.
</event>
<event>
 7    1  0.7357971E-011  0.4778727E+02  0.7816164E-02  0.1312668E+00
        -11   -1    0    0    0    0  0.00000000000E+00  0.00000000000E+00  0.45593999997E+02  0.45594000000E+02  0.51100000000E-03 0. -1.
         11   -1    0    0    0    0 -0.00000000000E+00 -0.00000000000E+00 -0.45593999997E+02  0.45594000000E+02  0.51100000000E-03 0.  1.
    9900012    2    1    2    0    0 -0.11057378735E+02  0.34342790602E+02  0.24123237308E+02  0.47787268796E+02  0.19999989750E+02 0.  0.
        -12    1    1    2    0    0  0.11057378735E+02 -0.34342790602E+02 -0.24123237308E+02  0.43400731204E+02  0.00000000000E+00 0.  1.
         11    1    3    3    0    0 -0.10014931984E+02  0.30038291482E+02  0.26712665840E+02  0.41426613841E+02  0.51100000000E-03 0. -1.
        -11    1    3    3    0    0  0.15857249318E+00  0.38472483346E+01 -0.31341954640E+01  0.49648410298E+01  0.51100000000E-03 0.  1.
        -12    1    3    3    0    0 -0.12010192443E+01  0.45725078559E+00  0.54476693193E+00  0.13958139261E+01  0.00000000000E+00 0.  1.
</event>
<event>
 7    1  0.7357971E-011  0.4778727E+02  0.7816164E-02  0.1312668E+00
        -11   -1    0    0    0    0  0.00000000000E+00  0.00000000000E+00  0.45593999997E+02  0.45594000000E+02  0.51100000000E-03 0. -1.
         11   -1    0    0    0    0 -0.00000000000E+00 -0.00000000000E+00 -0.45593999997E+02  0.45594000000E+02  0.51100000000E-03 0.  1.
    9900012    2    1    2    0    0 -0.74957100863E+01 -0.18536930972E+01  0.42708328805E+02  0.47787271929E+02  0.20000004032E+02 0.  0.
        -12    1    1    2    0    0  0.74957100863E+01  0.18536930972E+01 -0.42708328805E+02  0.43400728071E+02  0.00000000000E+00 0.  1.
         11    1    3    3    0    0 -0.46185094797E+01 -0.69548362292E+01  0.73817175516E+01  0.11144062592E+02  0.51100000000E-03 0. -1.
        -11    1    3    3    0    0  0.15325892716E+01  0.49410644961E+01  0.15846778341E+02  0.16669833001E+02  0.51100000000E-03 0.  1.
         12    1    3    3    0    0 -0.44097898783E+01  0.16007863594E+00  0.19479832912E+02  0.19973376335E+02  0.00000000000E+00 0. -1.
</event>
<event>
 7    1  0.7357971E-011  0.4778727E+02  0.7816164E-02  0.1312668E+00
        -11   -1    0    0    0    0  0.00000000000E+00  0.00000000000E+00  0.45593999997E+02  0.45594000000E+02  0.51100000000E-03 0. -1.
         11   -1    0    0    0    0 -0.00000000000E+00 -0.00000000000E+00 -0.45593999997E+02  0.45594000000E+02  0.51100000000E-03 0.  1.
    9900012    2    1    2    0    0 -0.16196829454E+02  0.38850095800E+01  0.40077334089E+02  0.47787270842E+02  0.19999999075E+02 0.  0.
        -12    1    1    2    0    0  0.16196829454E+02 -0.38850095800E+01 -0.40077334089E+02  0.43400729158E+02  0.00000000000E+00 0.  1.
         11    1    3    3    0    0 -0.11224241184E+02  0.38090503797E+01  0.34946357269E+02  0.36901766104E+02  0.51100000000E-03 0. -1.
        -11    1    3    3    0    0 -0.57370118764E+01  0.30421149472E+01  0.29939636468E+01  0.71506354404E+01  0.51100000000E-03 0.  1.
        -12    1    3    3    0    0  0.76442360669E+00 -0.29661557468E+01  0.21370131730E+01  0.37348692971E+01  0.00000000000E+00 0.  1.
</event>
<event>
 7    1  0.7357971E-011  0.4778727E+02  0.7816164E-02  0.1312668E+00
        -11   -1    0    0    0    0  0.00000000000E+00  0.00000000000E+00  0.45593999997E+02  0.45594000000E+02  0.51100000000E-03 0. -1.
         11   -1    0    0    0    0 -0.00000000000E+00 -0.00000000000E+00 -0.45593999997E+02  0.45594000000E+02  0.51100000000E-03 0.  1.
    9900012    2    1    2    0    0  0.24024571545E+02  0.86959619504E+01 -0.35083097308E+02  0.47787268337E+02  0.19999987654E+02 0.  0.
         12    1    1    2    0    0 -0.24024571545E+02 -0.86959619504E+01  0.35083097308E+02  0.43400731663E+02  0.00000000000E+00 0. -1.
         11    1    3    3    0    0  0.83741365454E+01  0.11625444446E+02 -0.20194654331E+02  0.24760880139E+02  0.51100000000E-03 0. -1.
        -11    1    3    3    0    0 -0.48067570254E+00  0.73002648122E+00 -0.15415659261E+01  0.17721212035E+01  0.51100000000E-03 0.  1.
         12    1    3    3    0    0  0.16131110702E+02 -0.36595089765E+01 -0.13346877051E+02  0.21254266994E+02  0.00000000000E+00 0. -1.
</event>
<event>
 7    1  0.7357971E-011  0.4778727E+02  0.7816164E-02  0.1312668E+00
        -11   -1    0    0    0    0  0.00000000000E+00  0.00000000000E+00  0.45593999997E+02  0.45594000000E+02  0.51100000000E-03 0.  1.
         11   -1    0    0    0    0 -0.00000000000E+00 -0.00000000000E+00 -0.45593999997E+02  0.45594000000E+02  0.51100000000E-03 0. -1.
    9900012    2    1    2    0    0 -0.31840189617E+02 -0.29375439778E+02  0.26285240830E+01  0.47787271022E+02  0.19999999896E+02 0.  0.
        -12    1    1    2    0    0  0.31840189617E+02  0.29375439778E+02 -0.26285240830E+01  0.43400728978E+02  0.00000000000E+00 0.  1.
         11    1    3    3    0    0 -0.21822419930E+02 -0.17646612119E+02  0.36467795721E+01  0.28300528835E+02  0.51100000000E-03 0. -1.
        -11    1    3    3    0    0 -0.35767257745E+01 -0.12471621889E+02 -0.81112879026E+00  0.12999701919E+02  0.51100000000E-03 0.  1.
        -12    1    3    3    0    0 -0.64410439129E+01  0.74279423011E+00 -0.20712669884E+00  0.64870402670E+01  0.00000000000E+00 0.  1.
</event>
<event>
 7    1  0.7357971E-011  0.4778726E+02  0.7816164E-02  0.1312668E+00
        -11   -1    0    0    0    0  0.00000000000E+00  0.00000000000E+00  0.45593999997E+02  0.45594000000E+02  0.51100000000E-03 0. -1.
         11   -1    0    0    0    0 -0.00000000000E+00 -0.00000000000E+00 -0.45593999997E+02  0.45594000000E+02  0.51100000000E-03 0.  1.
    9900012    2    1    2    0    0  0.21188031079E+02 -0.22441386530E+02  0.30513531958E+02  0.47787261263E+02  0.19999955403E+02 0.  0.
        -12    1    1    2    0    0 -0.21188031079E+02  0.22441386530E+02 -0.30513531958E+02  0.43400738737E+02  0.00000000000E+00 0.  1.
         11    1    3    3    0    0  0.59362422206E+01 -0.15501199438E+02  0.12005791430E+02  0.20485731226E+02  0.51100000000E-03 0. -1.
        -11    1    3    3    0    0  0.50901734655E+01 -0.45496158147E+00  0.13153157119E+02  0.14111073609E+02  0.51100000000E-03 0.  1.
         12    1    3    3    0    0  0.10161615393E+02 -0.64852255101E+01  0.53545834087E+01  0.13190456428E+02  0.00000000000E+00 0. -1.
</event>
<event>
 7    1  0.7357971E-011  0.4778727E+02  0.7816164E-02  0.1312668E+00
        -11   -1    0    0    0    0  0.00000000000E+00  0.00000000000E+00  0.45593999997E+02  0.45594000000E+02  0.51100000000E-03 0. -1.
         11   -1    0    0    0    0 -0.00000000000E+00 -0.00000000000E+00 -0.45593999997E+02  0.45594000000E+02  0.51100000000E-03 0.  1.
    9900012    2    1    2    0    0  0.10427713404E+02  0.17157949287E+02 -0.38477149633E+02  0.47787268733E+02  0.19999989463E+02 0.  0.
         12    1    1    2    0    0 -0.10427713404E+02 -0.17157949287E+02  0.38477149633E+02  0.43400731267E+02  0.00000000000E+00 0. -1.
         11    1    3    3    0    0 -0.37888722872E+01  0.23848218406E+01 -0.98240157454E+01  0.10796027698E+02  0.51100000000E-03 0. -1.
        -11    1    3    3    0    0  0.14559078335E+02  0.14248259642E+02 -0.29553553236E+02  0.35894180224E+02  0.51100000000E-03 0.  1.
         12    1    3    3    0    0 -0.34249264322E+00  0.52486780451E+00  0.90041934831E+00  0.10970608122E+01  0.00000000000E+00 0. -1.
</event>
<event>
 7    1  0.7357971E-011  0.4778727E+02  0.7816164E-02  0.1312668E+00
        -11   -1    0    0    0    0  0.00000000000E+00  0.00000000000E+00  0.45593999997E+02  0.45594000000E+02  0.51100000000E-03 0. -1.
         11   -1    0    0    0    0 -0.00000000000E+00 -0.00000000000E+00 -0.45593999997E+02  0.45594000000E+02  0.51100000000E-03 0.  1.
    9900012    2    1    2    0    0  0.77255594803E+01 -0.40065623543E+02 -0.14787994871E+02  0.47787271303E+02  0.20000001178E+02 0.  0.
         12    1    1    2    0    0 -0.77255594803E+01  0.40065623543E+02  0.14787994871E+02  0.43400728697E+02  0.00000000000E+00 0. -1.
         11    1    3    3    0    0  0.48941210687E+00  0.18471602543E+01 -0.58179069989E-01  0.19117819648E+01  0.51100000000E-03 0. -1.
        -11    1    3    3    0    0  0.68995549750E+01 -0.17617158375E+02 -0.87890775088E+01  0.20861831458E+02  0.51100000000E-03 0.  1.
         12    1    3    3    0    0  0.33659239841E+00 -0.24295625422E+02 -0.59407382924E+01  0.25013657880E+02  0.00000000000E+00 0. -1.
</event>
<event>
 7    1  0.7357971E-011  0.4778724E+02  0.7816164E-02  0.1312668E+00
        -11   -1    0    0    0    0  0.00000000000E+00  0.00000000000E+00  0.45593999997E+02  0.45594000000E+02  0.51100000000E-03 0. -1.
         11   -1    0    0    0    0 -0.00000000000E+00 -0.00000000000E+00 -0.45593999997E+02  0.45594000000E+02  0.51100000000E-03 0.  1.
    9900012    2    1    2    0    0  0.37382508360E+02 -0.20350723346E+02  0.84865597633E+01  0.47787244608E+02  0.19999879467E+02 0.  0.
        -12    1    1    2    0    0 -0.37382508360E+02  0.20350723346E+02 -0.84865597633E+01  0.43400755392E+02  0.00000000000E+00 0.  1.
         11    1    3    3    0    0  0.64696398459E+01 -0.76344068552E+01  0.85488461872E+01  0.13161427702E+02  0.51100000000E-03 0. -1.
        -11    1    3    3    0    0  0.27992093664E+01 -0.30618101259E+01  0.24104114549E+01  0.47979514344E+01  0.51100000000E-03 0.  1.
         12    1    3    3    0    0  0.28113659147E+02 -0.96545063647E+01 -0.24726978788E+01  0.29827865472E+02  0.00000000000E+00 0. -1.
</event>
<event>
 7    1  0.7357971E-011  0.4778728E+02  0.7816164E-02  0.1312668E+00
        -11   -1    0    0    0    0  0.00000000000E+00  0.00000000000E+00  0.45593999997E+02  0.45594000000E+02  0.51100000000E-03 0. -1.
         11   -1    0    0    0    0 -0.00000000000E+00 -0.00000000000E+00 -0.45593999997E+02  0.45594000000E+02  0.51100000000E-03 0.  1.
    9900012    2    1    2    0    0 -0.47528601958E+01  0.13954935678E+02  0.40820245406E+02  0.47787281747E+02  0.20000048798E+02 0.  0.
        -12    1    1    2    0    0  0.47528601958E+01 -0.13954935678E+02 -0.40820245406E+02  0.43400718253E+02  0.00000000000E+00 0.  1.
         11    1    3    3    0    0 -0.26671584886E+01  0.59910149779E+01  0.32347676475E+02  0.33005729328E+02  0.51100000000E-03 0. -1.
        -11    1    3    3    0    0 -0.16348800266E+01  0.94461684345E+01  0.89957130339E+01  0.13146322073E+02  0.51100000000E-03 0.  1.
         12    1    3    3    0    0 -0.45082168057E+00 -0.14822477340E+01 -0.52314410287E+00  0.16352303462E+01  0.00000000000E+00 0. -1.
</event>
<event>
 7    1  0.7357971E-011  0.4778725E+02  0.7816164E-02  0.1312668E+00
        -11   -1    0    0    0    0  0.00000000000E+00  0.00000000000E+00  0.45593999997E+02  0.45594000000E+02  0.51100000000E-03 0. -1.
         11   -1    0    0    0    0 -0.00000000000E+00 -0.00000000000E+00 -0.45593999997E+02  0.45594000000E+02  0.51100000000E-03 0.  1.
    9900012    2    1    2    0    0  0.27016855396E+02  0.18148376232E+02 -0.28711508735E+02  0.47787253818E+02  0.19999921456E+02 0.  0.
         12    1    1    2    0    0 -0.27016855396E+02 -0.18148376232E+02  0.28711508735E+02  0.43400746182E+02  0.00000000000E+00 0. -1.
         11    1    3    3    0    0  0.10027469729E+02  0.15137392465E+02 -0.16732061751E+02  0.24691145994E+02  0.51100000000E-03 0. -1.
        -11    1    3    3    0    0  0.61071758975E+01 -0.26901770761E+01 -0.12591357424E+01  0.67911761295E+01  0.51100000000E-03 0.  1.
        -12    1    3    3    0    0  0.10882209770E+02  0.57011608436E+01 -0.10720311241E+02  0.16304931694E+02  0.00000000000E+00 0.  1.
</event>
<event>
 7    1  0.7357971E-011  0.4778727E+02  0.7816164E-02  0.1312668E+00
        -11   -1    0    0    0    0  0.00000000000E+00  0.00000000000E+00  0.45593999997E+02  0.45594000000E+02  0.51100000000E-03 0. -1.
         11   -1    0    0    0    0 -0.00000000000E+00 -0.00000000000E+00 -0.45593999997E+02  0.45594000000E+02  0.51100000000E-03 0.  1.
    9900012    2    1    2    0    0  0.29918494270E+02 -0.11349031276E+02  0.29320756070E+02  0.47787267900E+02  0.19999985664E+02 0.  0.
        -12    1    1    2    0    0 -0.29918494270E+02  0.11349031276E+02 -0.29320756070E+02  0.43400732100E+02  0.00000000000E+00 0.  1.
         11    1    3    3    0    0  0.85356495146E+00  0.25849089877E+01  0.58878674054E+01  0.64867025865E+01  0.51100000000E-03 0. -1.
        -11    1    3    3    0    0  0.22136465578E+02 -0.75757865339E+01  0.11392638888E+02  0.26023217922E+02  0.51100000000E-03 0.  1.
        -12    1    3    3    0    0  0.69284637400E+01 -0.63581537293E+01  0.12040249777E+02  0.15277347392E+02  0.00000000000E+00 0.  1.
</event>
<event>
 7    1  0.7357971E-011  0.4778728E+02  0.7816164E-02  0.1312668E+00
        -11   -1    0    0    0    0  0.00000000000E+00  0.00000000000E+00  0.45593999997E+02  0.45594000000E+02  0.51100000000E-03 0. -1.
         11   -1    0    0    0    0 -0.00000000000E+00 -0.00000000000E+00 -0.45593999997E+02  0.45594000000E+02  0.51100000000E-03 0.  1.
    9900012    2    1    2    0    0 -0.20816692386E+02  0.30227133956E+02 -0.23164807570E+02  0.47787278591E+02  0.20000034407E+02 0.  0.
         12    1    1    2    0    0  0.20816692386E+02 -0.30227133956E+02  0.23164807570E+02  0.43400721409E+02  0.00000000000E+00 0. -1.
         11    1    3    3    0    0 -0.29867942700E+01  0.17388416019E+02 -0.39784402314E+01  0.18086070292E+02  0.51100000000E-03 0. -1.
        -11    1    3    3    0    0 -0.13052962903E+02  0.10455984023E+02 -0.11322726507E+02  0.20196820994E+02  0.51100000000E-03 0.  1.
         12    1    3    3    0    0 -0.47769352125E+01  0.23827339142E+01 -0.78636408312E+01  0.95043873055E+01  0.00000000000E+00 0. -1.
</event>
<event>
 7    1  0.7357971E-011  0.4778727E+02  0.7816164E-02  0.1312668E+00
        -11   -1    0    0    0    0  0.00000000000E+00  0.00000000000E+00  0.45593999997E+02  0.45594000000E+02  0.51100000000E-03 0. -1.
         11   -1    0    0    0    0 -0.00000000000E+00 -0.00000000000E+00 -0.45593999997E+02  0.45594000000E+02  0.51100000000E-03 0.  1.
    9900012    2    1    2    0    0  0.33525167813E+02 -0.17751617633E+02  0.21084742691E+02  0.47787272128E+02  0.20000004940E+02 0.  0.
        -12    1    1    2    0    0 -0.33525167813E+02  0.17751617633E+02 -0.21084742691E+02  0.43400727872E+02  0.00000000000E+00 0.  1.
         11    1    3    3    0    0  0.11403065573E+02 -0.24988359753E+01  0.44478501762E+01  0.12492295911E+02  0.51100000000E-03 0.  1.
        -11    1    3    3    0    0  0.23367582273E+02 -0.13324693468E+02  0.18235242922E+02  0.32497929811E+02  0.51100000000E-03 0. -1.
        -12    1    3    3    0    0 -0.12454800323E+01 -0.19280881890E+01 -0.15983504066E+01  0.27970464061E+01  0.00000000000E+00 0.  1.
</event>
<event>
 7    1  0.7357971E-011  0.4778726E+02  0.7816164E-02  0.1312668E+00
        -11   -1    0    0    0    0  0.00000000000E+00  0.00000000000E+00  0.45593999997E+02  0.45594000000E+02  0.51100000000E-03 0. -1.
         11   -1    0    0    0    0 -0.00000000000E+00 -0.00000000000E+00 -0.45593999997E+02  0.45594000000E+02  0.51100000000E-03 0.  1.
    9900012    2    1    2    0    0  0.24030800044E+02  0.25384264101E+02  0.25725165056E+02  0.47787258856E+02  0.19999944428E+02 0.  0.
        -12    1    1    2    0    0 -0.24030800044E+02 -0.25384264101E+02 -0.25725165056E+02  0.43400741144E+02  0.00000000000E+00 0.  1.
         11    1    3    3    0    0  0.10584539863E+02  0.14264067778E+01  0.76385668088E+01  0.13130682525E+02  0.51100000000E-03 0. -1.
        -11    1    3    3    0    0  0.87991008800E+01  0.23253045360E+02  0.15162930909E+02  0.29121173891E+02  0.51100000000E-03 0.  1.
        -12    1    3    3    0    0  0.46471593000E+01  0.70481196365E+00  0.29236673388E+01  0.55354024399E+01  0.00000000000E+00 0.  1.
</event>
<event>
 7    1  0.7357971E-011  0.4778727E+02  0.7816164E-02  0.1312668E+00
        -11   -1    0    0    0    0  0.00000000000E+00  0.00000000000E+00  0.45593999997E+02  0.45594000000E+02  0.51100000000E-03 0. -1.
         11   -1    0    0    0    0 -0.00000000000E+00 -0.00000000000E+00 -0.45593999997E+02  0.45594000000E+02  0.51100000000E-03 0.  1.
    9900012    2    1    2    0    0  0.19410794984E+02 -0.26351798788E+02 -0.28503104377E+02  0.47787271660E+02  0.20000002806E+02 0.  0.
         12    1    1    2    0    0 -0.19410794984E+02  0.26351798788E+02  0.28503104377E+02  0.43400728340E+02  0.00000000000E+00 0. -1.
         11    1    3    3    0    0 -0.26349662640E+01 -0.28979819247E+01 -0.90439195360E+01  0.98556495110E+01  0.51100000000E-03 0. -1.
        -11    1    3    3    0    0  0.15302997459E+02 -0.12815233278E+02 -0.12228475897E+02  0.23408279694E+02  0.51100000000E-03 0.  1.
        -12    1    3    3    0    0  0.67427637896E+01 -0.10638583586E+02 -0.72307089443E+01  0.14523342455E+02  0.00000000000E+00 0.  1.
</event>
<event>
 7    1  0.7357971E-011  0.4778727E+02  0.7816164E-02  0.1312668E+00
        -11   -1    0    0    0    0  0.00000000000E+00  0.00000000000E+00  0.45593999997E+02  0.45594000000E+02  0.51100000000E-03 0. -1.
         11   -1    0    0    0    0 -0.00000000000E+00 -0.00000000000E+00 -0.45593999997E+02  0.45594000000E+02  0.51100000000E-03 0.  1.
    9900012    2    1    2    0    0  0.12175944849E+02  0.38111317659E+02  0.16819552255E+02  0.47787268385E+02  0.19999987873E+02 0.  0.
        -12    1    1    2    0    0 -0.12175944849E+02 -0.38111317659E+02 -0.16819552255E+02  0.43400731615E+02  0.00000000000E+00 0.  1.
         11    1    3    3    0    0 -0.25966595881E+01  0.12990176442E+02  0.13107703573E+01  0.13311853523E+02  0.51100000000E-03 0. -1.
        -11    1    3    3    0    0  0.14650667438E+02  0.26031516673E+02  0.15080397709E+02  0.33461923316E+02  0.51100000000E-03 0.  1.
         12    1    3    3    0    0  0.12193699890E+00 -0.91037545546E+00  0.42838418796E+00  0.10134915461E+01  0.00000000000E+00 0. -1.
</event>
<event>
 7    1  0.7357971E-011  0.4778727E+02  0.7816164E-02  0.1312668E+00
        -11   -1    0    0    0    0  0.00000000000E+00  0.00000000000E+00  0.45593999997E+02  0.45594000000E+02  0.51100000000E-03 0.  1.
         11   -1    0    0    0    0 -0.00000000000E+00 -0.00000000000E+00 -0.45593999997E+02  0.45594000000E+02  0.51100000000E-03 0. -1.
    9900012    2    1    2    0    0  0.18279018340E+02 -0.25317099325E+02  0.30142084501E+02  0.47787270884E+02  0.19999999269E+02 0.  0.
        -12    1    1    2    0    0 -0.18279018340E+02  0.25317099325E+02 -0.30142084501E+02  0.43400729116E+02  0.00000000000E+00 0.  1.
         11    1    3    3    0    0 -0.67050070548E+00  0.16170534047E+01  0.44873732965E+01  0.48167366830E+01  0.51100000000E-03 0.  1.
        -11    1    3    3    0    0  0.58106290576E+01 -0.15205460706E+02  0.84121064176E+01  0.18323017763E+02  0.51100000000E-03 0. -1.
         12    1    3    3    0    0  0.13138889988E+02 -0.11728692024E+02  0.17242604787E+02  0.24647516438E+02  0.00000000000E+00 0. -1.
</event>
<event>
 7    1  0.7357971E-011  0.4778727E+02  0.7816164E-02  0.1312668E+00
        -11   -1    0    0    0    0  0.00000000000E+00  0.00000000000E+00  0.45593999997E+02  0.45594000000E+02  0.51100000000E-03 0. -1.
         11   -1    0    0    0    0 -0.00000000000E+00 -0.00000000000E+00 -0.45593999997E+02  0.45594000000E+02  0.51100000000E-03 0.  1.
    9900012    2    1    2    0    0 -0.23203635371E+01 -0.16024306933E+02  0.40267367983E+02  0.47787269316E+02  0.19999992119E+02 0.  0.
        -12    1    1    2    0    0  0.23203635371E+01  0.16024306933E+02 -0.40267367983E+02  0.43400730684E+02  0.00000000000E+00 0.  1.
         11    1    3    3    0    0 -0.10235584176E+01 -0.60104834885E+01  0.28317045883E+02  0.28965991635E+02  0.51100000000E-03 0. -1.
        -11    1    3    3    0    0 -0.58713400386E+01 -0.46436784124E+01  0.60760851410E+01  0.96413273956E+01  0.51100000000E-03 0.  1.
         12    1    3    3    0    0  0.45745349191E+01 -0.53701450324E+01  0.58742369594E+01  0.91799502858E+01  0.00000000000E+00 0. -1.
</event>
<event>
 7    1  0.7357971E-011  0.4778729E+02  0.7816164E-02  0.1312668E+00
        -11   -1    0    0    0    0  0.00000000000E+00  0.00000000000E+00  0.45593999997E+02  0.45594000000E+02  0.51100000000E-03 0. -1.
         11   -1    0    0    0    0 -0.00000000000E+00 -0.00000000000E+00 -0.45593999997E+02  0.45594000000E+02  0.51100000000E-03 0.  1.
    9900012    2    1    2    0    0  0.12028441291E+02  0.20987512529E+02  0.36034182598E+02  0.47787292661E+02  0.20000098556E+02 0.  0.
        -12    1    1    2    0    0 -0.12028441291E+02 -0.20987512529E+02 -0.36034182598E+02  0.43400707339E+02  0.00000000000E+00 0.  1.
         11    1    3    3    0    0  0.62809757292E+01  0.19380271486E+02  0.28855410687E+02  0.35322518386E+02  0.51100000000E-03 0. -1.
        -11    1    3    3    0    0 -0.14489234428E+01 -0.22272656347E+00 -0.71190894257E+00  0.16296628083E+01  0.51100000000E-03 0.  1.
         12    1    3    3    0    0  0.71963890045E+01  0.18299676069E+01  0.78906808534E+01  0.10835111466E+02  0.00000000000E+00 0. -1.
</event>
<event>
 7    1  0.7357971E-011  0.4778727E+02  0.7816164E-02  0.1312668E+00
        -11   -1    0    0    0    0  0.00000000000E+00  0.00000000000E+00  0.45593999997E+02  0.45594000000E+02  0.51100000000E-03 0. -1.
         11   -1    0    0    0    0 -0.00000000000E+00 -0.00000000000E+00 -0.45593999997E+02  0.45594000000E+02  0.51100000000E-03 0.  1.
    9900012    2    1    2    0    0  0.23885099777E+01 -0.33884641659E+02 -0.27013871519E+02  0.47787272187E+02  0.20000005208E+02 0.  0.
         12    1    1    2    0    0 -0.23885099777E+01  0.33884641659E+02  0.27013871519E+02  0.43400727813E+02  0.00000000000E+00 0. -1.
         11    1    3    3    0    0 -0.87451926921E+00 -0.11373313242E+01  0.27497586061E+01  0.31015285178E+01  0.51100000000E-03 0. -1.
        -11    1    3    3    0    0 -0.83519421743E+00 -0.15737790418E+02 -0.12616328719E+02  0.20187801942E+02  0.51100000000E-03 0.  1.
         12    1    3    3    0    0  0.40982234643E+01 -0.17009519916E+02 -0.17147301406E+02  0.24497941727E+02  0.00000000000E+00 0. -1.
</event>
<event>
 7    1  0.7357971E-011  0.4778727E+02  0.7816164E-02  0.1312668E+00
        -11   -1    0    0    0    0  0.00000000000E+00  0.00000000000E+00  0.45593999997E+02  0.45594000000E+02  0.51100000000E-03 0.  1.
         11   -1    0    0    0    0 -0.00000000000E+00 -0.00000000000E+00 -0.45593999997E+02  0.45594000000E+02  0.51100000000E-03 0. -1.
    9900012    2    1    2    0    0 -0.42855801357E+02  0.35746179389E+01 -0.58502515315E+01  0.47787273665E+02  0.20000011950E+02 0.  0.
         12    1    1    2    0    0  0.42855801357E+02 -0.35746179389E+01  0.58502515315E+01  0.43400726335E+02  0.00000000000E+00 0. -1.
         11    1    3    3    0    0 -0.12257496139E+02  0.57391581924E+01 -0.70554829193E+01  0.15263157859E+02  0.51100000000E-03 0. -1.
        -11    1    3    3    0    0 -0.29117944196E+02  0.16295435614E+00 -0.77469856359E+00  0.29128703824E+02  0.51100000000E-03 0.  1.
        -12    1    3    3    0    0 -0.14803610219E+01 -0.23274946097E+01  0.19799299514E+01  0.33954119817E+01  0.00000000000E+00 0.  1.
</event>
<event>
 7    1  0.7357971E-011  0.4778728E+02  0.7816164E-02  0.1312668E+00
        -11   -1    0    0    0    0  0.00000000000E+00  0.00000000000E+00  0.45593999997E+02  0.45594000000E+02  0.51100000000E-03 0. -1.
         11   -1    0    0    0    0 -0.00000000000E+00 -0.00000000000E+00 -0.45593999997E+02  0.45594000000E+02  0.51100000000E-03 0.  1.
    9900012    2    1    2    0    0 -0.25818543000E+02  0.21130918950E+02 -0.27758050529E+02  0.47787282639E+02  0.20000052864E+02 0.  0.
         12    1    1    2    0    0  0.25818543000E+02 -0.21130918950E+02  0.27758050529E+02  0.43400717361E+02  0.00000000000E+00 0. -1.
         11    1    3    3    0    0  0.49960646499E+00 -0.66970608965E+00  0.35534541289E+00  0.90795566520E+00  0.51100000000E-03 0. -1.
        -11    1    3    3    0    0 -0.84749197685E+01  0.16665885905E+02 -0.11404430303E+02  0.21900617546E+02  0.51100000000E-03 0.  1.
        -12    1    3    3    0    0 -0.17843229696E+02  0.51347391340E+01 -0.16708965639E+02  0.24978709428E+02  0.00000000000E+00 0.  1.
</event>
<event>
 7    1  0.7357971E-011  0.4778727E+02  0.7816164E-02  0.1312668E+00
        -11   -1    0    0    0    0  0.00000000000E+00  0.00000000000E+00  0.45593999997E+02  0.45594000000E+02  0.51100000000E-03 0. -1.
         11   -1    0    0    0    0 -0.00000000000E+00 -0.00000000000E+00 -0.45593999997E+02  0.45594000000E+02  0.51100000000E-03 0.  1.
    9900012    2    1    2    0    0 -0.18249124322E+02  0.22662188564E+02  0.32202764666E+02  0.47787269808E+02  0.19999994364E+02 0.  0.
        -12    1    1    2    0    0  0.18249124322E+02 -0.22662188564E+02 -0.32202764666E+02  0.43400730192E+02  0.00000000000E+00 0.  1.
         11    1    3    3    0    0 -0.89354254978E+01  0.10835496076E+02  0.39466217469E+01  0.14588544394E+02  0.51100000000E-03 0.  1.
        -11    1    3    3    0    0 -0.92693201655E+01  0.49107201051E+01  0.17844918398E+02  0.20699675871E+02  0.51100000000E-03 0. -1.
         12    1    3    3    0    0 -0.44378659054E-01  0.69159723822E+01  0.10411224522E+02  0.12499049544E+02  0.00000000000E+00 0. -1.
</event>
<event>
 7    1  0.7357971E-011  0.4778725E+02  0.7816164E-02  0.1312668E+00
        -11   -1    0    0    0    0  0.00000000000E+00  0.00000000000E+00  0.45593999997E+02  0.45594000000E+02  0.51100000000E-03 0.  1.
         11   -1    0    0    0    0 -0.00000000000E+00 -0.00000000000E+00 -0.45593999997E+02  0.45594000000E+02  0.51100000000E-03 0. -1.
    9900012    2    1    2    0    0 -0.21659669020E+02 -0.37597872758E+02 -0.93997355697E+00  0.47787252906E+02  0.19999917300E+02 0.  0.
         12    1    1    2    0    0  0.21659669020E+02  0.37597872758E+02  0.93997355697E+00  0.43400747094E+02  0.00000000000E+00 0. -1.
         11    1    3    3    0    0 -0.68470417966E+00 -0.37662401441E+01  0.27322440234E+01  0.47030354348E+01  0.51100000000E-03 0. -1.
        -11    1    3    3    0    0 -0.19816462254E+02 -0.31277808451E+02  0.16550767033E+01  0.37063900994E+02  0.51100000000E-03 0.  1.
        -12    1    3    3    0    0 -0.11585025866E+01 -0.25538241631E+01 -0.53272942836E+01  0.60203164770E+01  0.00000000000E+00 0.  1.
</event>
<event>
 7    1  0.7357971E-011  0.4778727E+02  0.7816164E-02  0.1312668E+00
        -11   -1    0    0    0    0  0.00000000000E+00  0.00000000000E+00  0.45593999997E+02  0.45594000000E+02  0.51100000000E-03 0.  1.
         11   -1    0    0    0    0 -0.00000000000E+00 -0.00000000000E+00 -0.45593999997E+02  0.45594000000E+02  0.51100000000E-03 0. -1.
    9900012    2    1    2    0    0 -0.36327159919E+02  0.11032650566E+02 -0.21029537874E+02  0.47787269712E+02  0.19999993926E+02 0.  0.
         12    1    1    2    0    0  0.36327159919E+02 -0.11032650566E+02  0.21029537874E+02  0.43400730288E+02  0.00000000000E+00 0. -1.
         11    1    3    3    0    0 -0.74443936418E+01 -0.23449324871E+01 -0.87348459815E+01  0.11713890884E+02  0.51100000000E-03 0. -1.
        -11    1    3    3    0    0 -0.17032590114E+02  0.13081547484E+02 -0.46676793947E+01  0.21977789738E+02  0.51100000000E-03 0.  1.
        -12    1    3    3    0    0 -0.11850176163E+02  0.29603556870E+00 -0.76270124978E+01  0.14095589090E+02  0.00000000000E+00 0.  1.
</event>
<event>
 7    1  0.7357971E-011  0.4778729E+02  0.7816164E-02  0.1312668E+00
        -11   -1    0    0    0    0  0.00000000000E+00  0.00000000000E+00  0.45593999997E+02  0.45594000000E+02  0.51100000000E-03 0. -1.
         11   -1    0    0    0    0 -0.00000000000E+00 -0.00000000000E+00 -0.45593999997E+02  0.45594000000E+02  0.51100000000E-03 0.  1.
    9900012    2    1    2    0    0  0.30779788026E+02 -0.60073473918E+01  0.30002303168E+02  0.47787288382E+02  0.20000079048E+02 0.  0.
        -12    1    1    2    0    0 -0.30779788026E+02  0.60073473918E+01 -0.30002303168E+02  0.43400711618E+02  0.00000000000E+00 0.  1.
         11    1    3    3    0    0  0.12370048863E+01 -0.14958130385E+01  0.11755028642E+02  0.11914207333E+02  0.51100000000E-03 0. -1.
        -11    1    3    3    0    0  0.13580615438E+02 -0.35822089676E+01  0.43915270636E+01  0.14715666719E+02  0.51100000000E-03 0.  1.
         12    1    3    3    0    0  0.15962167701E+02 -0.92932538582E+00  0.13855747462E+02  0.21157414330E+02  0.00000000000E+00 0. -1.
</event>
<event>
 7    1  0.7357971E-011  0.4778727E+02  0.7816164E-02  0.1312668E+00
        -11   -1    0    0    0    0  0.00000000000E+00  0.00000000000E+00  0.45593999997E+02  0.45594000000E+02  0.51100000000E-03 0. -1.
         11   -1    0    0    0    0 -0.00000000000E+00 -0.00000000000E+00 -0.45593999997E+02  0.45594000000E+02  0.51100000000E-03 0.  1.
    9900012    2    1    2    0    0  0.11876590045E+02  0.99490867061E+01 -0.40541156806E+02  0.47787272903E+02  0.20000008475E+02 0.  0.
         12    1    1    2    0    0 -0.11876590045E+02 -0.99490867061E+01  0.40541156806E+02  0.43400727097E+02  0.00000000000E+00 0. -1.
         11    1    3    3    0    0  0.19184095637E+01 -0.13255177659E+01 -0.20735255708E+02  0.20865956056E+02  0.51100000000E-03 0. -1.
        -11    1    3    3    0    0  0.93686660313E+01  0.61199142863E+01 -0.72447676806E+01  0.13330863179E+02  0.51100000000E-03 0.  1.
        -12    1    3    3    0    0  0.58951444998E+00  0.51546901856E+01 -0.12561133417E+02  0.13590453669E+02  0.00000000000E+00 0.  1.
</event>
<event>
 7    1  0.7357971E-011  0.4778727E+02  0.7816164E-02  0.1312668E+00
        -11   -1    0    0    0    0  0.00000000000E+00  0.00000000000E+00  0.45593999997E+02  0.45594000000E+02  0.51100000000E-03 0. -1.
         11   -1    0    0    0    0 -0.00000000000E+00 -0.00000000000E+00 -0.45593999997E+02  0.45594000000E+02  0.51100000000E-03 0.  1.
    9900012    2    1    2    0    0 -0.97191082958E+01 -0.15243835229E+01 -0.42271010372E+02  0.47787272713E+02  0.20000007606E+02 0.  0.
         12    1    1    2    0    0  0.97191082958E+01  0.15243835229E+01  0.42271010372E+02  0.43400727287E+02  0.00000000000E+00 0. -1.
         11    1    3    3    0    0 -0.93178105223E+01  0.69626725010E+01 -0.18397314437E+02  0.21766064873E+02  0.51100000000E-03 0. -1.
        -11    1    3    3    0    0  0.22183958591E+01 -0.68937932706E+01 -0.17819078947E+02  0.19234480514E+02  0.51100000000E-03 0.  1.
        -12    1    3    3    0    0 -0.26196936326E+01 -0.15932627533E+01 -0.60546169876E+01  0.67867273260E+01  0.00000000000E+00 0.  1.
</event>
<event>
 7    1  0.7357971E-011  0.4778727E+02  0.7816164E-02  0.1312668E+00
        -11   -1    0    0    0    0  0.00000000000E+00  0.00000000000E+00  0.45593999997E+02  0.45594000000E+02  0.51100000000E-03 0. -1.
         11   -1    0    0    0    0 -0.00000000000E+00 -0.00000000000E+00 -0.45593999997E+02  0.45594000000E+02  0.51100000000E-03 0.  1.
    9900012    2    1    2    0    0  0.38191058586E+01  0.16224218518E+02  0.40072589807E+02  0.47787270860E+02  0.19999999157E+02 0.  0.
        -12    1    1    2    0    0 -0.38191058586E+01 -0.16224218518E+02 -0.40072589807E+02  0.43400729140E+02  0.00000000000E+00 0.  1.
         11    1    3    3    0    0 -0.10711584950E+01  0.34348771007E+00  0.20483228588E+00  0.11433813252E+01  0.51100000000E-03 0. -1.
        -11    1    3    3    0    0  0.13556098458E+01  0.78206484884E+01  0.26018831263E+01  0.83528448386E+01  0.51100000000E-03 0.  1.
        -12    1    3    3    0    0  0.35346545078E+01  0.80600823190E+01  0.37265874395E+02  0.38291044696E+02  0.00000000000E+00 0.  1.
</event>
<event>
 7    1  0.7357971E-011  0.4778727E+02  0.7816164E-02  0.1312668E+00
        -11   -1    0    0    0    0  0.00000000000E+00  0.00000000000E+00  0.45593999997E+02  0.45594000000E+02  0.51100000000E-03 0. -1.
         11   -1    0    0    0    0 -0.00000000000E+00 -0.00000000000E+00 -0.45593999997E+02  0.45594000000E+02  0.51100000000E-03 0.  1.
    9900012    2    1    2    0    0 -0.30858781889E+02 -0.10340595046E+02  0.28712907656E+02  0.47787269688E+02  0.19999993815E+02 0.  0.
        -12    1    1    2    0    0  0.30858781889E+02  0.10340595046E+02 -0.28712907656E+02  0.43400730312E+02  0.00000000000E+00 0.  1.
         11    1    3    3    0    0 -0.28179645192E+02 -0.10929072124E+02  0.17939913229E+02  0.35147937458E+02  0.51100000000E-03 0.  1.
        -11    1    3    3    0    0 -0.30590012749E+01  0.22252722014E+01  0.10175643222E+02  0.10856014020E+02  0.51100000000E-03 0. -1.
        -12    1    3    3    0    0  0.37986457810E+00 -0.16367951238E+01  0.59735120566E+00  0.17833182099E+01  0.00000000000E+00 0.  1.
</event>
<event>
 7    1  0.7357971E-011  0.4778726E+02  0.7816164E-02  0.1312668E+00
        -11   -1    0    0    0    0  0.00000000000E+00  0.00000000000E+00  0.45593999997E+02  0.45594000000E+02  0.51100000000E-03 0. -1.
         11   -1    0    0    0    0 -0.00000000000E+00 -0.00000000000E+00 -0.45593999997E+02  0.45594000000E+02  0.51100000000E-03 0.  1.
    9900012    2    1    2    0    0  0.24153639986E+02 -0.43538246723E+01 -0.35794836874E+02  0.47787257372E+02  0.19999937661E+02 0.  0.
         12    1    1    2    0    0 -0.24153639986E+02  0.43538246723E+01  0.35794836874E+02  0.43400742628E+02  0.00000000000E+00 0. -1.
         11    1    3    3    0    0  0.34521595000E+01  0.62491724790E+01 -0.38251422794E+01  0.80994614392E+01  0.51100000000E-03 0. -1.
        -11    1    3    3    0    0  0.12303652592E+02 -0.59656581398E+01 -0.15884504079E+02  0.20959160628E+02  0.51100000000E-03 0.  1.
         12    1    3    3    0    0  0.83978278939E+01 -0.46373390115E+01 -0.16085190516E+02  0.18728635305E+02  0.00000000000E+00 0. -1.
</event>
<event>
 7    1  0.7357971E-011  0.4778729E+02  0.7816164E-02  0.1312668E+00
        -11   -1    0    0    0    0  0.00000000000E+00  0.00000000000E+00  0.45593999997E+02  0.45594000000E+02  0.51100000000E-03 0. -1.
         11   -1    0    0    0    0 -0.00000000000E+00 -0.00000000000E+00 -0.45593999997E+02  0.45594000000E+02  0.51100000000E-03 0.  1.
    9900012    2    1    2    0    0  0.37610309421E+02  0.10111835552E+02 -0.19152989949E+02  0.47787290133E+02  0.20000087033E+02 0.  0.
         12    1    1    2    0    0 -0.37610309421E+02 -0.10111835552E+02  0.19152989949E+02  0.43400709867E+02  0.00000000000E+00 0. -1.
         11    1    3    3    0    0  0.20667315436E+02 -0.24009300291E+01 -0.59446993468E+01  0.21638896527E+02  0.51100000000E-03 0. -1.
        -11    1    3    3    0    0  0.56164949060E+01  0.88438021179E+01 -0.45230238784E+01  0.11411204853E+02  0.51100000000E-03 0.  1.
         12    1    3    3    0    0  0.11326499079E+02  0.36689634632E+01 -0.86852667239E+01  0.14737188753E+02  0.00000000000E+00 0. -1.
</event>
<event>
 7    1  0.7357971E-011  0.4778727E+02  0.7816164E-02  0.1312668E+00
        -11   -1    0    0    0    0  0.00000000000E+00  0.00000000000E+00  0.45593999997E+02  0.45594000000E+02  0.51100000000E-03 0.  1.
         11   -1    0    0    0    0 -0.00000000000E+00 -0.00000000000E+00 -0.45593999997E+02  0.45594000000E+02  0.51100000000E-03 0. -1.
    9900012    2    1    2    0    0  0.13807601370E+02 -0.40048793708E+02 -0.94375873477E+01  0.47787265121E+02  0.19999972994E+02 0.  0.
         12    1    1    2    0    0 -0.13807601370E+02  0.40048793708E+02  0.94375873477E+01  0.43400734879E+02  0.00000000000E+00 0. -1.
         11    1    3    3    0    0 -0.21425535696E+01 -0.15881360372E+02 -0.32111245142E+01  0.16343789767E+02  0.51100000000E-03 0. -1.
        -11    1    3    3    0    0  0.11682538836E+02 -0.23829891149E+02 -0.54151896740E+01  0.27086337982E+02  0.51100000000E-03 0.  1.
         12    1    3    3    0    0  0.42676161034E+01 -0.33754218769E+00 -0.81127315952E+00  0.43571373715E+01  0.00000000000E+00 0. -1.
</event>
<event>
 7    1  0.7357971E-011  0.4778727E+02  0.7816164E-02  0.1312668E+00
        -11   -1    0    0    0    0  0.00000000000E+00  0.00000000000E+00  0.45593999997E+02  0.45594000000E+02  0.51100000000E-03 0. -1.
         11   -1    0    0    0    0 -0.00000000000E+00 -0.00000000000E+00 -0.45593999997E+02  0.45594000000E+02  0.51100000000E-03 0.  1.
    9900012    2    1    2    0    0 -0.38501718381E+02 -0.99278950342E+01 -0.17397643865E+02  0.47787269244E+02  0.19999991790E+02 0.  0.
         12    1    1    2    0    0  0.38501718381E+02  0.99278950342E+01  0.17397643865E+02  0.43400730756E+02  0.00000000000E+00 0. -1.
         11    1    3    3    0    0 -0.87950519119E+01 -0.19064236656E+01  0.32962971986E+01  0.95839952426E+01  0.51100000000E-03 0. -1.
        -11    1    3    3    0    0 -0.28902217138E+02 -0.91962657406E+01 -0.18315308904E+02  0.35431059815E+02  0.51100000000E-03 0.  1.
         12    1    3    3    0    0 -0.80444933094E+00  0.11747943720E+01 -0.23786321603E+01  0.27722141866E+01  0.00000000000E+00 0. -1.
</event>
<event>
 7    1  0.7357971E-011  0.4778727E+02  0.7816164E-02  0.1312668E+00
        -11   -1    0    0    0    0  0.00000000000E+00  0.00000000000E+00  0.45593999997E+02  0.45594000000E+02  0.51100000000E-03 0. -1.
         11   -1    0    0    0    0 -0.00000000000E+00 -0.00000000000E+00 -0.45593999997E+02  0.45594000000E+02  0.51100000000E-03 0.  1.
    9900012    2    1    2    0    0 -0.33366861105E+02  0.13715710802E+02 -0.24127888513E+02  0.47787272508E+02  0.20000006672E+02 0.  0.
         12    1    1    2    0    0  0.33366861105E+02 -0.13715710802E+02  0.24127888513E+02  0.43400727492E+02  0.00000000000E+00 0. -1.
         11    1    3    3    0    0 -0.29567025363E+01 -0.16374304276E+01 -0.49192840553E+01  0.59684691649E+01  0.51100000000E-03 0. -1.
        -11    1    3    3    0    0 -0.12259159276E+02  0.10262749572E+02 -0.16774372693E+01  0.16075596753E+02  0.51100000000E-03 0.  1.
        -12    1    3    3    0    0 -0.18150999293E+02  0.50903916578E+01 -0.17531167188E+02  0.25743206590E+02  0.00000000000E+00 0.  1.
</event>
<event>
 7    1  0.7357971E-011  0.4778726E+02  0.7816164E-02  0.1312668E+00
        -11   -1    0    0    0    0  0.00000000000E+00  0.00000000000E+00  0.45593999997E+02  0.45594000000E+02  0.51100000000E-03 0. -1.
         11   -1    0    0    0    0 -0.00000000000E+00 -0.00000000000E+00 -0.45593999997E+02  0.45594000000E+02  0.51100000000E-03 0.  1.
    9900012    2    1    2    0    0 -0.45250267892E+01  0.44258719576E+01 -0.42936694655E+02  0.47787263164E+02  0.19999964068E+02 0.  0.
         12    1    1    2    0    0  0.45250267892E+01 -0.44258719576E+01  0.42936694655E+02  0.43400736836E+02  0.00000000000E+00 0. -1.
         11    1    3    3    0    0 -0.22652500675E+01  0.16358050934E+01 -0.24218548803E+02  0.24379198563E+02  0.51100000000E-03 0.  1.
        -11    1    3    3    0    0 -0.69265912046E+01 -0.11104523351E+01 -0.56988552155E+01  0.90381259746E+01  0.51100000000E-03 0. -1.
        -12    1    3    3    0    0  0.46668144829E+01  0.39005191992E+01 -0.13019290636E+02  0.14369938626E+02  0.00000000000E+00 0.  1.
</event>
<event>
 7    1  0.7357971E-011  0.4778727E+02  0.7816164E-02  0.1312668E+00
        -11   -1    0    0    0    0  0.00000000000E+00  0.00000000000E+00  0.45593999997E+02  0.45594000000E+02  0.51100000000E-03 0. -1.
         11   -1    0    0    0    0 -0.00000000000E+00 -0.00000000000E+00 -0.45593999997E+02  0.45594000000E+02  0.51100000000E-03 0.  1.
    9900012    2    1    2    0    0 -0.17062303178E+02  0.27824113903E+01  0.39809034205E+02  0.47787271812E+02  0.20000003501E+02 0.  0.
        -12    1    1    2    0    0  0.17062303178E+02 -0.27824113903E+01 -0.39809034205E+02  0.43400728188E+02  0.00000000000E+00 0.  1.
         11    1    3    3    0    0 -0.19819617211E+02 -0.21347367890E+01  0.28962188201E+02  0.35159389545E+02  0.51100000000E-03 0. -1.
        -11    1    3    3    0    0  0.28443196268E+01  0.31629353943E+01  0.52222913644E+01  0.67354763606E+01  0.51100000000E-03 0.  1.
         12    1    3    3    0    0 -0.87005593382E-01  0.17542127849E+01  0.56245546401E+01  0.58924059065E+01  0.00000000000E+00 0. -1.
</event>
<event>
 7    1  0.7357971E-011  0.4778726E+02  0.7816164E-02  0.1312668E+00
        -11   -1    0    0    0    0  0.00000000000E+00  0.00000000000E+00  0.45593999997E+02  0.45594000000E+02  0.51100000000E-03 0. -1.
         11   -1    0    0    0    0 -0.00000000000E+00 -0.00000000000E+00 -0.45593999997E+02  0.45594000000E+02  0.51100000000E-03 0.  1.
    9900012    2    1    2    0    0  0.31724865407E+02  0.17929501582E+02 -0.23573075028E+02  0.47787262928E+02  0.19999962995E+02 0.  0.
         12    1    1    2    0    0 -0.31724865407E+02 -0.17929501582E+02  0.23573075028E+02  0.43400737072E+02  0.00000000000E+00 0. -1.
         11    1    3    3    0    0  0.20161242556E+02  0.80127661561E+01 -0.19917770939E+02  0.29451616633E+02  0.51100000000E-03 0. -1.
        -11    1    3    3    0    0  0.47104231305E+01  0.31381796157E+01 -0.61709032432E+01  0.83735479019E+01  0.51100000000E-03 0.  1.
         12    1    3    3    0    0  0.68531997208E+01  0.67785558106E+01  0.25155991541E+01  0.99620983931E+01  0.00000000000E+00 0. -1.
</event>
<event>
 7    1  0.7357971E-011  0.4778727E+02  0.7816164E-02  0.1312668E+00
        -11   -1    0    0    0    0  0.00000000000E+00  0.00000000000E+00  0.45593999997E+02  0.45594000000E+02  0.51100000000E-03 0. -1.
         11   -1    0    0    0    0 -0.00000000000E+00 -0.00000000000E+00 -0.45593999997E+02  0.45594000000E+02  0.51100000000E-03 0.  1.
    9900012    2    1    2    0    0 -0.13901259100E+02 -0.15135855043E+02  0.38226744019E+02  0.47787273385E+02  0.20000010670E+02 0.  0.
        -12    1    1    2    0    0  0.13901259100E+02  0.15135855043E+02 -0.38226744019E+02  0.43400726615E+02  0.00000000000E+00 0.  1.
         11    1    3    3    0    0 -0.93771284174E+01 -0.16551809884E+02  0.24339509419E+02  0.30891822006E+02  0.51100000000E-03 0. -1.
        -11    1    3    3    0    0 -0.37887093765E+01  0.46676546659E+01  0.68862303306E+01  0.91411972546E+01  0.51100000000E-03 0.  1.
        -12    1    3    3    0    0 -0.73542130634E+00 -0.32516998251E+01  0.70010042687E+01  0.77542541241E+01  0.00000000000E+00 0.  1.
</event>
<event>
 7    1  0.7357971E-011  0.4778727E+02  0.7816164E-02  0.1312668E+00
        -11   -1    0    0    0    0  0.00000000000E+00  0.00000000000E+00  0.45593999997E+02  0.45594000000E+02  0.51100000000E-03 0. -1.
         11   -1    0    0    0    0 -0.00000000000E+00 -0.00000000000E+00 -0.45593999997E+02  0.45594000000E+02  0.51100000000E-03 0.  1.
    9900012    2    1    2    0    0  0.29407215682E+02 -0.12824803444E+02  0.29229491324E+02  0.47787273271E+02  0.20000010150E+02 0.  0.
        -12    1    1    2    0    0 -0.29407215682E+02  0.12824803444E+02 -0.29229491324E+02  0.43400726729E+02  0.00000000000E+00 0.  1.
         11    1    3    3    0    0  0.16140799456E+02 -0.28587720899E+01  0.23467070982E+02  0.28625188308E+02  0.51100000000E-03 0. -1.
        -11    1    3    3    0    0  0.12468151943E+02 -0.55753112346E+01  0.32442805155E+01  0.14037957991E+02  0.51100000000E-03 0.  1.
         12    1    3    3    0    0  0.79826428351E+00 -0.43907201195E+01  0.25181398265E+01  0.51241269715E+01  0.00000000000E+00 0. -1.
</event>
<event>
 7    1  0.7357971E-011  0.4778727E+02  0.7816164E-02  0.1312668E+00
        -11   -1    0    0    0    0  0.00000000000E+00  0.00000000000E+00  0.45593999997E+02  0.45594000000E+02  0.51100000000E-03 0. -1.
         11   -1    0    0    0    0 -0.00000000000E+00 -0.00000000000E+00 -0.45593999997E+02  0.45594000000E+02  0.51100000000E-03 0.  1.
    9900012    2    1    2    0    0  0.51812306419E+01  0.10557504521E+02 -0.41776999525E+02  0.47787265651E+02  0.19999975410E+02 0.  0.
         12    1    1    2    0    0 -0.51812306419E+01 -0.10557504521E+02  0.41776999525E+02  0.43400734349E+02  0.00000000000E+00 0. -1.
         11    1    3    3    0    0  0.38429694034E+01  0.79165086921E+01 -0.12702025847E+02  0.15452539746E+02  0.51100000000E-03 0. -1.
        -11    1    3    3    0    0  0.49371996104E+01  0.10319136317E+01 -0.27706226395E+02  0.28161600932E+02  0.51100000000E-03 0.  1.
        -12    1    3    3    0    0 -0.35989383718E+01  0.16090821975E+01 -0.13687472832E+01  0.41731249739E+01  0.00000000000E+00 0.  1.
</event>
<event>
 7    1  0.7357971E-011  0.4778726E+02  0.7816164E-02  0.1312668E+00
        -11   -1    0    0    0    0  0.00000000000E+00  0.00000000000E+00  0.45593999997E+02  0.45594000000E+02  0.51100000000E-03 0. -1.
         11   -1    0    0    0    0 -0.00000000000E+00 -0.00000000000E+00 -0.45593999997E+02  0.45594000000E+02  0.51100000000E-03 0.  1.
    9900012    2    1    2    0    0 -0.44369869932E+00 -0.32633706987E+02 -0.28608883255E+02  0.47787263815E+02  0.19999967040E+02 0.  0.
         12    1    1    2    0    0  0.44369869932E+00  0.32633706987E+02  0.28608883255E+02  0.43400736185E+02  0.00000000000E+00 0. -1.
         11    1    3    3    0    0 -0.30341166295E+01 -0.11498445587E+02 -0.15968351888E+02  0.19910006954E+02  0.51100000000E-03 0.  1.
        -11    1    3    3    0    0  0.26145315299E+01 -0.53307216243E+01  0.20681198622E+01  0.62872480611E+01  0.51100000000E-03 0. -1.
         12    1    3    3    0    0 -0.24113599657E-01 -0.15804539776E+02 -0.14708651229E+02  0.21590008800E+02  0.00000000000E+00 0. -1.
</event>
<event>
 7    1  0.7357971E-011  0.4778727E+02  0.7816164E-02  0.1312668E+00
        -11   -1    0    0    0    0  0.00000000000E+00  0.00000000000E+00  0.45593999997E+02  0.45594000000E+02  0.51100000000E-03 0. -1.
         11   -1    0    0    0    0 -0.00000000000E+00 -0.00000000000E+00 -0.45593999997E+02  0.45594000000E+02  0.51100000000E-03 0.  1.
    9900012    2    1    2    0    0  0.58627461316E+00  0.39026092147E+02 -0.18980097101E+02  0.47787266456E+02  0.19999979080E+02 0.  0.
         12    1    1    2    0    0 -0.58627461316E+00 -0.39026092147E+02  0.18980097101E+02  0.43400733544E+02  0.00000000000E+00 0. -1.
         11    1    3    3    0    0 -0.10088987966E+01  0.37505502622E+01  0.12003183393E+01  0.40651283409E+01  0.51100000000E-03 0. -1.
        -11    1    3    3    0    0  0.37399806584E+01  0.46041852692E+00 -0.92884643074E+00  0.38810045734E+01  0.51100000000E-03 0.  1.
        -12    1    3    3    0    0 -0.21448072487E+01  0.34815123358E+02 -0.19251569009E+02  0.39841133542E+02  0.00000000000E+00 0.  1.
</event>
<event>
 7    1  0.7357971E-011  0.4778727E+02  0.7816164E-02  0.1312668E+00
        -11   -1    0    0    0    0  0.00000000000E+00  0.00000000000E+00  0.45593999997E+02  0.45594000000E+02  0.51100000000E-03 0. -1.
         11   -1    0    0    0    0 -0.00000000000E+00 -0.00000000000E+00 -0.45593999997E+02  0.45594000000E+02  0.51100000000E-03 0.  1.
    9900012    2    1    2    0    0 -0.54399638261E+01  0.13379623729E+02 -0.40926955669E+02  0.47787271459E+02  0.20000001891E+02 0.  0.
         12    1    1    2    0    0  0.54399638261E+01 -0.13379623729E+02  0.40926955669E+02  0.43400728541E+02  0.00000000000E+00 0. -1.
         11    1    3    3    0    0 -0.72762040279E+01  0.14327251474E+01 -0.54901565931E+01  0.92270074282E+01  0.51100000000E-03 0. -1.
        -11    1    3    3    0    0 -0.25111640762E+01  0.96192287317E+01 -0.27202729173E+02  0.28962458134E+02  0.51100000000E-03 0.  1.
         12    1    3    3    0    0  0.43474042779E+01  0.23276698498E+01 -0.82340699023E+01  0.95978058973E+01  0.00000000000E+00 0. -1.
</event>
<event>
 7    1  0.7357971E-011  0.4778727E+02  0.7816164E-02  0.1312668E+00
        -11   -1    0    0    0    0  0.00000000000E+00  0.00000000000E+00  0.45593999997E+02  0.45594000000E+02  0.51100000000E-03 0. -1.
         11   -1    0    0    0    0 -0.00000000000E+00 -0.00000000000E+00 -0.45593999997E+02  0.45594000000E+02  0.51100000000E-03 0.  1.
    9900012    2    1    2    0    0 -0.12827050490E+02  0.25418342776E+02 -0.32756642278E+02  0.47787274349E+02  0.20000015065E+02 0.  0.
         12    1    1    2    0    0  0.12827050490E+02 -0.25418342776E+02  0.32756642278E+02  0.43400725651E+02  0.00000000000E+00 0. -1.
         11    1    3    3    0    0 -0.80516824142E+01  0.87623443222E+01 -0.57814826002E+01  0.13230034355E+02  0.51100000000E-03 0. -1.
        -11    1    3    3    0    0  0.35012050239E+01  0.59124258665E+01 -0.14860939497E+02  0.16372621637E+02  0.51100000000E-03 0.  1.
        -12    1    3    3    0    0 -0.82765730993E+01  0.10743572588E+02 -0.12114220180E+02  0.18184618357E+02  0.00000000000E+00 0.  1.
</event>
<event>
 7    1  0.7357971E-011  0.4778727E+02  0.7816164E-02  0.1312668E+00
        -11   -1    0    0    0    0  0.00000000000E+00  0.00000000000E+00  0.45593999997E+02  0.45594000000E+02  0.51100000000E-03 0. -1.
         11   -1    0    0    0    0 -0.00000000000E+00 -0.00000000000E+00 -0.45593999997E+02  0.45594000000E+02  0.51100000000E-03 0.  1.
    9900012    2    1    2    0    0 -0.21999314388E+02 -0.91134853775E+01  0.36284951028E+02  0.47787272813E+02  0.20000008064E+02 0.  0.
        -12    1    1    2    0    0  0.21999314388E+02  0.91134853775E+01 -0.36284951028E+02  0.43400727187E+02  0.00000000000E+00 0.  1.
         11    1    3    3    0    0 -0.21049807599E+02 -0.81292723863E+01  0.30809457072E+02  0.38189031342E+02  0.51100000000E-03 0. -1.
        -11    1    3    3    0    0 -0.15446287726E+01  0.15495380952E+01 -0.11558260223E+01  0.24744454749E+01  0.51100000000E-03 0.  1.
        -12    1    3    3    0    0  0.59512198411E+00 -0.25337510863E+01  0.66313199785E+01  0.71237959965E+01  0.00000000000E+00 0.  1.
</event>
<event>
 7    1  0.7357971E-011  0.4778727E+02  0.7816164E-02  0.1312668E+00
        -11   -1    0    0    0    0  0.00000000000E+00  0.00000000000E+00  0.45593999997E+02  0.45594000000E+02  0.51100000000E-03 0. -1.
         11   -1    0    0    0    0 -0.00000000000E+00 -0.00000000000E+00 -0.45593999997E+02  0.45594000000E+02  0.51100000000E-03 0.  1.
    9900012    2    1    2    0    0 -0.22909895848E+01 -0.40662428504E+02 -0.14998045743E+02  0.47787273033E+02  0.20000009069E+02 0.  0.
         12    1    1    2    0    0  0.22909895848E+01  0.40662428504E+02  0.14998045743E+02  0.43400726967E+02  0.00000000000E+00 0. -1.
         11    1    3    3    0    0 -0.44300415672E+01 -0.69184716640E+01  0.40150522695E+00  0.82250668788E+01  0.51100000000E-03 0. -1.
        -11    1    3    3    0    0  0.71036141665E+01 -0.11844684570E+02 -0.77663572291E+01  0.15845320813E+02  0.51100000000E-03 0.  1.
        -12    1    3    3    0    0 -0.49645621842E+01 -0.21899272270E+02 -0.76331937411E+01  0.23716885342E+02  0.00000000000E+00 0.  1.
</event>
<event>
 7    1  0.7357971E-011  0.4778728E+02  0.7816164E-02  0.1312668E+00
        -11   -1    0    0    0    0  0.00000000000E+00  0.00000000000E+00  0.45593999997E+02  0.45594000000E+02  0.51100000000E-03 0. -1.
         11   -1    0    0    0    0 -0.00000000000E+00 -0.00000000000E+00 -0.45593999997E+02  0.45594000000E+02  0.51100000000E-03 0.  1.
    9900012    2    1    2    0    0  0.12250160135E+02  0.96068117001E+01 -0.40512536537E+02  0.47787275685E+02  0.20000021159E+02 0.  0.
         12    1    1    2    0    0 -0.12250160135E+02 -0.96068117001E+01  0.40512536537E+02  0.43400724315E+02  0.00000000000E+00 0. -1.
         11    1    3    3    0    0  0.86125508957E+01 -0.82982374456E+00 -0.11248699600E+02  0.14191472205E+02  0.51100000000E-03 0. -1.
        -11    1    3    3    0    0  0.16000511468E+01  0.72865903705E+01 -0.28876118944E+02  0.29824231900E+02  0.51100000000E-03 0.  1.
        -12    1    3    3    0    0  0.20375580921E+01  0.31500450742E+01 -0.38771799363E+00  0.37715715810E+01  0.00000000000E+00 0.  1.
</event>
<event>
 7    1  0.7357971E-011  0.4778727E+02  0.7816164E-02  0.1312668E+00
        -11   -1    0    0    0    0  0.00000000000E+00  0.00000000000E+00  0.45593999997E+02  0.45594000000E+02  0.51100000000E-03 0.  1.
         11   -1    0    0    0    0 -0.00000000000E+00 -0.00000000000E+00 -0.45593999997E+02  0.45594000000E+02  0.51100000000E-03 0. -1.
    9900012    2    1    2    0    0 -0.36112674470E+02  0.23800600845E+02  0.36095831273E+01  0.47787274795E+02  0.20000017100E+02 0.  0.
        -12    1    1    2    0    0  0.36112674470E+02 -0.23800600845E+02 -0.36095831273E+01  0.43400725205E+02  0.00000000000E+00 0.  1.
         11    1    3    3    0    0 -0.17904196858E+01 -0.22894180466E+01  0.24309856333E+01  0.37890274548E+01  0.51100000000E-03 0.  1.
        -11    1    3    3    0    0  0.30653611473E+00  0.10395483338E+01 -0.56658183359E+00  0.12229637620E+01  0.51100000000E-03 0. -1.
         12    1    3    3    0    0 -0.34628790899E+02  0.25050470558E+02  0.17451793276E+01  0.42775283578E+02  0.00000000000E+00 0. -1.
</event>
<event>
 7    1  0.7357971E-011  0.4778726E+02  0.7816164E-02  0.1312668E+00
        -11   -1    0    0    0    0  0.00000000000E+00  0.00000000000E+00  0.45593999997E+02  0.45594000000E+02  0.51100000000E-03 0. -1.
         11   -1    0    0    0    0 -0.00000000000E+00 -0.00000000000E+00 -0.45593999997E+02  0.45594000000E+02  0.51100000000E-03 0.  1.
    9900012    2    1    2    0    0 -0.11768565808E+01  0.15626023010E+02  0.40473038238E+02  0.47787257947E+02  0.19999940285E+02 0.  0.
        -12    1    1    2    0    0  0.11768565808E+01 -0.15626023010E+02 -0.40473038238E+02  0.43400742053E+02  0.00000000000E+00 0.  1.
         11    1    3    3    0    0 -0.18603286797E+01  0.14689749537E+01  0.82092675914E+01  0.85446348582E+01  0.51100000000E-03 0. -1.
        -11    1    3    3    0    0 -0.27865084297E+01 -0.32551252836E+01  0.90902344937E+01  0.10049519056E+02  0.51100000000E-03 0.  1.
        -12    1    3    3    0    0  0.34699805285E+01  0.17412173340E+02  0.23173536153E+02  0.29193104033E+02  0.00000000000E+00 0.  1.
</event>
<event>
 7    1  0.7357971E-011  0.4778727E+02  0.7816164E-02  0.1312668E+00
        -11   -1    0    0    0    0  0.00000000000E+00  0.00000000000E+00  0.45593999997E+02  0.45594000000E+02  0.51100000000E-03 0. -1.
         11   -1    0    0    0    0 -0.00000000000E+00 -0.00000000000E+00 -0.45593999997E+02  0.45594000000E+02  0.51100000000E-03 0.  1.
    9900012    2    1    2    0    0 -0.37396287690E+02  0.34797700584E+01  0.21749311278E+02  0.47787266438E+02  0.19999978998E+02 0.  0.
        -12    1    1    2    0    0  0.37396287690E+02 -0.34797700584E+01 -0.21749311278E+02  0.43400733562E+02  0.00000000000E+00 0.  1.
         11    1    3    3    0    0 -0.12211654500E+02 -0.69956572099E+01  0.11950796685E+02  0.18463078484E+02  0.51100000000E-03 0. -1.
        -11    1    3    3    0    0 -0.14577426175E+02  0.67807151177E+01  0.79689291163E+01  0.17943892636E+02  0.51100000000E-03 0.  1.
         12    1    3    3    0    0 -0.10607207014E+02  0.36947121506E+01  0.18295854770E+01  0.11380295319E+02  0.00000000000E+00 0. -1.
</event>
<event>
 7    1  0.7357971E-011  0.4778727E+02  0.7816164E-02  0.1312668E+00
        -11   -1    0    0    0    0  0.00000000000E+00  0.00000000000E+00  0.45593999997E+02  0.45594000000E+02  0.51100000000E-03 0. -1.
         11   -1    0    0    0    0 -0.00000000000E+00 -0.00000000000E+00 -0.45593999997E+02  0.45594000000E+02  0.51100000000E-03 0.  1.
    9900012    2    1    2    0    0 -0.29088803754E+02  0.27019409775E+02 -0.17533284536E+02  0.47787273335E+02  0.20000010442E+02 0.  0.
         12    1    1    2    0    0  0.29088803754E+02 -0.27019409775E+02  0.17533284536E+02  0.43400726665E+02  0.00000000000E+00 0. -1.
         11    1    3    3    0    0 -0.12534034197E+01 -0.25820223712E+01 -0.36824377248E+01  0.46688550541E+01  0.51100000000E-03 0. -1.
        -11    1    3    3    0    0 -0.21607165403E+02  0.24531195025E+02 -0.12367770941E+02  0.34951550530E+02  0.51100000000E-03 0.  1.
         12    1    3    3    0    0 -0.62282349310E+01  0.50702371216E+01 -0.14830758707E+01  0.81668677511E+01  0.00000000000E+00 0. -1.
</event>
<event>
 7    1  0.7357971E-011  0.4778727E+02  0.7816164E-02  0.1312668E+00
        -11   -1    0    0    0    0  0.00000000000E+00  0.00000000000E+00  0.45593999997E+02  0.45594000000E+02  0.51100000000E-03 0. -1.
         11   -1    0    0    0    0 -0.00000000000E+00 -0.00000000000E+00 -0.45593999997E+02  0.45594000000E+02  0.51100000000E-03 0.  1.
    9900012    2    1    2    0    0 -0.27670171897E+00  0.16299606511E+02  0.40222755207E+02  0.47787265298E+02  0.19999973798E+02 0.  0.
        -12    1    1    2    0    0  0.27670171897E+00 -0.16299606511E+02 -0.40222755207E+02  0.43400734702E+02  0.00000000000E+00 0.  1.
         11    1    3    3    0    0 -0.55004021677E+01  0.12814141655E+02  0.13889704813E+02  0.19681985429E+02  0.51100000000E-03 0. -1.
        -11    1    3    3    0    0  0.17770420685E+01 -0.16451476356E+01  0.15019364075E+02  0.15213339106E+02  0.51100000000E-03 0.  1.
         12    1    3    3    0    0  0.34466583803E+01  0.51306124919E+01  0.11313686319E+02  0.12891940764E+02  0.00000000000E+00 0. -1.
</event>
<event>
 7    1  0.7357971E-011  0.4778727E+02  0.7816164E-02  0.1312668E+00
        -11   -1    0    0    0    0  0.00000000000E+00  0.00000000000E+00  0.45593999997E+02  0.45594000000E+02  0.51100000000E-03 0.  1.
         11   -1    0    0    0    0 -0.00000000000E+00 -0.00000000000E+00 -0.45593999997E+02  0.45594000000E+02  0.51100000000E-03 0. -1.
    9900012    2    1    2    0    0  0.39001425754E+02  0.69426927293E+01 -0.17728827664E+02  0.47787268168E+02  0.19999986885E+02 0.  0.
         12    1    1    2    0    0 -0.39001425754E+02 -0.69426927293E+01  0.17728827664E+02  0.43400731832E+02  0.00000000000E+00 0. -1.
         11    1    3    3    0    0  0.16640336479E+01  0.51702401401E+01 -0.10374066847E+01  0.55296115576E+01  0.51100000000E-03 0.  1.
        -11    1    3    3    0    0  0.19471814707E+02 -0.36096369600E+01 -0.11456042793E+02  0.22878416984E+02  0.51100000000E-03 0. -1.
         12    1    3    3    0    0  0.17865577399E+02  0.53820895492E+01 -0.52353781861E+01  0.19379239626E+02  0.00000000000E+00 0. -1.
</event>
<event>
 7    1  0.7357971E-011  0.4778727E+02  0.7816164E-02  0.1312668E+00
        -11   -1    0    0    0    0  0.00000000000E+00  0.00000000000E+00  0.45593999997E+02  0.45594000000E+02  0.51100000000E-03 0.  1.
         11   -1    0    0    0    0 -0.00000000000E+00 -0.00000000000E+00 -0.45593999997E+02  0.45594000000E+02  0.51100000000E-03 0. -1.
    9900012    2    1    2    0    0  0.30264721833E+02 -0.17316085681E+02 -0.25842281442E+02  0.47787265893E+02  0.19999976511E+02 0.  0.
         12    1    1    2    0    0 -0.30264721833E+02  0.17316085681E+02  0.25842281442E+02  0.43400734107E+02  0.00000000000E+00 0. -1.
         11    1    3    3    0    0  0.15016844949E+02 -0.54972109190E+01 -0.17132990342E+01  0.16082921188E+02  0.51100000000E-03 0. -1.
        -11    1    3    3    0    0  0.11861864722E+02 -0.97446605772E+01 -0.13814560942E+02  0.20651981473E+02  0.51100000000E-03 0.  1.
         12    1    3    3    0    0  0.33860121616E+01 -0.20742141846E+01 -0.10314421466E+02  0.11052363232E+02  0.00000000000E+00 0. -1.
</event>
<event>
 7    1  0.7357971E-011  0.4778727E+02  0.7816164E-02  0.1312668E+00
        -11   -1    0    0    0    0  0.00000000000E+00  0.00000000000E+00  0.45593999997E+02  0.45594000000E+02  0.51100000000E-03 0. -1.
         11   -1    0    0    0    0 -0.00000000000E+00 -0.00000000000E+00 -0.45593999997E+02  0.45594000000E+02  0.51100000000E-03 0.  1.
    9900012    2    1    2    0    0  0.28942806688E+02 -0.22728344616E+02  0.23007809153E+02  0.47787274315E+02  0.20000014913E+02 0.  0.
        -12    1    1    2    0    0 -0.28942806688E+02  0.22728344616E+02 -0.23007809153E+02  0.43400725685E+02  0.00000000000E+00 0.  1.
         11    1    3    3    0    0  0.90139317871E+01 -0.77928372909E+01  0.68393593650E+01  0.13738854250E+02  0.51100000000E-03 0. -1.
        -11    1    3    3    0    0  0.21692376132E+02 -0.13525512241E+02  0.99482823759E+01  0.27431131696E+02  0.51100000000E-03 0.  1.
        -12    1    3    3    0    0 -0.17635012317E+01 -0.14099950839E+01  0.62201674121E+01  0.66172883696E+01  0.00000000000E+00 0.  1.
</event>
<event>
 7    1  0.7357971E-011  0.4778727E+02  0.7816164E-02  0.1312668E+00
        -11   -1    0    0    0    0  0.00000000000E+00  0.00000000000E+00  0.45593999997E+02  0.45594000000E+02  0.51100000000E-03 0. -1.
         11   -1    0    0    0    0 -0.00000000000E+00 -0.00000000000E+00 -0.45593999997E+02  0.45594000000E+02  0.51100000000E-03 0.  1.
    9900012    2    1    2    0    0 -0.21446187768E+02 -0.37291049893E+02  0.57499799206E+01  0.47787266815E+02  0.19999980716E+02 0.  0.
        -12    1    1    2    0    0  0.21446187768E+02  0.37291049893E+02 -0.57499799206E+01  0.43400733185E+02  0.00000000000E+00 0.  1.
         11    1    3    3    0    0 -0.85325002693E+01 -0.29816575721E+02 -0.71199700364E+00  0.31021584237E+02  0.51100000000E-03 0. -1.
        -11    1    3    3    0    0 -0.30010455189E+01 -0.65939225283E+00  0.28874713377E+01  0.42164633683E+01  0.51100000000E-03 0.  1.
         12    1    3    3    0    0 -0.99126419794E+01 -0.68150819192E+01  0.35745055866E+01  0.12549219209E+02  0.00000000000E+00 0. -1.
</event>
<event>
 7    1  0.7357971E-011  0.4778727E+02  0.7816164E-02  0.1312668E+00
        -11   -1    0    0    0    0  0.00000000000E+00  0.00000000000E+00  0.45593999997E+02  0.45594000000E+02  0.51100000000E-03 0.  1.
         11   -1    0    0    0    0 -0.00000000000E+00 -0.00000000000E+00 -0.45593999997E+02  0.45594000000E+02  0.51100000000E-03 0. -1.
    9900012    2    1    2    0    0 -0.36272496357E+02  0.22060310453E+02 -0.90151130931E+01  0.47787267825E+02  0.19999985321E+02 0.  0.
         12    1    1    2    0    0  0.36272496357E+02 -0.22060310453E+02  0.90151130931E+01  0.43400732175E+02  0.00000000000E+00 0. -1.
         11    1    3    3    0    0 -0.10314000405E+02  0.40976236213E+01 -0.89853026514E+01  0.14279523371E+02  0.51100000000E-03 0. -1.
        -11    1    3    3    0    0 -0.50540745465E+01 -0.67180029090E-01 -0.27746121204E+01  0.57659912727E+01  0.51100000000E-03 0.  1.
         12    1    3    3    0    0 -0.20904421406E+02  0.18029866861E+02  0.27448016787E+01  0.27741753182E+02  0.00000000000E+00 0. -1.
</event>
<event>
 7    1  0.7357971E-011  0.4778727E+02  0.7816164E-02  0.1312668E+00
        -11   -1    0    0    0    0  0.00000000000E+00  0.00000000000E+00  0.45593999997E+02  0.45594000000E+02  0.51100000000E-03 0. -1.
         11   -1    0    0    0    0 -0.00000000000E+00 -0.00000000000E+00 -0.45593999997E+02  0.45594000000E+02  0.51100000000E-03 0.  1.
    9900012    2    1    2    0    0 -0.22573441888E+02  0.22267270955E+02  0.29634973613E+02  0.47787270795E+02  0.19999998864E+02 0.  0.
        -12    1    1    2    0    0  0.22573441888E+02 -0.22267270955E+02 -0.29634973613E+02  0.43400729205E+02  0.00000000000E+00 0.  1.
         11    1    3    3    0    0 -0.15353713234E+02  0.18774059372E+02  0.14089006569E+02  0.28048207104E+02  0.51100000000E-03 0. -1.
        -11    1    3    3    0    0  0.40616579218E+00 -0.24508826150E+01  0.28555126546E+01  0.37849371230E+01  0.51100000000E-03 0.  1.
        -12    1    3    3    0    0 -0.76258944462E+01  0.59440941975E+01  0.12690454390E+02  0.15954126569E+02  0.00000000000E+00 0.  1.
</event>
<event>
 7    1  0.7357971E-011  0.4778727E+02  0.7816164E-02  0.1312668E+00
        -11   -1    0    0    0    0  0.00000000000E+00  0.00000000000E+00  0.45593999997E+02  0.45594000000E+02  0.51100000000E-03 0. -1.
         11   -1    0    0    0    0 -0.00000000000E+00 -0.00000000000E+00 -0.45593999997E+02  0.45594000000E+02  0.51100000000E-03 0.  1.
    9900012    2    1    2    0    0 -0.35229956197E+02  0.10859205595E+02 -0.22903075336E+02  0.47787273973E+02  0.20000013354E+02 0.  0.
         12    1    1    2    0    0  0.35229956197E+02 -0.10859205595E+02  0.22903075336E+02  0.43400726027E+02  0.00000000000E+00 0. -1.
         11    1    3    3    0    0 -0.69302816835E+01 -0.37171725445E+00 -0.13879494379E+01  0.70776678245E+01  0.51100000000E-03 0. -1.
        -11    1    3    3    0    0 -0.19319936914E+01 -0.36690011297E+00  0.25179640332E+01  0.31948956869E+01  0.51100000000E-03 0.  1.
        -12    1    3    3    0    0 -0.26367680822E+02  0.11597822962E+02 -0.24033089931E+02  0.37514710462E+02  0.00000000000E+00 0.  1.
</event>
<event>
 7    1  0.7357971E-011  0.4778724E+02  0.7816164E-02  0.1312668E+00
        -11   -1    0    0    0    0  0.00000000000E+00  0.00000000000E+00  0.45593999997E+02  0.45594000000E+02  0.51100000000E-03 0. -1.
         11   -1    0    0    0    0 -0.00000000000E+00 -0.00000000000E+00 -0.45593999997E+02  0.45594000000E+02  0.51100000000E-03 0.  1.
    9900012    2    1    2    0    0 -0.13761635492E+02  0.22574982176E+02  0.34418215690E+02  0.47787239604E+02  0.19999856651E+02 0.  0.
        -12    1    1    2    0    0  0.13761635492E+02 -0.22574982176E+02 -0.34418215690E+02  0.43400760396E+02  0.00000000000E+00 0.  1.
         11    1    3    3    0    0 -0.29592274150E+01  0.16819842264E+01  0.23911528992E+01  0.41597728640E+01  0.51100000000E-03 0. -1.
        -11    1    3    3    0    0 -0.85201956954E+01  0.57472886699E+00  0.55897667111E+01  0.10206348030E+02  0.51100000000E-03 0.  1.
        -12    1    3    3    0    0 -0.22822123819E+01  0.20318269082E+02  0.26437296080E+02  0.33421118710E+02  0.00000000000E+00 0.  1.
</event>
<event>
 7    1  0.7357971E-011  0.4778727E+02  0.7816164E-02  0.1312668E+00
        -11   -1    0    0    0    0  0.00000000000E+00  0.00000000000E+00  0.45593999997E+02  0.45594000000E+02  0.51100000000E-03 0. -1.
         11   -1    0    0    0    0 -0.00000000000E+00 -0.00000000000E+00 -0.45593999997E+02  0.45594000000E+02  0.51100000000E-03 0.  1.
    9900012    2    1    2    0    0 -0.15747439472E+02  0.17425318697E+02 -0.36496570654E+02  0.47787271307E+02  0.20000001196E+02 0.  0.
         12    1    1    2    0    0  0.15747439472E+02 -0.17425318697E+02  0.36496570654E+02  0.43400728693E+02  0.00000000000E+00 0. -1.
         11    1    3    3    0    0 -0.80321187605E-01  0.19889143353E+01  0.22967986935E+01  0.30393282524E+01  0.51100000000E-03 0. -1.
        -11    1    3    3    0    0 -0.12441907048E+02  0.11263764092E+02 -0.32137960654E+02  0.36256336657E+02  0.51100000000E-03 0.  1.
         12    1    3    3    0    0 -0.32252112355E+01  0.41726402699E+01 -0.66554086933E+01  0.84916063975E+01  0.00000000000E+00 0. -1.
</event>
<event>
 7    1  0.7357971E-011  0.4778727E+02  0.7816164E-02  0.1312668E+00
        -11   -1    0    0    0    0  0.00000000000E+00  0.00000000000E+00  0.45593999997E+02  0.45594000000E+02  0.51100000000E-03 0.  1.
         11   -1    0    0    0    0 -0.00000000000E+00 -0.00000000000E+00 -0.45593999997E+02  0.45594000000E+02  0.51100000000E-03 0. -1.
    9900012    2    1    2    0    0  0.41257580562E+02  0.12303948877E+02  0.54816186780E+01  0.47787271261E+02  0.20000000986E+02 0.  0.
        -12    1    1    2    0    0 -0.41257580562E+02 -0.12303948877E+02 -0.54816186780E+01  0.43400728739E+02  0.00000000000E+00 0.  1.
         11    1    3    3    0    0  0.24231470696E+02  0.30707771476E+00 -0.12547707208E+01  0.24265879721E+02  0.51100000000E-03 0. -1.
        -11    1    3    3    0    0  0.30083634201E+01  0.66458850464E+01  0.63054903882E+00  0.73222695163E+01  0.51100000000E-03 0.  1.
        -12    1    3    3    0    0  0.14017746446E+02  0.53509861162E+01  0.61058403600E+01  0.16199122024E+02  0.00000000000E+00 0.  1.
</event>
<event>
 7    1  0.7357971E-011  0.4778727E+02  0.7816164E-02  0.1312668E+00
        -11   -1    0    0    0    0  0.00000000000E+00  0.00000000000E+00  0.45593999997E+02  0.45594000000E+02  0.51100000000E-03 0. -1.
         11   -1    0    0    0    0 -0.00000000000E+00 -0.00000000000E+00 -0.45593999997E+02  0.45594000000E+02  0.51100000000E-03 0.  1.
    9900012    2    1    2    0    0 -0.25011763302E+02  0.22599519900E+02 -0.27336722791E+02  0.47787274014E+02  0.20000013538E+02 0.  0.
         12    1    1    2    0    0  0.25011763302E+02 -0.22599519900E+02  0.27336722791E+02  0.43400725986E+02  0.00000000000E+00 0. -1.
         11    1    3    3    0    0 -0.22814951302E+02  0.16816360472E+02 -0.25257258340E+02  0.37963681085E+02  0.51100000000E-03 0.  1.
        -11    1    3    3    0    0 -0.34608556808E+01  0.49903501529E+00 -0.26117396366E+01  0.43643719113E+01  0.51100000000E-03 0. -1.
         12    1    3    3    0    0  0.12640436801E+01  0.52841244131E+01  0.53227518641E+00  0.54592210170E+01  0.00000000000E+00 0. -1.
</event>
<event>
 7    1  0.7357971E-011  0.4778727E+02  0.7816164E-02  0.1312668E+00
        -11   -1    0    0    0    0  0.00000000000E+00  0.00000000000E+00  0.45593999997E+02  0.45594000000E+02  0.51100000000E-03 0. -1.
         11   -1    0    0    0    0 -0.00000000000E+00 -0.00000000000E+00 -0.45593999997E+02  0.45594000000E+02  0.51100000000E-03 0.  1.
    9900012    2    1    2    0    0  0.88577119205E+01 -0.13972187168E+00 -0.42486993116E+02  0.47787272279E+02  0.20000005631E+02 0.  0.
         12    1    1    2    0    0 -0.88577119205E+01  0.13972187168E+00  0.42486993116E+02  0.43400727721E+02  0.00000000000E+00 0. -1.
         11    1    3    3    0    0 -0.33293253242E+01 -0.33144515688E+01 -0.45820627310E+01  0.65624153669E+01  0.51100000000E-03 0. -1.
        -11    1    3    3    0    0  0.76932026930E+01  0.59513488274E+01 -0.16281316247E+02  0.18965367899E+02  0.51100000000E-03 0.  1.
        -12    1    3    3    0    0  0.44938345518E+01 -0.27766191303E+01 -0.21623614138E+02  0.22259489014E+02  0.00000000000E+00 0.  1.
</event>
<event>
 7    1  0.7357971E-011  0.4778727E+02  0.7816164E-02  0.1312668E+00
        -11   -1    0    0    0    0  0.00000000000E+00  0.00000000000E+00  0.45593999997E+02  0.45594000000E+02  0.51100000000E-03 0. -1.
         11   -1    0    0    0    0 -0.00000000000E+00 -0.00000000000E+00 -0.45593999997E+02  0.45594000000E+02  0.51100000000E-03 0.  1.
    9900012    2    1    2    0    0  0.19249301713E+02 -0.31772614941E+02  0.22440783209E+02  0.47787269273E+02  0.19999991924E+02 0.  0.
        -12    1    1    2    0    0 -0.19249301713E+02  0.31772614941E+02 -0.22440783209E+02  0.43400730727E+02  0.00000000000E+00 0.  1.
         11    1    3    3    0    0  0.69712036285E+01 -0.43546561340E+00  0.64093841902E+01  0.94798479043E+01  0.51100000000E-03 0. -1.
        -11    1    3    3    0    0  0.25275285499E+01 -0.71099869764E+00  0.16054824643E+01  0.30775792310E+01  0.51100000000E-03 0.  1.
         12    1    3    3    0    0  0.97505695347E+01 -0.30626150629E+02  0.14425916554E+02  0.35229842138E+02  0.00000000000E+00 0. -1.
</event>
<event>
 7    1  0.7357971E-011  0.4778727E+02  0.7816164E-02  0.1312668E+00
        -11   -1    0    0    0    0  0.00000000000E+00  0.00000000000E+00  0.45593999997E+02  0.45594000000E+02  0.51100000000E-03 0. -1.
         11   -1    0    0    0    0 -0.00000000000E+00 -0.00000000000E+00 -0.45593999997E+02  0.45594000000E+02  0.51100000000E-03 0.  1.
    9900012    2    1    2    0    0 -0.12228929325E+02 -0.37010095162E+02  0.19087421916E+02  0.47787268074E+02  0.19999986454E+02 0.  0.
        -12    1    1    2    0    0  0.12228929325E+02  0.37010095162E+02 -0.19087421916E+02  0.43400731926E+02  0.00000000000E+00 0.  1.
         11    1    3    3    0    0 -0.67787123092E+01 -0.25913770805E+02  0.34303930327E+01  0.27004482119E+02  0.51100000000E-03 0. -1.
        -11    1    3    3    0    0 -0.68324999057E+00 -0.86510200635E+00  0.54644852075E+01  0.55745700170E+01  0.51100000000E-03 0.  1.
        -12    1    3    3    0    0 -0.47669670255E+01 -0.10231222351E+02  0.10192543675E+02  0.15208215937E+02  0.00000000000E+00 0.  1.
</event>
<event>
 7    1  0.7357971E-011  0.4778727E+02  0.7816164E-02  0.1312668E+00
        -11   -1    0    0    0    0  0.00000000000E+00  0.00000000000E+00  0.45593999997E+02  0.45594000000E+02  0.51100000000E-03 0. -1.
         11   -1    0    0    0    0 -0.00000000000E+00 -0.00000000000E+00 -0.45593999997E+02  0.45594000000E+02  0.51100000000E-03 0.  1.
    9900012    2    1    2    0    0  0.24195786074E+02 -0.26950529152E+02  0.23913512993E+02  0.47787272023E+02  0.20000004460E+02 0.  0.
        -12    1    1    2    0    0 -0.24195786074E+02  0.26950529152E+02 -0.23913512993E+02  0.43400727977E+02  0.00000000000E+00 0.  1.
         11    1    3    3    0    0  0.14181284955E+02 -0.15387370579E+02  0.76504977044E+01  0.22280263277E+02  0.51100000000E-03 0. -1.
        -11    1    3    3    0    0  0.82031092830E+01 -0.48901615621E+01  0.15943763491E+02  0.18585162807E+02  0.51100000000E-03 0.  1.
        -12    1    3    3    0    0  0.18113918354E+01 -0.66729970112E+01  0.31925179747E+00  0.69218459390E+01  0.00000000000E+00 0.  1.
</event>
<event>
 7    1  0.7357971E-011  0.4778727E+02  0.7816164E-02  0.1312668E+00
        -11   -1    0    0    0    0  0.00000000000E+00  0.00000000000E+00  0.45593999997E+02  0.45594000000E+02  0.51100000000E-03 0. -1.
         11   -1    0    0    0    0 -0.00000000000E+00 -0.00000000000E+00 -0.45593999997E+02  0.45594000000E+02  0.51100000000E-03 0.  1.
    9900012    2    1    2    0    0 -0.19091654401E+02 -0.14357409056E+02 -0.36235297713E+02  0.47787271171E+02  0.20000000576E+02 0.  0.
         12    1    1    2    0    0  0.19091654401E+02  0.14357409056E+02  0.36235297713E+02  0.43400728829E+02  0.00000000000E+00 0. -1.
         11    1    3    3    0    0 -0.11359914812E+02 -0.82089472236E+01 -0.15577068507E+02  0.20954224934E+02  0.51100000000E-03 0. -1.
        -11    1    3    3    0    0 -0.20728413734E+00 -0.44352667742E+01 -0.18200252856E+02  0.18734026859E+02  0.51100000000E-03 0.  1.
        -12    1    3    3    0    0 -0.75244554514E+01 -0.17131950580E+01 -0.24579763507E+01  0.80990193781E+01  0.00000000000E+00 0.  1.
</event>
<event>
 7    1  0.7357971E-011  0.4778727E+02  0.7816164E-02  0.1312668E+00
        -11   -1    0    0    0    0  0.00000000000E+00  0.00000000000E+00  0.45593999997E+02  0.45594000000E+02  0.51100000000E-03 0. -1.
         11   -1    0    0    0    0 -0.00000000000E+00 -0.00000000000E+00 -0.45593999997E+02  0.45594000000E+02  0.51100000000E-03 0.  1.
    9900012    2    1    2    0    0  0.54579234142E+01 -0.38124928831E+02  0.20008102065E+02  0.47787271036E+02  0.19999999961E+02 0.  0.
        -12    1    1    2    0    0 -0.54579234142E+01  0.38124928831E+02 -0.20008102065E+02  0.43400728964E+02  0.00000000000E+00 0.  1.
         11    1    3    3    0    0  0.55864206216E+01 -0.22146919529E+02  0.13114973421E+02  0.26338121955E+02  0.51100000000E-03 0. -1.
        -11    1    3    3    0    0  0.32548872964E+01 -0.16419724673E+02  0.46762715603E+01  0.17380137100E+02  0.51100000000E-03 0.  1.
         12    1    3    3    0    0 -0.33833845037E+01  0.44171537192E+00  0.22168570838E+01  0.40690119808E+01  0.00000000000E+00 0. -1.
</event>
<event>
 7    1  0.7357971E-011  0.4778727E+02  0.7816164E-02  0.1312668E+00
        -11   -1    0    0    0    0  0.00000000000E+00  0.00000000000E+00  0.45593999997E+02  0.45594000000E+02  0.51100000000E-03 0. -1.
         11   -1    0    0    0    0 -0.00000000000E+00 -0.00000000000E+00 -0.45593999997E+02  0.45594000000E+02  0.51100000000E-03 0.  1.
    9900012    2    1    2    0    0  0.12872377553E+02  0.38467335958E+02 -0.15433380712E+02  0.47787270976E+02  0.19999999690E+02 0.  0.
         12    1    1    2    0    0 -0.12872377553E+02 -0.38467335958E+02  0.15433380712E+02  0.43400729024E+02  0.00000000000E+00 0. -1.
         11    1    3    3    0    0  0.68363880479E+01  0.52399949853E+01 -0.86088723102E+01  0.12178112814E+02  0.51100000000E-03 0. -1.
        -11    1    3    3    0    0 -0.39594532433E+00  0.94625574169E+01 -0.55038581382E+01  0.10953959112E+02  0.51100000000E-03 0.  1.
         12    1    3    3    0    0  0.64319348290E+01  0.23764783556E+02 -0.13206502638E+01  0.24655199051E+02  0.00000000000E+00 0. -1.
</event>
<event>
 7    1  0.7357971E-011  0.4778727E+02  0.7816164E-02  0.1312668E+00
        -11   -1    0    0    0    0  0.00000000000E+00  0.00000000000E+00  0.45593999997E+02  0.45594000000E+02  0.51100000000E-03 0. -1.
         11   -1    0    0    0    0 -0.00000000000E+00 -0.00000000000E+00 -0.45593999997E+02  0.45594000000E+02  0.51100000000E-03 0.  1.
    9900012    2    1    2    0    0 -0.29299759223E+02 -0.19009288485E+02  0.25764207736E+02  0.47787270288E+02  0.19999996552E+02 0.  0.
        -12    1    1    2    0    0  0.29299759223E+02  0.19009288485E+02 -0.25764207736E+02  0.43400729712E+02  0.00000000000E+00 0.  1.
         11    1    3    3    0    0 -0.28768981492E+02 -0.12526711438E+02  0.25832674779E+02  0.40643571227E+02  0.51100000000E-03 0. -1.
        -11    1    3    3    0    0 -0.15700946856E+01 -0.51428459577E+01 -0.48095883912E+00  0.53986464538E+01  0.51100000000E-03 0.  1.
         12    1    3    3    0    0  0.10393169541E+01 -0.13397310892E+01  0.41249179545E+00  0.17450526078E+01  0.00000000000E+00 0. -1.
</event>
<event>
 7    1  0.7357971E-011  0.4778727E+02  0.7816164E-02  0.1312668E+00
        -11   -1    0    0    0    0  0.00000000000E+00  0.00000000000E+00  0.45593999997E+02  0.45594000000E+02  0.51100000000E-03 0. -1.
         11   -1    0    0    0    0 -0.00000000000E+00 -0.00000000000E+00 -0.45593999997E+02  0.45594000000E+02  0.51100000000E-03 0.  1.
    9900012    2    1    2    0    0  0.11537488753E+02 -0.27347672840E+02 -0.31664084149E+02  0.47787273261E+02  0.20000010107E+02 0.  0.
         12    1    1    2    0    0 -0.11537488753E+02  0.27347672840E+02  0.31664084149E+02  0.43400726739E+02  0.00000000000E+00 0. -1.
         11    1    3    3    0    0 -0.39563172164E+01 -0.14890216113E+02 -0.16563006333E+02  0.22620878870E+02  0.51100000000E-03 0. -1.
        -11    1    3    3    0    0  0.90490954533E+01 -0.61186897736E+01 -0.66312455042E+01  0.12778807075E+02  0.51100000000E-03 0.  1.
        -12    1    3    3    0    0  0.64447105159E+01 -0.63387669528E+01 -0.84698323121E+01  0.12387587316E+02  0.00000000000E+00 0.  1.
</event>
<event>
 7    1  0.7357971E-011  0.4778727E+02  0.7816164E-02  0.1312668E+00
        -11   -1    0    0    0    0  0.00000000000E+00  0.00000000000E+00  0.45593999997E+02  0.45594000000E+02  0.51100000000E-03 0. -1.
         11   -1    0    0    0    0 -0.00000000000E+00 -0.00000000000E+00 -0.45593999997E+02  0.45594000000E+02  0.51100000000E-03 0.  1.
    9900012    2    1    2    0    0 -0.21718162084E+02  0.13061727753E+02 -0.35232597632E+02  0.47787271526E+02  0.20000002195E+02 0.  0.
         12    1    1    2    0    0  0.21718162084E+02 -0.13061727753E+02  0.35232597632E+02  0.43400728474E+02  0.00000000000E+00 0. -1.
         11    1    3    3    0    0 -0.17033385432E+02 -0.92659699217E+00 -0.18465858045E+02  0.25139266395E+02  0.51100000000E-03 0. -1.
        -11    1    3    3    0    0 -0.23202175259E+01  0.11636763441E+02 -0.12539861183E+02  0.17264002766E+02  0.51100000000E-03 0.  1.
         12    1    3    3    0    0 -0.23645591260E+01  0.23515613035E+01 -0.42268784040E+01  0.53840023651E+01  0.00000000000E+00 0. -1.
</event>
<event>
 7    1  0.7357971E-011  0.4778727E+02  0.7816164E-02  0.1312668E+00
        -11   -1    0    0    0    0  0.00000000000E+00  0.00000000000E+00  0.45593999997E+02  0.45594000000E+02  0.51100000000E-03 0. -1.
         11   -1    0    0    0    0 -0.00000000000E+00 -0.00000000000E+00 -0.45593999997E+02  0.45594000000E+02  0.51100000000E-03 0.  1.
    9900012    2    1    2    0    0  0.18773588071E+02  0.32128705900E+02  0.22336555470E+02  0.47787273484E+02  0.20000011122E+02 0.  0.
        -12    1    1    2    0    0 -0.18773588071E+02 -0.32128705900E+02 -0.22336555470E+02  0.43400726516E+02  0.00000000000E+00 0.  1.
         11    1    3    3    0    0  0.13921636468E+02  0.30841635177E+02  0.17947881375E+02  0.38303327119E+02  0.51100000000E-03 0. -1.
        -11    1    3    3    0    0  0.58504687779E+01 -0.31620937940E+00  0.47722356869E+01  0.75566002279E+01  0.51100000000E-03 0.  1.
         12    1    3    3    0    0 -0.99851717465E+00  0.16032801027E+01 -0.38356159116E+00  0.19273461365E+01  0.00000000000E+00 0. -1.
</event>
<event>
 7    1  0.7357971E-011  0.4778726E+02  0.7816164E-02  0.1312668E+00
        -11   -1    0    0    0    0  0.00000000000E+00  0.00000000000E+00  0.45593999997E+02  0.45594000000E+02  0.51100000000E-03 0. -1.
         11   -1    0    0    0    0 -0.00000000000E+00 -0.00000000000E+00 -0.45593999997E+02  0.45594000000E+02  0.51100000000E-03 0.  1.
    9900012    2    1    2    0    0 -0.76643592701E+01  0.12231962209E+02 -0.40929951415E+02  0.47787260083E+02  0.19999950022E+02 0.  0.
         12    1    1    2    0    0  0.76643592701E+01 -0.12231962209E+02  0.40929951415E+02  0.43400739917E+02  0.00000000000E+00 0. -1.
         11    1    3    3    0    0 -0.54639216603E+00  0.12337604010E+02 -0.15199364683E+02  0.19584067610E+02  0.51100000000E-03 0. -1.
        -11    1    3    3    0    0 -0.82728263650E+01 -0.25820488475E+01 -0.17452579148E+02  0.19485870560E+02  0.51100000000E-03 0.  1.
        -12    1    3    3    0    0  0.11548592610E+01  0.24764070467E+01 -0.82780075844E+01  0.87173219134E+01  0.00000000000E+00 0.  1.
</event>
<event>
 7    1  0.9144140E-011  0.4778727E+02  0.7816164E-02  0.1312668E+00
        -11   -1    0    0    0    0  0.00000000000E+00  0.00000000000E+00  0.45593999997E+02  0.45594000000E+02  0.51100000000E-03 0. -1.
         11   -1    0    0    0    0 -0.00000000000E+00 -0.00000000000E+00 -0.45593999997E+02  0.45594000000E+02  0.51100000000E-03 0.  1.
    9900012    2    1    2    0    0  0.31692042192E+02  0.15579917200E+02 -0.25229027749E+02  0.47787271903E+02  0.20000003913E+02 0.  0.
         12    1    1    2    0    0 -0.31692042192E+02 -0.15579917200E+02  0.25229027749E+02  0.43400728097E+02  0.00000000000E+00 0. -1.
         11    1    3    3    0    0  0.12509031614E+01 -0.15543093318E+01  0.15303646949E+01  0.25144885322E+01  0.51100000000E-03 0. -1.
        -11    1    3    3    0    0  0.30222354144E+02  0.16299909034E+02 -0.22793862538E+02  0.41214534987E+02  0.51100000000E-03 0.  1.
        -12    1    3    3    0    0  0.21878488627E+00  0.83431749784E+00 -0.39655299050E+01  0.40582483834E+01  0.00000000000E+00 0.  1.
</event>
<event>
 7    1  0.7357971E-011  0.4778729E+02  0.7816164E-02  0.1312668E+00
        -11   -1    0    0    0    0  0.00000000000E+00  0.00000000000E+00  0.45593999997E+02  0.45594000000E+02  0.51100000000E-03 0.  1.
         11   -1    0    0    0    0 -0.00000000000E+00 -0.00000000000E+00 -0.45593999997E+02  0.45594000000E+02  0.51100000000E-03 0. -1.
    9900012    2    1    2    0    0 -0.10348190118E+02 -0.41597660366E+02 -0.67949447519E+01  0.47787289628E+02  0.20000084729E+02 0.  0.
         12    1    1    2    0    0  0.10348190118E+02  0.41597660366E+02  0.67949447519E+01  0.43400710372E+02  0.00000000000E+00 0. -1.
         11    1    3    3    0    0 -0.33699649693E+01 -0.11104053024E+02 -0.88574972581E+01  0.14598353174E+02  0.51100000000E-03 0. -1.
        -11    1    3    3    0    0 -0.55598444672E+01 -0.64775023155E+01 -0.20572490908E+01  0.87807847502E+01  0.51100000000E-03 0.  1.
         12    1    3    3    0    0 -0.14183806816E+01 -0.24016105026E+02  0.41198015970E+01  0.24408151703E+02  0.00000000000E+00 0. -1.
</event>
<event>
 7    1  0.7357971E-011  0.4778727E+02  0.7816164E-02  0.1312668E+00
        -11   -1    0    0    0    0  0.00000000000E+00  0.00000000000E+00  0.45593999997E+02  0.45594000000E+02  0.51100000000E-03 0. -1.
         11   -1    0    0    0    0 -0.00000000000E+00 -0.00000000000E+00 -0.45593999997E+02  0.45594000000E+02  0.51100000000E-03 0.  1.
    9900012    2    1    2    0    0 -0.12878128371E+02 -0.39701881429E+02  0.11896957751E+02  0.47787272091E+02  0.20000004770E+02 0.  0.
        -12    1    1    2    0    0  0.12878128371E+02  0.39701881429E+02 -0.11896957751E+02  0.43400727909E+02  0.00000000000E+00 0.  1.
         11    1    3    3    0    0 -0.15380262022E+02 -0.26159445453E+02  0.11881205518E+02  0.32588833841E+02  0.51100000000E-03 0. -1.
        -11    1    3    3    0    0  0.82224785496E+00 -0.61079788009E+01 -0.31783115154E+01  0.69343464664E+01  0.51100000000E-03 0.  1.
         12    1    3    3    0    0  0.16798857963E+01 -0.74344571753E+01  0.31940637480E+01  0.82640917835E+01  0.00000000000E+00 0. -1.
</event>
<event>
 7    1  0.7357971E-011  0.4778727E+02  0.7816164E-02  0.1312668E+00
        -11   -1    0    0    0    0  0.00000000000E+00  0.00000000000E+00  0.45593999997E+02  0.45594000000E+02  0.51100000000E-03 0. -1.
         11   -1    0    0    0    0 -0.00000000000E+00 -0.00000000000E+00 -0.45593999997E+02  0.45594000000E+02  0.51100000000E-03 0.  1.
    9900012    2    1    2    0    0 -0.39680619716E+00 -0.30014399407E+01  0.43295001606E+02  0.47787271193E+02  0.20000000678E+02 0.  0.
        -12    1    1    2    0    0  0.39680619716E+00  0.30014399407E+01 -0.43295001606E+02  0.43400728807E+02  0.00000000000E+00 0.  1.
         11    1    3    3    0    0 -0.77985832279E+01 -0.20872262022E+01  0.26365633777E+02  0.27573919893E+02  0.51100000000E-03 0. -1.
        -11    1    3    3    0    0  0.63122503462E+01 -0.21744928543E+01  0.17267688693E+02  0.18513400462E+02  0.51100000000E-03 0.  1.
        -12    1    3    3    0    0  0.10895266845E+01  0.12602791158E+01 -0.33832086280E+00  0.16999508382E+01  0.00000000000E+00 0.  1.
</event>
<event>
 7    1  0.7357971E-011  0.4778726E+02  0.7816164E-02  0.1312668E+00
        -11   -1    0    0    0    0  0.00000000000E+00  0.00000000000E+00  0.45593999997E+02  0.45594000000E+02  0.51100000000E-03 0. -1.
         11   -1    0    0    0    0 -0.00000000000E+00 -0.00000000000E+00 -0.45593999997E+02  0.45594000000E+02  0.51100000000E-03 0.  1.
    9900012    2    1    2    0    0 -0.20272738216E+00 -0.12181759780E+02 -0.41655581359E+02  0.47787264659E+02  0.19999970888E+02 0.  0.
         12    1    1    2    0    0  0.20272738216E+00  0.12181759780E+02  0.41655581359E+02  0.43400735341E+02  0.00000000000E+00 0. -1.
         11    1    3    3    0    0 -0.42793194128E+01  0.29998835790E+01 -0.77251062575E+01  0.93267970426E+01  0.51100000000E-03 0. -1.
        -11    1    3    3    0    0  0.26070043731E+01 -0.91050408162E+01 -0.10194437731E+02  0.13914912899E+02  0.51100000000E-03 0.  1.
        -12    1    3    3    0    0  0.14695876575E+01 -0.60766025428E+01 -0.23736037371E+02  0.24545554718E+02  0.00000000000E+00 0.  1.
</event>
<event>
 7    1  0.7600558E-011  0.4778727E+02  0.7816164E-02  0.1312668E+00
        -11   -1    0    0    0    0  0.00000000000E+00  0.00000000000E+00  0.45593999997E+02  0.45594000000E+02  0.51100000000E-03 0. -1.
         11   -1    0    0    0    0 -0.00000000000E+00 -0.00000000000E+00 -0.45593999997E+02  0.45594000000E+02  0.51100000000E-03 0.  1.
    9900012    2    1    2    0    0 -0.15414442198E+02 -0.90366969370E+00  0.40561089713E+02  0.47787266759E+02  0.19999980459E+02 0.  0.
        -12    1    1    2    0    0  0.15414442198E+02  0.90366969370E+00 -0.40561089713E+02  0.43400733241E+02  0.00000000000E+00 0.  1.
         11    1    3    3    0    0 -0.11662569758E+02 -0.62641313069E+00  0.10126311076E+02  0.15458010966E+02  0.51100000000E-03 0. -1.
        -11    1    3    3    0    0 -0.16057072464E+01 -0.11144964725E+01  0.15363807964E+00  0.19606129320E+01  0.51100000000E-03 0.  1.
         12    1    3    3    0    0 -0.21461651932E+01  0.83723990949E+00  0.30281140558E+02  0.30368642860E+02  0.00000000000E+00 0. -1.
</event>
<event>
 7    1  0.7357971E-011  0.4778727E+02  0.7816164E-02  0.1312668E+00
        -11   -1    0    0    0    0  0.00000000000E+00  0.00000000000E+00  0.45593999997E+02  0.45594000000E+02  0.51100000000E-03 0. -1.
         11   -1    0    0    0    0 -0.00000000000E+00 -0.00000000000E+00 -0.45593999997E+02  0.45594000000E+02  0.51100000000E-03 0.  1.
    9900012    2    1    2    0    0 -0.11602038147E+02 -0.10069191277E+02  0.40590974863E+02  0.47787272559E+02  0.20000006904E+02 0.  0.
        -12    1    1    2    0    0  0.11602038147E+02  0.10069191277E+02 -0.40590974863E+02  0.43400727441E+02  0.00000000000E+00 0.  1.
         11    1    3    3    0    0 -0.81774291910E+01 -0.14223745649E+02  0.23475303223E+02  0.28640446053E+02  0.51100000000E-03 0. -1.
        -11    1    3    3    0    0 -0.10562218011E+01  0.80409771490E+00  0.13821337159E+02  0.13884939278E+02  0.51100000000E-03 0.  1.
         12    1    3    3    0    0 -0.23683871549E+01  0.33504566571E+01  0.32943344811E+01  0.52618872280E+01  0.00000000000E+00 0. -1.
</event>
<event>
 7    1  0.7357971E-011  0.4778727E+02  0.7816164E-02  0.1312668E+00
        -11   -1    0    0    0    0  0.00000000000E+00  0.00000000000E+00  0.45593999997E+02  0.45594000000E+02  0.51100000000E-03 0. -1.
         11   -1    0    0    0    0 -0.00000000000E+00 -0.00000000000E+00 -0.45593999997E+02  0.45594000000E+02  0.51100000000E-03 0.  1.
    9900012    2    1    2    0    0  0.13688311079E+02 -0.80859678426E+01  0.40384036201E+02  0.47787272863E+02  0.20000008291E+02 0.  0.
        -12    1    1    2    0    0 -0.13688311079E+02  0.80859678426E+01 -0.40384036201E+02  0.43400727137E+02  0.00000000000E+00 0.  1.
         11    1    3    3    0    0  0.97260414839E+01 -0.88619421135E+01  0.31218418185E+02  0.33878009611E+02  0.51100000000E-03 0. -1.
        -11    1    3    3    0    0 -0.13932590957E+01 -0.15666325434E+01 -0.89033871855E+00  0.22777646342E+01  0.51100000000E-03 0.  1.
        -12    1    3    3    0    0  0.53555286912E+01  0.23426068143E+01  0.10055956735E+02  0.11631498618E+02  0.00000000000E+00 0.  1.
</event>
<event>
 7    1  0.7357971E-011  0.4778731E+02  0.7816164E-02  0.1312668E+00
        -11   -1    0    0    0    0  0.00000000000E+00  0.00000000000E+00  0.45593999997E+02  0.45594000000E+02  0.51100000000E-03 0. -1.
         11   -1    0    0    0    0 -0.00000000000E+00 -0.00000000000E+00 -0.45593999997E+02  0.45594000000E+02  0.51100000000E-03 0.  1.
    9900012    2    1    2    0    0 -0.21943287037E+02  0.70264839806E+01  0.36779623498E+02  0.47787308442E+02  0.20000170508E+02 0.  0.
        -12    1    1    2    0    0  0.21943287037E+02 -0.70264839806E+01 -0.36779623498E+02  0.43400691558E+02  0.00000000000E+00 0.  1.
         11    1    3    3    0    0 -0.15114172849E+02 -0.41523254725E+01  0.12661274707E+02  0.20149141550E+02  0.51100000000E-03 0. -1.
        -11    1    3    3    0    0 -0.37664765996E+01  0.50576568196E+01  0.14699212019E+02  0.15994782672E+02  0.51100000000E-03 0.  1.
         12    1    3    3    0    0 -0.30626375880E+01  0.61211526335E+01  0.94191367721E+01  0.11643384220E+02  0.00000000000E+00 0. -1.
</event>
<event>
 7    1  0.7357971E-011  0.4778727E+02  0.7816164E-02  0.1312668E+00
        -11   -1    0    0    0    0  0.00000000000E+00  0.00000000000E+00  0.45593999997E+02  0.45594000000E+02  0.51100000000E-03 0. -1.
         11   -1    0    0    0    0 -0.00000000000E+00 -0.00000000000E+00 -0.45593999997E+02  0.45594000000E+02  0.51100000000E-03 0.  1.
    9900012    2    1    2    0    0  0.38175267938E+02 -0.11022519791E+02  0.17457855065E+02  0.47787265811E+02  0.19999976137E+02 0.  0.
        -12    1    1    2    0    0 -0.38175267938E+02  0.11022519791E+02 -0.17457855065E+02  0.43400734189E+02  0.00000000000E+00 0.  1.
         11    1    3    3    0    0  0.20089885906E+02 -0.69079937893E+01  0.95523040477E+00  0.21265849602E+02  0.51100000000E-03 0. -1.
        -11    1    3    3    0    0 -0.11955522594E+00  0.74349108719E+00 -0.68486003282E+00  0.10178929091E+01  0.51100000000E-03 0.  1.
         12    1    3    3    0    0  0.18204937258E+02 -0.48580170893E+01  0.17187484693E+02  0.25503523299E+02  0.00000000000E+00 0. -1.
</event>
<event>
 7    1  0.7508769E-011  0.4778727E+02  0.7816164E-02  0.1312668E+00
        -11   -1    0    0    0    0  0.00000000000E+00  0.00000000000E+00  0.45593999997E+02  0.45594000000E+02  0.51100000000E-03 0. -1.
         11   -1    0    0    0    0 -0.00000000000E+00 -0.00000000000E+00 -0.45593999997E+02  0.45594000000E+02  0.51100000000E-03 0.  1.
    9900012    2    1    2    0    0 -0.26306578522E+02 -0.10221311879E+02  0.32971382009E+02  0.47787270494E+02  0.19999997492E+02 0.  0.
        -12    1    1    2    0    0  0.26306578522E+02  0.10221311879E+02 -0.32971382009E+02  0.43400729506E+02  0.00000000000E+00 0.  1.
         11    1    3    3    0    0 -0.57852397918E+01 -0.94101116220E+01  0.14399181161E+02  0.18148157443E+02  0.51100000000E-03 0. -1.
        -11    1    3    3    0    0 -0.45721264122E+01  0.28698982758E+01  0.76551420647E+00  0.54522168248E+01  0.51100000000E-03 0.  1.
         12    1    3    3    0    0 -0.15949212318E+02 -0.36810985327E+01  0.17806686641E+02  0.24186896227E+02  0.00000000000E+00 0. -1.
</event>
<event>
 7    1  0.7357971E-011  0.4778727E+02  0.7816164E-02  0.1312668E+00
        -11   -1    0    0    0    0  0.00000000000E+00  0.00000000000E+00  0.45593999997E+02  0.45594000000E+02  0.51100000000E-03 0. -1.
         11   -1    0    0    0    0 -0.00000000000E+00 -0.00000000000E+00 -0.45593999997E+02  0.45594000000E+02  0.51100000000E-03 0.  1.
    9900012    2    1    2    0    0 -0.40740728736E+01 -0.30339565493E+02  0.30765826437E+02  0.47787269817E+02  0.19999994404E+02 0.  0.
        -12    1    1    2    0    0  0.40740728736E+01  0.30339565493E+02 -0.30765826437E+02  0.43400730183E+02  0.00000000000E+00 0.  1.
         11    1    3    3    0    0 -0.34981749859E+00 -0.74701260836E+00  0.10896444607E+02  0.10927621217E+02  0.51100000000E-03 0. -1.
        -11    1    3    3    0    0  0.12372894494E+01 -0.38735117998E+01  0.14242842513E+00  0.40688161622E+01  0.51100000000E-03 0.  1.
         12    1    3    3    0    0 -0.49615448243E+01 -0.25719041085E+02  0.19726953405E+02  0.32790832438E+02  0.00000000000E+00 0. -1.
</event>
<event>
 7    1  0.7357971E-011  0.4778724E+02  0.7816164E-02  0.1312668E+00
        -11   -1    0    0    0    0  0.00000000000E+00  0.00000000000E+00  0.45593999997E+02  0.45594000000E+02  0.51100000000E-03 0. -1.
         11   -1    0    0    0    0 -0.00000000000E+00 -0.00000000000E+00 -0.45593999997E+02  0.45594000000E+02  0.51100000000E-03 0.  1.
    9900012    2    1    2    0    0  0.54112641364E+01 -0.13477993342E+02  0.40898510055E+02  0.47787237233E+02  0.19999845838E+02 0.  0.
        -12    1    1    2    0    0 -0.54112641364E+01  0.13477993342E+02 -0.40898510055E+02  0.43400762767E+02  0.00000000000E+00 0.  1.
         11    1    3    3    0    0  0.26801977000E+00 -0.85802151849E+01  0.24363419621E+02  0.25831533890E+02  0.51100000000E-03 0. -1.
        -11    1    3    3    0    0  0.43564686927E+01  0.29453623018E+01  0.11382453466E+02  0.12538509709E+02  0.51100000000E-03 0.  1.
        -12    1    3    3    0    0  0.78677567370E+00 -0.78431404588E+01  0.51526369686E+01  0.94171936344E+01  0.00000000000E+00 0.  1.
</event>
<event>
 7    1  0.7357971E-011  0.4778726E+02  0.7816164E-02  0.1312668E+00
        -11   -1    0    0    0    0  0.00000000000E+00  0.00000000000E+00  0.45593999997E+02  0.45594000000E+02  0.51100000000E-03 0. -1.
         11   -1    0    0    0    0 -0.00000000000E+00 -0.00000000000E+00 -0.45593999997E+02  0.45594000000E+02  0.51100000000E-03 0.  1.
    9900012    2    1    2    0    0  0.36458282857E+01  0.34185252705E+02 -0.26489632698E+02  0.47787260296E+02  0.19999950995E+02 0.  0.
         12    1    1    2    0    0 -0.36458282857E+01 -0.34185252705E+02  0.26489632698E+02  0.43400739704E+02  0.00000000000E+00 0. -1.
         11    1    3    3    0    0 -0.39173293867E+01  0.97939602659E+01 -0.91548160638E+01  0.13967024903E+02  0.51100000000E-03 0. -1.
        -11    1    3    3    0    0 -0.12379145258E+01  0.18278568296E+02 -0.10673072135E+02  0.21202663993E+02  0.51100000000E-03 0.  1.
        -12    1    3    3    0    0  0.88010721982E+01  0.61127241428E+01 -0.66617444984E+01  0.12617571400E+02  0.00000000000E+00 0.  1.
</event>
<event>
 7    1  0.7357971E-011  0.4778727E+02  0.7816164E-02  0.1312668E+00
        -11   -1    0    0    0    0  0.00000000000E+00  0.00000000000E+00  0.45593999997E+02  0.45594000000E+02  0.51100000000E-03 0. -1.
         11   -1    0    0    0    0 -0.00000000000E+00 -0.00000000000E+00 -0.45593999997E+02  0.45594000000E+02  0.51100000000E-03 0.  1.
    9900012    2    1    2    0    0 -0.34950191196E+02  0.12139008029E+02  0.22688145645E+02  0.47787270359E+02  0.19999996875E+02 0.  0.
        -12    1    1    2    0    0  0.34950191196E+02 -0.12139008029E+02 -0.22688145645E+02  0.43400729641E+02  0.00000000000E+00 0.  1.
         11    1    3    3    0    0 -0.10346253888E+02  0.27505489687E+01 -0.11356948894E+01  0.10765699805E+02  0.51100000000E-03 0. -1.
        -11    1    3    3    0    0 -0.97036892610E+01 -0.29501598022E+00  0.12961991976E+02  0.16194500793E+02  0.51100000000E-03 0.  1.
         12    1    3    3    0    0 -0.14900248047E+02  0.96834750403E+01  0.10861848558E+02  0.20827069761E+02  0.00000000000E+00 0. -1.
</event>
<event>
 7    1  0.7357971E-011  0.4778727E+02  0.7816164E-02  0.1312668E+00
        -11   -1    0    0    0    0  0.00000000000E+00  0.00000000000E+00  0.45593999997E+02  0.45594000000E+02  0.51100000000E-03 0. -1.
         11   -1    0    0    0    0 -0.00000000000E+00 -0.00000000000E+00 -0.45593999997E+02  0.45594000000E+02  0.51100000000E-03 0.  1.
    9900012    2    1    2    0    0 -0.39318407150E+02  0.47204087807E+01  0.17759619773E+02  0.47787268505E+02  0.19999988420E+02 0.  0.
        -12    1    1    2    0    0  0.39318407150E+02 -0.47204087807E+01 -0.17759619773E+02  0.43400731495E+02  0.00000000000E+00 0.  1.
         11    1    3    3    0    0 -0.33040360409E+02 -0.27250048498E+01  0.18426648551E+02  0.37929308515E+02  0.51100000000E-03 0. -1.
        -11    1    3    3    0    0 -0.49896554562E+01  0.50394071407E+01 -0.24218887820E+00  0.70958397399E+01  0.51100000000E-03 0.  1.
         12    1    3    3    0    0 -0.12883912851E+01  0.24060064898E+01 -0.42483989969E+00  0.27621202495E+01  0.00000000000E+00 0. -1.
</event>
<event>
 7    1  0.7357971E-011  0.4778729E+02  0.7816164E-02  0.1312668E+00
        -11   -1    0    0    0    0  0.00000000000E+00  0.00000000000E+00  0.45593999997E+02  0.45594000000E+02  0.51100000000E-03 0.  1.
         11   -1    0    0    0    0 -0.00000000000E+00 -0.00000000000E+00 -0.45593999997E+02  0.45594000000E+02  0.51100000000E-03 0. -1.
    9900012    2    1    2    0    0  0.40037428884E+01 -0.33259775074E+02 -0.27593097607E+02  0.47787289975E+02  0.20000086314E+02 0.  0.
         12    1    1    2    0    0 -0.40037428884E+01  0.33259775074E+02  0.27593097607E+02  0.43400710025E+02  0.00000000000E+00 0. -1.
         11    1    3    3    0    0 -0.56687750570E+01 -0.53633097844E+01 -0.81774963954E+01  0.11303607833E+02  0.51100000000E-03 0. -1.
        -11    1    3    3    0    0  0.68598851707E+01 -0.16864363691E+02 -0.66596939583E+01  0.19385982336E+02  0.51100000000E-03 0.  1.
        -12    1    3    3    0    0  0.28126327747E+01 -0.11032101599E+02 -0.12755907253E+02  0.17097699806E+02  0.00000000000E+00 0.  1.
</event>
<event>
 7    1  0.7357971E-011  0.4778727E+02  0.7816164E-02  0.1312668E+00
        -11   -1    0    0    0    0  0.00000000000E+00  0.00000000000E+00  0.45593999997E+02  0.45594000000E+02  0.51100000000E-03 0. -1.
         11   -1    0    0    0    0 -0.00000000000E+00 -0.00000000000E+00 -0.45593999997E+02  0.45594000000E+02  0.51100000000E-03 0.  1.
    9900012    2    1    2    0    0 -0.50075954321E+01  0.26113588642E+02  0.34302007562E+02  0.47787271359E+02  0.20000001434E+02 0.  0.
        -12    1    1    2    0    0  0.50075954321E+01 -0.26113588642E+02 -0.34302007562E+02  0.43400728641E+02  0.00000000000E+00 0.  1.
         11    1    3    3    0    0 -0.42507390006E+01  0.15725625482E+02  0.17821929636E+02  0.24145087597E+02  0.51100000000E-03 0. -1.
        -11    1    3    3    0    0 -0.37880089852E+01  0.12620212247E+02  0.13163584895E+02  0.18625217765E+02  0.51100000000E-03 0.  1.
        -12    1    3    3    0    0  0.30311525537E+01 -0.22322490872E+01  0.33164930308E+01  0.50169659970E+01  0.00000000000E+00 0.  1.
</event>
<event>
 7    1  0.7357971E-011  0.4778727E+02  0.7816164E-02  0.1312668E+00
        -11   -1    0    0    0    0  0.00000000000E+00  0.00000000000E+00  0.45593999997E+02  0.45594000000E+02  0.51100000000E-03 0. -1.
         11   -1    0    0    0    0 -0.00000000000E+00 -0.00000000000E+00 -0.45593999997E+02  0.45594000000E+02  0.51100000000E-03 0.  1.
    9900012    2    1    2    0    0 -0.30315853101E+02  0.23521345798E+02  0.20280997756E+02  0.47787268124E+02  0.19999986683E+02 0.  0.
        -12    1    1    2    0    0  0.30315853101E+02 -0.23521345798E+02 -0.20280997756E+02  0.43400731876E+02  0.00000000000E+00 0.  1.
         11    1    3    3    0    0 -0.12136700854E+02  0.18639091890E+02  0.47593997304E+01  0.22745705972E+02  0.51100000000E-03 0. -1.
        -11    1    3    3    0    0 -0.17266333807E+01 -0.95918043295E+00  0.57066322358E+00  0.20559539660E+01  0.51100000000E-03 0.  1.
         12    1    3    3    0    0 -0.16452518866E+02  0.58414343409E+01  0.14950934802E+02  0.22985608186E+02  0.00000000000E+00 0. -1.
</event>
<event>
 7    1  0.7357971E-011  0.4778727E+02  0.7816164E-02  0.1312668E+00
        -11   -1    0    0    0    0  0.00000000000E+00  0.00000000000E+00  0.45593999997E+02  0.45594000000E+02  0.51100000000E-03 0. -1.
         11   -1    0    0    0    0 -0.00000000000E+00 -0.00000000000E+00 -0.45593999997E+02  0.45594000000E+02  0.51100000000E-03 0.  1.
    9900012    2    1    2    0    0 -0.26508936274E+02  0.22298897097E+02  0.26146864536E+02  0.47787273749E+02  0.20000012330E+02 0.  0.
        -12    1    1    2    0    0  0.26508936274E+02 -0.22298897097E+02 -0.26146864536E+02  0.43400726251E+02  0.00000000000E+00 0.  1.
         11    1    3    3    0    0 -0.34654865196E+01 -0.62547729394E+00 -0.19475114819E+01  0.40241297066E+01  0.51100000000E-03 0.  1.
        -11    1    3    3    0    0 -0.16338175979E+02  0.17669915867E+02  0.15738466663E+02  0.28755195256E+02  0.51100000000E-03 0. -1.
         12    1    3    3    0    0 -0.67052737753E+01  0.52544585240E+01  0.12355909355E+02  0.15007948786E+02  0.00000000000E+00 0. -1.
</event>
<event>
 7    1  0.7357971E-011  0.4778727E+02  0.7816164E-02  0.1312668E+00
        -11   -1    0    0    0    0  0.00000000000E+00  0.00000000000E+00  0.45593999997E+02  0.45594000000E+02  0.51100000000E-03 0. -1.
         11   -1    0    0    0    0 -0.00000000000E+00 -0.00000000000E+00 -0.45593999997E+02  0.45594000000E+02  0.51100000000E-03 0.  1.
    9900012    2    1    2    0    0 -0.30989421408E+02 -0.10570408492E+02  0.28487637137E+02  0.47787271382E+02  0.20000001541E+02 0.  0.
        -12    1    1    2    0    0  0.30989421408E+02  0.10570408492E+02 -0.28487637137E+02  0.43400728618E+02  0.00000000000E+00 0.  1.
         11    1    3    3    0    0 -0.14601877087E+02 -0.12000739767E+02  0.13862971000E+02  0.23439593312E+02  0.51100000000E-03 0. -1.
        -11    1    3    3    0    0  0.35824293161E+00 -0.16280851752E+01  0.38658568861E+01  0.42099701972E+01  0.51100000000E-03 0.  1.
         12    1    3    3    0    0 -0.16745787252E+02  0.30584164507E+01  0.10758809251E+02  0.20137707873E+02  0.00000000000E+00 0. -1.
</event>
<event>
 7    1  0.7357971E-011  0.4778727E+02  0.7816164E-02  0.1312668E+00
        -11   -1    0    0    0    0  0.00000000000E+00  0.00000000000E+00  0.45593999997E+02  0.45594000000E+02  0.51100000000E-03 0. -1.
         11   -1    0    0    0    0 -0.00000000000E+00 -0.00000000000E+00 -0.45593999997E+02  0.45594000000E+02  0.51100000000E-03 0.  1.
    9900012    2    1    2    0    0 -0.21992999536E+02 -0.32836357391E+02  0.17936137438E+02  0.47787269344E+02  0.19999992245E+02 0.  0.
        -12    1    1    2    0    0  0.21992999536E+02  0.32836357391E+02 -0.17936137438E+02  0.43400730656E+02  0.00000000000E+00 0.  1.
         11    1    3    3    0    0 -0.63205771836E+01  0.95463870431E+00  0.40715325262E+00  0.64052170159E+01  0.51100000000E-03 0. -1.
        -11    1    3    3    0    0 -0.10549808344E+02 -0.26023270354E+02  0.11829160210E+02  0.30470282040E+02  0.51100000000E-03 0.  1.
         12    1    3    3    0    0 -0.51226140086E+01 -0.77677257409E+01  0.56998239756E+01  0.10911770288E+02  0.00000000000E+00 0. -1.
</event>
<event>
 7    1  0.7357971E-011  0.4778727E+02  0.7816164E-02  0.1312668E+00
        -11   -1    0    0    0    0  0.00000000000E+00  0.00000000000E+00  0.45593999997E+02  0.45594000000E+02  0.51100000000E-03 0. -1.
         11   -1    0    0    0    0 -0.00000000000E+00 -0.00000000000E+00 -0.45593999997E+02  0.45594000000E+02  0.51100000000E-03 0.  1.
    9900012    2    1    2    0    0  0.31721659334E+02  0.14078353934E+01  0.29586783439E+02  0.47787269296E+02  0.19999992026E+02 0.  0.
        -12    1    1    2    0    0 -0.31721659334E+02 -0.14078353934E+01 -0.29586783439E+02  0.43400730704E+02  0.00000000000E+00 0.  1.
         11    1    3    3    0    0  0.69737620873E+01  0.25158457668E+01  0.66258856087E+01  0.99430980048E+01  0.51100000000E-03 0. -1.
        -11    1    3    3    0    0  0.22669532667E+02 -0.11369613552E+01  0.25775684190E+02  0.34345105739E+02  0.51100000000E-03 0.  1.
        -12    1    3    3    0    0  0.20783645795E+01  0.28950981809E-01 -0.28147863598E+01  0.34990655518E+01  0.00000000000E+00 0.  1.
</event>
<event>
 7    1  0.7357971E-011  0.4778725E+02  0.7816164E-02  0.1312668E+00
        -11   -1    0    0    0    0  0.00000000000E+00  0.00000000000E+00  0.45593999997E+02  0.45594000000E+02  0.51100000000E-03 0. -1.
         11   -1    0    0    0    0 -0.00000000000E+00 -0.00000000000E+00 -0.45593999997E+02  0.45594000000E+02  0.51100000000E-03 0.  1.
    9900012    2    1    2    0    0  0.10419237843E+02 -0.84059516187E+01 -0.41284436533E+02  0.47787248397E+02  0.19999896741E+02 0.  0.
         12    1    1    2    0    0 -0.10419237843E+02  0.84059516187E+01  0.41284436533E+02  0.43400751603E+02  0.00000000000E+00 0. -1.
         11    1    3    3    0    0  0.70906972995E+01  0.57327532231E+01 -0.15661887963E+02  0.18122835940E+02  0.51100000000E-03 0. -1.
        -11    1    3    3    0    0  0.26271660029E+01 -0.12673345086E+02 -0.20089305531E+02  0.23897612304E+02  0.51100000000E-03 0.  1.
        -12    1    3    3    0    0  0.70137454019E+00 -0.14653597560E+01 -0.55332430397E+01  0.57668001523E+01  0.00000000000E+00 0.  1.
</event>
<event>
 7    1  0.7357971E-011  0.4778727E+02  0.7816164E-02  0.1312668E+00
        -11   -1    0    0    0    0  0.00000000000E+00  0.00000000000E+00  0.45593999997E+02  0.45594000000E+02  0.51100000000E-03 0. -1.
         11   -1    0    0    0    0 -0.00000000000E+00 -0.00000000000E+00 -0.45593999997E+02  0.45594000000E+02  0.51100000000E-03 0.  1.
    9900012    2    1    2    0    0  0.14051934745E+02 -0.24234740114E+02  0.33148812541E+02  0.47787271074E+02  0.20000000133E+02 0.  0.
        -12    1    1    2    0    0 -0.14051934745E+02  0.24234740114E+02 -0.33148812541E+02  0.43400728926E+02  0.00000000000E+00 0.  1.
         11    1    3    3    0    0 -0.13663058053E+01 -0.12848094538E+02  0.14978153833E+02  0.19780935704E+02  0.51100000000E-03 0.  1.
        -11    1    3    3    0    0  0.35222394208E+01 -0.83024501719E+01  0.79435622298E+01  0.12018195811E+02  0.51100000000E-03 0. -1.
         12    1    3    3    0    0  0.11896001130E+02 -0.30841954037E+01  0.10227096479E+02  0.15988139559E+02  0.00000000000E+00 0. -1.
</event>
<event>
 7    1  0.7357971E-011  0.4778727E+02  0.7816164E-02  0.1312668E+00
        -11   -1    0    0    0    0  0.00000000000E+00  0.00000000000E+00  0.45593999997E+02  0.45594000000E+02  0.51100000000E-03 0. -1.
         11   -1    0    0    0    0 -0.00000000000E+00 -0.00000000000E+00 -0.45593999997E+02  0.45594000000E+02  0.51100000000E-03 0.  1.
    9900012    2    1    2    0    0  0.85444431908E+01  0.23367598024E+01 -0.42487120876E+02  0.47787269636E+02  0.19999993577E+02 0.  0.
         12    1    1    2    0    0 -0.85444431908E+01 -0.23367598024E+01  0.42487120876E+02  0.43400730364E+02  0.00000000000E+00 0. -1.
         11    1    3    3    0    0 -0.43802045577E+01 -0.89273483045E+00 -0.16804743949E+02  0.17389151414E+02  0.51100000000E-03 0. -1.
        -11    1    3    3    0    0  0.10582676233E+02  0.25376225572E+01 -0.10854570774E+02  0.15370565098E+02  0.51100000000E-03 0.  1.
         12    1    3    3    0    0  0.23419715153E+01  0.69187207558E+00 -0.14827806153E+02  0.15027553123E+02  0.00000000000E+00 0. -1.
</event>
<event>
 7    1  0.7357971E-011  0.4778727E+02  0.7816164E-02  0.1312668E+00
        -11   -1    0    0    0    0  0.00000000000E+00  0.00000000000E+00  0.45593999997E+02  0.45594000000E+02  0.51100000000E-03 0.  1.
         11   -1    0    0    0    0 -0.00000000000E+00 -0.00000000000E+00 -0.45593999997E+02  0.45594000000E+02  0.51100000000E-03 0. -1.
    9900012    2    1    2    0    0 -0.23358621263E+02 -0.36476956593E+02  0.27257894749E+01  0.47787268694E+02  0.19999989284E+02 0.  0.
        -12    1    1    2    0    0  0.23358621263E+02  0.36476956593E+02 -0.27257894749E+01  0.43400731306E+02  0.00000000000E+00 0.  1.
         11    1    3    3    0    0 -0.21328955341E+02 -0.22540791872E+02 -0.59050971622E+00  0.31038046590E+02  0.51100000000E-03 0. -1.
        -11    1    3    3    0    0 -0.26288559579E+00 -0.13390800763E+02  0.49529890258E+01  0.14279872355E+02  0.51100000000E-03 0.  1.
         12    1    3    3    0    0 -0.17667803263E+01 -0.54536395838E+00 -0.16366898347E+01  0.24693497491E+01  0.00000000000E+00 0. -1.
</event>
<event>
 7    1  0.7357971E-011  0.4778727E+02  0.7816164E-02  0.1312668E+00
        -11   -1    0    0    0    0  0.00000000000E+00  0.00000000000E+00  0.45593999997E+02  0.45594000000E+02  0.51100000000E-03 0.  1.
         11   -1    0    0    0    0 -0.00000000000E+00 -0.00000000000E+00 -0.45593999997E+02  0.45594000000E+02  0.51100000000E-03 0. -1.
    9900012    2    1    2    0    0  0.58720050344E+01 -0.10675710519E+02  0.41655393674E+02  0.47787273504E+02  0.20000011215E+02 0.  0.
        -12    1    1    2    0    0 -0.58720050344E+01  0.10675710519E+02 -0.41655393674E+02  0.43400726496E+02  0.00000000000E+00 0.  1.
         11    1    3    3    0    0  0.54893006658E+01  0.31001526278E+01  0.50299945295E+01  0.80649992773E+01  0.51100000000E-03 0. -1.
        -11    1    3    3    0    0  0.18465540241E+01 -0.67139951782E+01  0.25734575875E+02  0.26660005416E+02  0.51100000000E-03 0.  1.
         12    1    3    3    0    0 -0.14638496556E+01 -0.70618679682E+01  0.10890823270E+02  0.13062268811E+02  0.00000000000E+00 0. -1.
</event>
<event>
 7    1  0.7357971E-011  0.4778727E+02  0.7816164E-02  0.1312668E+00
        -11   -1    0    0    0    0  0.00000000000E+00  0.00000000000E+00  0.45593999997E+02  0.45594000000E+02  0.51100000000E-03 0. -1.
         11   -1    0    0    0    0 -0.00000000000E+00 -0.00000000000E+00 -0.45593999997E+02  0.45594000000E+02  0.51100000000E-03 0.  1.
    9900012    2    1    2    0    0 -0.23535529530E+02 -0.14468061174E+02  0.33472034138E+02  0.47787274042E+02  0.20000013665E+02 0.  0.
        -12    1    1    2    0    0  0.23535529530E+02  0.14468061174E+02 -0.33472034138E+02  0.43400725958E+02  0.00000000000E+00 0.  1.
         11    1    3    3    0    0 -0.71878049251E+01 -0.12010574266E+02  0.92490022711E+01  0.16776843479E+02  0.51100000000E-03 0.  1.
        -11    1    3    3    0    0 -0.75890557482E+01 -0.25813114938E+01  0.39720825025E+01  0.89461933717E+01  0.51100000000E-03 0. -1.
         12    1    3    3    0    0 -0.87586688569E+01  0.12382458553E+00  0.20250949364E+02  0.22064237191E+02  0.00000000000E+00 0. -1.
</event>
<event>
 7    1  0.7357971E-011  0.4778727E+02  0.7816164E-02  0.1312668E+00
        -11   -1    0    0    0    0  0.00000000000E+00  0.00000000000E+00  0.45593999997E+02  0.45594000000E+02  0.51100000000E-03 0.  1.
         11   -1    0    0    0    0 -0.00000000000E+00 -0.00000000000E+00 -0.45593999997E+02  0.45594000000E+02  0.51100000000E-03 0. -1.
    9900012    2    1    2    0    0  0.30456732403E+02 -0.24718571157E+02 -0.18574251970E+02  0.47787272529E+02  0.20000006770E+02 0.  0.
         12    1    1    2    0    0 -0.30456732403E+02  0.24718571157E+02  0.18574251970E+02  0.43400727471E+02  0.00000000000E+00 0. -1.
         11    1    3    3    0    0 -0.17889775891E+00  0.76679933984E+00  0.17205656542E+01  0.18921765423E+01  0.51100000000E-03 0. -1.
        -11    1    3    3    0    0  0.18327736017E+02 -0.91916546405E+01 -0.12646179626E+02  0.24089796220E+02  0.51100000000E-03 0.  1.
         12    1    3    3    0    0  0.12307894145E+02 -0.16293715856E+02 -0.76486379989E+01  0.21805299767E+02  0.00000000000E+00 0. -1.
</event>
<event>
 7    1  0.7357971E-011  0.4778728E+02  0.7816164E-02  0.1312668E+00
        -11   -1    0    0    0    0  0.00000000000E+00  0.00000000000E+00  0.45593999997E+02  0.45594000000E+02  0.51100000000E-03 0. -1.
         11   -1    0    0    0    0 -0.00000000000E+00 -0.00000000000E+00 -0.45593999997E+02  0.45594000000E+02  0.51100000000E-03 0.  1.
    9900012    2    1    2    0    0 -0.21286391747E+02  0.33548544598E+02  0.17464460815E+02  0.47787277543E+02  0.20000029627E+02 0.  0.
        -12    1    1    2    0    0  0.21286391747E+02 -0.33548544598E+02 -0.17464460815E+02  0.43400722457E+02  0.00000000000E+00 0.  1.
         11    1    3    3    0    0 -0.68978688904E+01  0.74515967864E+01  0.11831333822E+02  0.15591258774E+02  0.51100000000E-03 0. -1.
        -11    1    3    3    0    0 -0.16135900735E+02  0.24436431401E+02  0.53650961402E+01  0.29770635348E+02  0.51100000000E-03 0.  1.
        -12    1    3    3    0    0  0.17473778784E+01  0.16605164108E+01  0.26803085354E+00  0.24253834210E+01  0.00000000000E+00 0.  1.
</event>
<event>
 7    1  0.7357971E-011  0.4778728E+02  0.7816164E-02  0.1312668E+00
        -11   -1    0    0    0    0  0.00000000000E+00  0.00000000000E+00  0.45593999997E+02  0.45594000000E+02  0.51100000000E-03 0. -1.
         11   -1    0    0    0    0 -0.00000000000E+00 -0.00000000000E+00 -0.45593999997E+02  0.45594000000E+02  0.51100000000E-03 0.  1.
    9900012    2    1    2    0    0  0.11575072408E+02 -0.15738102738E+02 -0.38755033447E+02  0.47787276543E+02  0.20000025072E+02 0.  0.
         12    1    1    2    0    0 -0.11575072408E+02  0.15738102738E+02  0.38755033447E+02  0.43400723457E+02  0.00000000000E+00 0. -1.
         11    1    3    3    0    0 -0.86548102412E+00 -0.37088943015E+01  0.11978905513E+01  0.39924799783E+01  0.51100000000E-03 0. -1.
        -11    1    3    3    0    0  0.31793128128E+01 -0.42689418355E+01 -0.17573679618E+02  0.18362083485E+02  0.51100000000E-03 0.  1.
         12    1    3    3    0    0  0.92612406198E+01 -0.77602666010E+01 -0.22379244381E+02  0.25432713080E+02  0.00000000000E+00 0. -1.
</event>
<event>
 7    1  0.7357971E-011  0.4778727E+02  0.7816164E-02  0.1312668E+00
        -11   -1    0    0    0    0  0.00000000000E+00  0.00000000000E+00  0.45593999997E+02  0.45594000000E+02  0.51100000000E-03 0. -1.
         11   -1    0    0    0    0 -0.00000000000E+00 -0.00000000000E+00 -0.45593999997E+02  0.45594000000E+02  0.51100000000E-03 0.  1.
    9900012    2    1    2    0    0  0.73660805669E+01  0.15101903566E+00 -0.42770797951E+02  0.47787272966E+02  0.20000008763E+02 0.  0.
         12    1    1    2    0    0 -0.73660805669E+01 -0.15101903566E+00  0.42770797951E+02  0.43400727034E+02  0.00000000000E+00 0. -1.
         11    1    3    3    0    0  0.41642323081E+01  0.97924355240E+00 -0.84957553651E-01  0.42786641254E+01  0.51100000000E-03 0. -1.
        -11    1    3    3    0    0 -0.92390244823E+00  0.21366961521E+01 -0.24980681369E+02  0.25088912055E+02  0.51100000000E-03 0.  1.
         12    1    3    3    0    0  0.41257507070E+01 -0.29649206688E+01 -0.17705159028E+02  0.18419696786E+02  0.00000000000E+00 0. -1.
</event>
<event>
 7    1  0.7357971E-011  0.4778728E+02  0.7816164E-02  0.1312668E+00
        -11   -1    0    0    0    0  0.00000000000E+00  0.00000000000E+00  0.45593999997E+02  0.45594000000E+02  0.51100000000E-03 0. -1.
         11   -1    0    0    0    0 -0.00000000000E+00 -0.00000000000E+00 -0.45593999997E+02  0.45594000000E+02  0.51100000000E-03 0.  1.
    9900012    2    1    2    0    0  0.23667749284E+02  0.17979837815E+02 -0.31625717183E+02  0.47787275221E+02  0.20000019042E+02 0.  0.
         12    1    1    2    0    0 -0.23667749284E+02 -0.17979837815E+02  0.31625717183E+02  0.43400724779E+02  0.00000000000E+00 0. -1.
         11    1    3    3    0    0  0.17164698450E+02  0.14717523519E+02 -0.24583940713E+02  0.33400636411E+02  0.51100000000E-03 0. -1.
        -11    1    3    3    0    0  0.24634482109E+01  0.55208470330E+01 -0.76151971269E+01  0.97231454063E+01  0.51100000000E-03 0.  1.
         12    1    3    3    0    0  0.40396026232E+01 -0.22585327367E+01  0.57342065720E+00  0.46634934037E+01  0.00000000000E+00 0. -1.
</event>
<event>
 7    1  0.7357971E-011  0.4778727E+02  0.7816164E-02  0.1312668E+00
        -11   -1    0    0    0    0  0.00000000000E+00  0.00000000000E+00  0.45593999997E+02  0.45594000000E+02  0.51100000000E-03 0. -1.
         11   -1    0    0    0    0 -0.00000000000E+00 -0.00000000000E+00 -0.45593999997E+02  0.45594000000E+02  0.51100000000E-03 0.  1.
    9900012    2    1    2    0    0 -0.55580968676E+01 -0.16476553604E+02 -0.39764983817E+02  0.47787271925E+02  0.20000004017E+02 0.  0.
         12    1    1    2    0    0  0.55580968676E+01  0.16476553604E+02  0.39764983817E+02  0.43400728075E+02  0.00000000000E+00 0. -1.
         11    1    3    3    0    0 -0.79556224400E+01 -0.57061342979E+01 -0.72023378962E+01  0.12154240761E+02  0.51100000000E-03 0. -1.
        -11    1    3    3    0    0 -0.32891571825E+01 -0.15475711710E+01 -0.81309235519E+01  0.89064835692E+01  0.51100000000E-03 0.  1.
         12    1    3    3    0    0  0.56866827549E+01 -0.92228481346E+01 -0.24431722369E+02  0.26726547596E+02  0.00000000000E+00 0. -1.
</event>
<event>
 7    1  0.7357971E-011  0.4778727E+02  0.7816164E-02  0.1312668E+00
        -11   -1    0    0    0    0  0.00000000000E+00  0.00000000000E+00  0.45593999997E+02  0.45594000000E+02  0.51100000000E-03 0. -1.
         11   -1    0    0    0    0 -0.00000000000E+00 -0.00000000000E+00 -0.45593999997E+02  0.45594000000E+02  0.51100000000E-03 0.  1.
    9900012    2    1    2    0    0  0.11855995735E+01  0.97010658197E+00 -0.43373685035E+02  0.47787270667E+02  0.19999998278E+02 0.  0.
         12    1    1    2    0    0 -0.11855995735E+01 -0.97010658197E+00  0.43373685035E+02  0.43400729333E+02  0.00000000000E+00 0. -1.
         11    1    3    3    0    0  0.44547675715E+01 -0.26823546986E+01 -0.28620247926E+01  0.59355848085E+01  0.51100000000E-03 0. -1.
        -11    1    3    3    0    0 -0.24644664918E+01 -0.14039999401E+01 -0.30259096272E+02  0.30391737666E+02  0.51100000000E-03 0.  1.
        -12    1    3    3    0    0 -0.80470150611E+00  0.50564612207E+01 -0.10252563971E+02  0.11459948192E+02  0.00000000000E+00 0.  1.
</event>
<event>
 7    1  0.7357971E-011  0.4778727E+02  0.7816164E-02  0.1312668E+00
        -11   -1    0    0    0    0  0.00000000000E+00  0.00000000000E+00  0.45593999997E+02  0.45594000000E+02  0.51100000000E-03 0. -1.
         11   -1    0    0    0    0 -0.00000000000E+00 -0.00000000000E+00 -0.45593999997E+02  0.45594000000E+02  0.51100000000E-03 0.  1.
    9900012    2    1    2    0    0  0.26107682907E+02 -0.14290610676E+02 -0.31587821010E+02  0.47787273089E+02  0.20000009323E+02 0.  0.
         12    1    1    2    0    0 -0.26107682907E+02  0.14290610676E+02  0.31587821010E+02  0.43400726911E+02  0.00000000000E+00 0. -1.
         11    1    3    3    0    0 -0.70469760967E+00 -0.43795267020E+00 -0.10560429780E+02  0.10592973080E+02  0.51100000000E-03 0. -1.
        -11    1    3    3    0    0  0.22539918283E+02 -0.95844886402E+01 -0.15350461146E+02  0.28905829799E+02  0.51100000000E-03 0.  1.
         12    1    3    3    0    0  0.42724622336E+01 -0.42681693653E+01 -0.56769300833E+01  0.82884702110E+01  0.00000000000E+00 0. -1.
</event>
<event>
 7    1  0.7357971E-011  0.4778727E+02  0.7816164E-02  0.1312668E+00
        -11   -1    0    0    0    0  0.00000000000E+00  0.00000000000E+00  0.45593999997E+02  0.45594000000E+02  0.51100000000E-03 0. -1.
         11   -1    0    0    0    0 -0.00000000000E+00 -0.00000000000E+00 -0.45593999997E+02  0.45594000000E+02  0.51100000000E-03 0.  1.
    9900012    2    1    2    0    0 -0.11111791801E+02 -0.23446457686E+02 -0.34791016255E+02  0.47787272966E+02  0.20000008761E+02 0.  0.
         12    1    1    2    0    0  0.11111791801E+02  0.23446457686E+02  0.34791016255E+02  0.43400727034E+02  0.00000000000E+00 0. -1.
         11    1    3    3    0    0 -0.14420238430E+02 -0.95094968965E+01 -0.17270191750E+02  0.24426078911E+02  0.51100000000E-03 0. -1.
        -11    1    3    3    0    0  0.15492886415E+01 -0.12732412473E+02 -0.16743909401E+02  0.21092015669E+02  0.51100000000E-03 0.  1.
         12    1    3    3    0    0  0.17591579875E+01 -0.12045483156E+01 -0.77691510416E+00  0.22691783862E+01  0.00000000000E+00 0. -1.
</event>
<event>
 7    1  0.7357971E-011  0.4778727E+02  0.7816164E-02  0.1312668E+00
        -11   -1    0    0    0    0  0.00000000000E+00  0.00000000000E+00  0.45593999997E+02  0.45594000000E+02  0.51100000000E-03 0. -1.
         11   -1    0    0    0    0 -0.00000000000E+00 -0.00000000000E+00 -0.45593999997E+02  0.45594000000E+02  0.51100000000E-03 0.  1.
    9900012    2    1    2    0    0 -0.49029968058E+01 -0.49537547562E+01 -0.42837415262E+02  0.47787271778E+02  0.20000003346E+02 0.  0.
         12    1    1    2    0    0  0.49029968058E+01  0.49537547562E+01  0.42837415262E+02  0.43400728222E+02  0.00000000000E+00 0. -1.
         11    1    3    3    0    0  0.26282842766E+01  0.51354405276E+01 -0.60711205415E+01  0.83749108975E+01  0.51100000000E-03 0. -1.
        -11    1    3    3    0    0 -0.67428209493E+01 -0.47192526213E+01 -0.16597376537E+02  0.18525924750E+02  0.51100000000E-03 0.  1.
         12    1    3    3    0    0 -0.78846013307E+00 -0.53699426625E+01 -0.20168918183E+02  0.20886436131E+02  0.00000000000E+00 0. -1.
</event>
<event>
 7    1  0.7357971E-011  0.4778727E+02  0.7816164E-02  0.1312668E+00
        -11   -1    0    0    0    0  0.00000000000E+00  0.00000000000E+00  0.45593999997E+02  0.45594000000E+02  0.51100000000E-03 0. -1.
         11   -1    0    0    0    0 -0.00000000000E+00 -0.00000000000E+00 -0.45593999997E+02  0.45594000000E+02  0.51100000000E-03 0.  1.
    9900012    2    1    2    0    0  0.13403748739E+01  0.25560957853E+01  0.43304657250E+02  0.47787267633E+02  0.19999984445E+02 0.  0.
        -12    1    1    2    0    0 -0.13403748739E+01 -0.25560957853E+01 -0.43304657250E+02  0.43400732367E+02  0.00000000000E+00 0.  1.
         11    1    3    3    0    0  0.27117084630E+00 -0.22704496282E+01  0.14874117705E+01  0.27277956629E+01  0.51100000000E-03 0. -1.
        -11    1    3    3    0    0 -0.12966482385E+01  0.37840882105E+01  0.95105500307E+00  0.41115843807E+01  0.51100000000E-03 0.  1.
        -12    1    3    3    0    0  0.23658522661E+01  0.10424572030E+01  0.40866190476E+02  0.40947887589E+02  0.00000000000E+00 0.  1.
</event>
<event>
 7    1  0.7357971E-011  0.4778727E+02  0.7816164E-02  0.1312668E+00
        -11   -1    0    0    0    0  0.00000000000E+00  0.00000000000E+00  0.45593999997E+02  0.45594000000E+02  0.51100000000E-03 0. -1.
         11   -1    0    0    0    0 -0.00000000000E+00 -0.00000000000E+00 -0.45593999997E+02  0.45594000000E+02  0.51100000000E-03 0.  1.
    9900012    2    1    2    0    0 -0.13522038148E+02 -0.14913804036E+02 -0.38449400577E+02  0.47787268770E+02  0.19999989632E+02 0.  0.
         12    1    1    2    0    0  0.13522038148E+02  0.14913804036E+02  0.38449400577E+02  0.43400731230E+02  0.00000000000E+00 0. -1.
         11    1    3    3    0    0 -0.18015328415E+01 -0.99405891832E+01 -0.19131270914E+02  0.21634841366E+02  0.51100000000E-03 0. -1.
        -11    1    3    3    0    0 -0.77751223526E+01  0.22150368078E+01 -0.14608541812E+02  0.16696359177E+02  0.51100000000E-03 0.  1.
         12    1    3    3    0    0 -0.39453829540E+01 -0.71882516602E+01 -0.47095878524E+01  0.94560682275E+01  0.00000000000E+00 0. -1.
</event>
<event>
 7    1  0.7357971E-011  0.4778727E+02  0.7816164E-02  0.1312668E+00
        -11   -1    0    0    0    0  0.00000000000E+00  0.00000000000E+00  0.45593999997E+02  0.45594000000E+02  0.51100000000E-03 0. -1.
         11   -1    0    0    0    0 -0.00000000000E+00 -0.00000000000E+00 -0.45593999997E+02  0.45594000000E+02  0.51100000000E-03 0.  1.
    9900012    2    1    2    0    0  0.32651866508E+02 -0.14251959360E+02 -0.24786297602E+02  0.47787270964E+02  0.19999999632E+02 0.  0.
         12    1    1    2    0    0 -0.32651866508E+02  0.14251959360E+02  0.24786297602E+02  0.43400729036E+02  0.00000000000E+00 0. -1.
         11    1    3    3    0    0  0.34751067995E+00  0.19695489207E+01 -0.52303162724E+01  0.55996513457E+01  0.51100000000E-03 0. -1.
        -11    1    3    3    0    0  0.80507766505E+00 -0.30433852516E+01 -0.87887426974E+00  0.32684497976E+01  0.51100000000E-03 0.  1.
         12    1    3    3    0    0  0.31499278163E+02 -0.13178123029E+02 -0.18677107060E+02  0.38919169820E+02  0.00000000000E+00 0. -1.
</event>
<event>
 7    1  0.7357971E-011  0.4778727E+02  0.7816164E-02  0.1312668E+00
        -11   -1    0    0    0    0  0.00000000000E+00  0.00000000000E+00  0.45593999997E+02  0.45594000000E+02  0.51100000000E-03 0. -1.
         11   -1    0    0    0    0 -0.00000000000E+00 -0.00000000000E+00 -0.45593999997E+02  0.45594000000E+02  0.51100000000E-03 0.  1.
    9900012    2    1    2    0    0  0.11433889287E+02  0.40603942842E+02  0.10208294928E+02  0.47787270929E+02  0.19999999475E+02 0.  0.
        -12    1    1    2    0    0 -0.11433889287E+02 -0.40603942842E+02 -0.10208294928E+02  0.43400729071E+02  0.00000000000E+00 0.  1.
         11    1    3    3    0    0  0.57503682079E+01  0.12411377605E+02  0.21196480966E+01  0.13842035143E+02  0.51100000000E-03 0. -1.
        -11    1    3    3    0    0  0.10279248961E+02  0.20573042252E+02  0.95968629531E+01  0.24920128521E+02  0.51100000000E-03 0.  1.
        -12    1    3    3    0    0 -0.45957278816E+01  0.76195229847E+01 -0.15082161220E+01  0.90251072652E+01  0.00000000000E+00 0.  1.
</event>
<event>
 7    1  0.7357971E-011  0.4778727E+02  0.7816164E-02  0.1312668E+00
        -11   -1    0    0    0    0  0.00000000000E+00  0.00000000000E+00  0.45593999997E+02  0.45594000000E+02  0.51100000000E-03 0.  1.
         11   -1    0    0    0    0 -0.00000000000E+00 -0.00000000000E+00 -0.45593999997E+02  0.45594000000E+02  0.51100000000E-03 0. -1.
    9900012    2    1    2    0    0 -0.73277170592E+01 -0.42649016239E+02 -0.33150149341E+01  0.47787270197E+02  0.19999996134E+02 0.  0.
         12    1    1    2    0    0  0.73277170592E+01  0.42649016239E+02  0.33150149341E+01  0.43400729803E+02  0.00000000000E+00 0. -1.
         11    1    3    3    0    0 -0.11279268141E+01 -0.20653973569E+02 -0.63685268318E+01  0.21642942899E+02  0.51100000000E-03 0. -1.
        -11    1    3    3    0    0 -0.45729967200E+01 -0.19300292372E+02  0.70560314843E+01  0.21052343461E+02  0.51100000000E-03 0.  1.
        -12    1    3    3    0    0 -0.16267935251E+01 -0.26947502982E+01 -0.40025195866E+01  0.50919838358E+01  0.00000000000E+00 0.  1.
</event>
<event>
 7    1  0.7357971E-011  0.4778729E+02  0.7816164E-02  0.1312668E+00
        -11   -1    0    0    0    0  0.00000000000E+00  0.00000000000E+00  0.45593999997E+02  0.45594000000E+02  0.51100000000E-03 0. -1.
         11   -1    0    0    0    0 -0.00000000000E+00 -0.00000000000E+00 -0.45593999997E+02  0.45594000000E+02  0.51100000000E-03 0.  1.
    9900012    2    1    2    0    0  0.12517352624E+02 -0.22933390779E+02  0.34655406402E+02  0.47787288920E+02  0.20000081502E+02 0.  0.
        -12    1    1    2    0    0 -0.12517352624E+02  0.22933390779E+02 -0.34655406402E+02  0.43400711080E+02  0.00000000000E+00 0.  1.
         11    1    3    3    0    0  0.61385500068E+01 -0.20424146659E+02  0.13065322236E+02  0.25010601919E+02  0.51100000000E-03 0. -1.
        -11    1    3    3    0    0  0.36624711592E+01 -0.26114961888E+01  0.12281256128E+02  0.13079100110E+02  0.51100000000E-03 0.  1.
         12    1    3    3    0    0  0.27163314580E+01  0.10225206886E+00  0.93088280375E+01  0.96975868910E+01  0.00000000000E+00 0. -1.
</event>
<event>
 7    1  0.7357971E-011  0.4778727E+02  0.7816164E-02  0.1312668E+00
        -11   -1    0    0    0    0  0.00000000000E+00  0.00000000000E+00  0.45593999997E+02  0.45594000000E+02  0.51100000000E-03 0. -1.
         11   -1    0    0    0    0 -0.00000000000E+00 -0.00000000000E+00 -0.45593999997E+02  0.45594000000E+02  0.51100000000E-03 0.  1.
    9900012    2    1    2    0    0 -0.19708151060E+02 -0.14258533905E+02  0.35943104870E+02  0.47787265041E+02  0.19999972627E+02 0.  0.
        -12    1    1    2    0    0  0.19708151060E+02  0.14258533905E+02 -0.35943104870E+02  0.43400734959E+02  0.00000000000E+00 0.  1.
         11    1    3    3    0    0 -0.10838299020E+02 -0.24735477503E+01  0.13765596341E+02  0.17694033090E+02  0.51100000000E-03 0. -1.
        -11    1    3    3    0    0  0.12988783239E+01  0.24612368055E+01  0.23222446036E+01  0.36245815997E+01  0.51100000000E-03 0.  1.
        -12    1    3    3    0    0 -0.10168730364E+02 -0.14246222960E+02  0.19855263926E+02  0.26468650351E+02  0.00000000000E+00 0.  1.
</event>
<event>
 7    1  0.7357971E-011  0.4778727E+02  0.7816164E-02  0.1312668E+00
        -11   -1    0    0    0    0  0.00000000000E+00  0.00000000000E+00  0.45593999997E+02  0.45594000000E+02  0.51100000000E-03 0. -1.
         11   -1    0    0    0    0 -0.00000000000E+00 -0.00000000000E+00 -0.45593999997E+02  0.45594000000E+02  0.51100000000E-03 0.  1.
    9900012    2    1    2    0    0 -0.90524528321E+01  0.41470568639E+02 -0.90481142090E+01  0.47787270326E+02  0.19999996725E+02 0.  0.
         12    1    1    2    0    0  0.90524528321E+01 -0.41470568639E+02  0.90481142090E+01  0.43400729674E+02  0.00000000000E+00 0. -1.
         11    1    3    3    0    0 -0.12623560798E+02  0.20537314364E+02 -0.92441460168E+01  0.25818400499E+02  0.51100000000E-03 0. -1.
        -11    1    3    3    0    0 -0.13859710449E+01  0.58268105871E+01 -0.78007678392E+00  0.60399633613E+01  0.51100000000E-03 0.  1.
         12    1    3    3    0    0  0.49570790108E+01  0.15106443688E+02  0.97610859169E+00  0.15928906466E+02  0.00000000000E+00 0. -1.
</event>
<event>
 7    1  0.7357971E-011  0.4778727E+02  0.7816164E-02  0.1312668E+00
        -11   -1    0    0    0    0  0.00000000000E+00  0.00000000000E+00  0.45593999997E+02  0.45594000000E+02  0.51100000000E-03 0. -1.
         11   -1    0    0    0    0 -0.00000000000E+00 -0.00000000000E+00 -0.45593999997E+02  0.45594000000E+02  0.51100000000E-03 0.  1.
    9900012    2    1    2    0    0 -0.18538940562E+02 -0.25244748563E+02  0.30043865531E+02  0.47787268402E+02  0.19999987953E+02 0.  0.
        -12    1    1    2    0    0  0.18538940562E+02  0.25244748563E+02 -0.30043865531E+02  0.43400731598E+02  0.00000000000E+00 0.  1.
         11    1    3    3    0    0 -0.10111952998E+01  0.15089381511E+01  0.85505681568E+01  0.87413743967E+01  0.51100000000E-03 0. -1.
        -11    1    3    3    0    0 -0.16052477894E+02 -0.22757068596E+02  0.16082323107E+02  0.32159094117E+02  0.51100000000E-03 0.  1.
         12    1    3    3    0    0 -0.14752673683E+01 -0.39966181177E+01  0.54109742669E+01  0.68867998884E+01  0.00000000000E+00 0. -1.
</event>
<event>
 7    1  0.7357971E-011  0.4778728E+02  0.7816164E-02  0.1312668E+00
        -11   -1    0    0    0    0  0.00000000000E+00  0.00000000000E+00  0.45593999997E+02  0.45594000000E+02  0.51100000000E-03 0. -1.
         11   -1    0    0    0    0 -0.00000000000E+00 -0.00000000000E+00 -0.45593999997E+02  0.45594000000E+02  0.51100000000E-03 0.  1.
    9900012    2    1    2    0    0 -0.16897416252E+02  0.26300862892E+02  0.30105890321E+02  0.47787277692E+02  0.20000030309E+02 0.  0.
        -12    1    1    2    0    0  0.16897416252E+02 -0.26300862892E+02 -0.30105890321E+02  0.43400722308E+02  0.00000000000E+00 0.  1.
         11    1    3    3    0    0 -0.83501055681E+01  0.55369961223E+01  0.89616515392E+01  0.13442238937E+02  0.51100000000E-03 0. -1.
        -11    1    3    3    0    0 -0.16876233293E+01 -0.22384421886E+01  0.89916138665E+00  0.29440087285E+01  0.51100000000E-03 0.  1.
        -12    1    3    3    0    0 -0.68596873545E+01  0.23002308958E+02  0.20245077395E+02  0.31401030027E+02  0.00000000000E+00 0.  1.
</event>
<event>
 7    1  0.7357971E-011  0.4778727E+02  0.7816164E-02  0.1312668E+00
        -11   -1    0    0    0    0  0.00000000000E+00  0.00000000000E+00  0.45593999997E+02  0.45594000000E+02  0.51100000000E-03 0.  1.
         11   -1    0    0    0    0 -0.00000000000E+00 -0.00000000000E+00 -0.45593999997E+02  0.45594000000E+02  0.51100000000E-03 0. -1.
    9900012    2    1    2    0    0 -0.40536110973E+02 -0.14976617705E+02 -0.40184324490E+01  0.47787272241E+02  0.20000005456E+02 0.  0.
        -12    1    1    2    0    0  0.40536110973E+02  0.14976617705E+02  0.40184324490E+01  0.43400727759E+02  0.00000000000E+00 0.  1.
         11    1    3    3    0    0 -0.64493336777E+01 -0.93860159481E+01 -0.34181529707E+01  0.11890120700E+02  0.51100000000E-03 0. -1.
        -11    1    3    3    0    0 -0.18998900809E+02  0.88757288207E+00 -0.31557760545E+01  0.19279650939E+02  0.51100000000E-03 0.  1.
         12    1    3    3    0    0 -0.15087876486E+02 -0.64781746386E+01  0.25554965763E+01  0.16617500602E+02  0.00000000000E+00 0. -1.
</event>
<event>
 7    1  0.7357971E-011  0.4778728E+02  0.7816164E-02  0.1312668E+00
        -11   -1    0    0    0    0  0.00000000000E+00  0.00000000000E+00  0.45593999997E+02  0.45594000000E+02  0.51100000000E-03 0. -1.
         11   -1    0    0    0    0 -0.00000000000E+00 -0.00000000000E+00 -0.45593999997E+02  0.45594000000E+02  0.51100000000E-03 0.  1.
    9900012    2    1    2    0    0 -0.17734722291E+02  0.23818822334E+02  0.31650690009E+02  0.47787275926E+02  0.20000022257E+02 0.  0.
        -12    1    1    2    0    0  0.17734722291E+02 -0.23818822334E+02 -0.31650690009E+02  0.43400724074E+02  0.00000000000E+00 0.  1.
         11    1    3    3    0    0 -0.26600383653E+01 -0.31375445239E+01  0.44294177933E+01  0.60448103356E+01  0.51100000000E-03 0.  1.
        -11    1    3    3    0    0 -0.11113306358E+02  0.15860354606E+02  0.20399084101E+02  0.28127905341E+02  0.51100000000E-03 0. -1.
        -12    1    3    3    0    0 -0.39613775680E+01  0.11096012252E+02  0.68221881143E+01  0.13614560250E+02  0.00000000000E+00 0.  1.
</event>
<event>
 7    1  0.7357971E-011  0.4778727E+02  0.7816164E-02  0.1312668E+00
        -11   -1    0    0    0    0  0.00000000000E+00  0.00000000000E+00  0.45593999997E+02  0.45594000000E+02  0.51100000000E-03 0. -1.
         11   -1    0    0    0    0 -0.00000000000E+00 -0.00000000000E+00 -0.45593999997E+02  0.45594000000E+02  0.51100000000E-03 0.  1.
    9900012    2    1    2    0    0 -0.62387677035E+01  0.54047559836E+01  0.42608564640E+02  0.47787269702E+02  0.19999993880E+02 0.  0.
        -12    1    1    2    0    0  0.62387677035E+01 -0.54047559836E+01 -0.42608564640E+02  0.43400730298E+02  0.00000000000E+00 0.  1.
         11    1    3    3    0    0  0.57788744124E+01  0.16285612065E+00  0.21119644230E+02  0.21896604400E+02  0.51100000000E-03 0. -1.
        -11    1    3    3    0    0 -0.51986915089E+01  0.59697896562E+00  0.41144192352E+01  0.66566675743E+01  0.51100000000E-03 0.  1.
         12    1    3    3    0    0 -0.68189506069E+01  0.46449208973E+01  0.17374501174E+02  0.19233997727E+02  0.00000000000E+00 0. -1.
</event>
<event>
 7    1  0.7357971E-011  0.4778727E+02  0.7816164E-02  0.1312668E+00
        -11   -1    0    0    0    0  0.00000000000E+00  0.00000000000E+00  0.45593999997E+02  0.45594000000E+02  0.51100000000E-03 0. -1.
         11   -1    0    0    0    0 -0.00000000000E+00 -0.00000000000E+00 -0.45593999997E+02  0.45594000000E+02  0.51100000000E-03 0.  1.
    9900012    2    1    2    0    0 -0.28915994622E+02 -0.23166569388E+02 -0.22600854005E+02  0.47787270928E+02  0.19999999471E+02 0.  0.
         12    1    1    2    0    0  0.28915994622E+02  0.23166569388E+02  0.22600854005E+02  0.43400729072E+02  0.00000000000E+00 0. -1.
         11    1    3    3    0    0 -0.24437233639E+01 -0.43039798286E+01  0.31832662849E+01  0.58846589320E+01  0.51100000000E-03 0. -1.
        -11    1    3    3    0    0 -0.18245446839E+02 -0.13230211670E+02 -0.21153262977E+02  0.30909470491E+02  0.51100000000E-03 0.  1.
         12    1    3    3    0    0 -0.82268244187E+01 -0.56323778901E+01 -0.46308573128E+01  0.10993141506E+02  0.00000000000E+00 0. -1.
</event>
<event>
 7    1  0.7357971E-011  0.4778725E+02  0.7816164E-02  0.1312668E+00
        -11   -1    0    0    0    0  0.00000000000E+00  0.00000000000E+00  0.45593999997E+02  0.45594000000E+02  0.51100000000E-03 0. -1.
         11   -1    0    0    0    0 -0.00000000000E+00 -0.00000000000E+00 -0.45593999997E+02  0.45594000000E+02  0.51100000000E-03 0.  1.
    9900012    2    1    2    0    0  0.79093637807E+01 -0.11291231069E+02 -0.41153066522E+02  0.47787253248E+02  0.19999918858E+02 0.  0.
         12    1    1    2    0    0 -0.79093637807E+01  0.11291231069E+02  0.41153066522E+02  0.43400746752E+02  0.00000000000E+00 0. -1.
         11    1    3    3    0    0  0.54782319339E+01 -0.78724485220E+00 -0.13132543786E+01  0.56881822143E+01  0.51100000000E-03 0. -1.
        -11    1    3    3    0    0  0.14236841537E+00 -0.10991755611E+02 -0.29095121719E+02  0.31102492959E+02  0.51100000000E-03 0.  1.
         12    1    3    3    0    0  0.22887634314E+01  0.48776939409E+00 -0.10744690424E+02  0.10996578074E+02  0.00000000000E+00 0. -1.
</event>
<event>
 7    1  0.7357971E-011  0.4778727E+02  0.7816164E-02  0.1312668E+00
        -11   -1    0    0    0    0  0.00000000000E+00  0.00000000000E+00  0.45593999997E+02  0.45594000000E+02  0.51100000000E-03 0. -1.
         11   -1    0    0    0    0 -0.00000000000E+00 -0.00000000000E+00 -0.45593999997E+02  0.45594000000E+02  0.51100000000E-03 0.  1.
    9900012    2    1    2    0    0  0.15783889275E+02 -0.26833096092E+02  0.30240324635E+02  0.47787269124E+02  0.19999991244E+02 0.  0.
        -12    1    1    2    0    0 -0.15783889275E+02  0.26833096092E+02 -0.30240324635E+02  0.43400730876E+02  0.00000000000E+00 0.  1.
         11    1    3    3    0    0  0.26844629901E+01 -0.16665636253E+01  0.79028405523E+01  0.85110907009E+01  0.51100000000E-03 0.  1.
        -11    1    3    3    0    0  0.13286388812E+02 -0.20603881501E+02  0.24103016939E+02  0.34380277578E+02  0.51100000000E-03 0. -1.
        -12    1    3    3    0    0 -0.18696252680E+00 -0.45626509654E+01 -0.17655328555E+01  0.48959008448E+01  0.00000000000E+00 0.  1.
</event>
<event>
 7    1  0.7357971E-011  0.4778727E+02  0.7816164E-02  0.1312668E+00
        -11   -1    0    0    0    0  0.00000000000E+00  0.00000000000E+00  0.45593999997E+02  0.45594000000E+02  0.51100000000E-03 0. -1.
         11   -1    0    0    0    0 -0.00000000000E+00 -0.00000000000E+00 -0.45593999997E+02  0.45594000000E+02  0.51100000000E-03 0.  1.
    9900012    2    1    2    0    0  0.20777526398E+02  0.31562470255E+02  0.21347788827E+02  0.47787271670E+02  0.20000002850E+02 0.  0.
        -12    1    1    2    0    0 -0.20777526398E+02 -0.31562470255E+02 -0.21347788827E+02  0.43400728330E+02  0.00000000000E+00 0.  1.
         11    1    3    3    0    0  0.15808931761E+02  0.24445504767E+02  0.23137706003E+02  0.37186805000E+02  0.51100000000E-03 0. -1.
        -11    1    3    3    0    0 -0.21428823598E+00 -0.70167388340E+00 -0.92437174098E+00  0.11801394254E+01  0.51100000000E-03 0.  1.
         12    1    3    3    0    0  0.51828828734E+01  0.78186393711E+01 -0.86554543501E+00  0.94203272445E+01  0.00000000000E+00 0. -1.
</event>
<event>
 7    1  0.7357971E-011  0.4778727E+02  0.7816164E-02  0.1312668E+00
        -11   -1    0    0    0    0  0.00000000000E+00  0.00000000000E+00  0.45593999997E+02  0.45594000000E+02  0.51100000000E-03 0. -1.
         11   -1    0    0    0    0 -0.00000000000E+00 -0.00000000000E+00 -0.45593999997E+02  0.45594000000E+02  0.51100000000E-03 0.  1.
    9900012    2    1    2    0    0 -0.12170393400E+02  0.10975666058E+02 -0.40187555090E+02  0.47787270686E+02  0.19999998364E+02 0.  0.
         12    1    1    2    0    0  0.12170393400E+02 -0.10975666058E+02  0.40187555090E+02  0.43400729314E+02  0.00000000000E+00 0. -1.
         11    1    3    3    0    0  0.12830106528E+01  0.13827668382E+01 -0.22177416256E+02  0.22257492053E+02  0.51100000000E-03 0. -1.
        -11    1    3    3    0    0 -0.11311818459E+02  0.86908360809E+01 -0.18283480764E+02  0.23189944755E+02  0.51100000000E-03 0.  1.
         12    1    3    3    0    0 -0.21415855936E+01  0.90206313938E+00  0.27334193026E+00  0.23398338772E+01  0.00000000000E+00 0. -1.
</event>
<event>
 7    1  0.7357971E-011  0.4778727E+02  0.7816164E-02  0.1312668E+00
        -11   -1    0    0    0    0  0.00000000000E+00  0.00000000000E+00  0.45593999997E+02  0.45594000000E+02  0.51100000000E-03 0. -1.
         11   -1    0    0    0    0 -0.00000000000E+00 -0.00000000000E+00 -0.45593999997E+02  0.45594000000E+02  0.51100000000E-03 0.  1.
    9900012    2    1    2    0    0 -0.15639459070E+02 -0.31488372346E+02 -0.25446275949E+02  0.47787271519E+02  0.20000002165E+02 0.  0.
         12    1    1    2    0    0  0.15639459070E+02  0.31488372346E+02  0.25446275949E+02  0.43400728481E+02  0.00000000000E+00 0. -1.
         11    1    3    3    0    0 -0.19457550096E+02 -0.20588565681E+02 -0.17715001483E+02  0.33411174334E+02  0.51100000000E-03 0. -1.
        -11    1    3    3    0    0  0.32604442500E+01 -0.96518561837E+01 -0.50592324887E+01  0.11374737717E+02  0.51100000000E-03 0.  1.
         12    1    3    3    0    0  0.55764677640E+00 -0.12479504808E+01 -0.26720419772E+01  0.30013594682E+01  0.00000000000E+00 0. -1.
</event>
<event>
 7    1  0.7357971E-011  0.4778728E+02  0.7816164E-02  0.1312668E+00
        -11   -1    0    0    0    0  0.00000000000E+00  0.00000000000E+00  0.45593999997E+02  0.45594000000E+02  0.51100000000E-03 0. -1.
         11   -1    0    0    0    0 -0.00000000000E+00 -0.00000000000E+00 -0.45593999997E+02  0.45594000000E+02  0.51100000000E-03 0.  1.
    9900012    2    1    2    0    0  0.16798677871E+02 -0.32451078530E+02 -0.23416973207E+02  0.47787277539E+02  0.20000029611E+02 0.  0.
         12    1    1    2    0    0 -0.16798677871E+02  0.32451078530E+02  0.23416973207E+02  0.43400722461E+02  0.00000000000E+00 0. -1.
         11    1    3    3    0    0 -0.78751225690E+00 -0.19463839198E+02 -0.13487033916E+02  0.23693064301E+02  0.51100000000E-03 0. -1.
        -11    1    3    3    0    0  0.12197511562E+02 -0.99293298259E+01 -0.76751911312E+01  0.17500841073E+02  0.51100000000E-03 0.  1.
         12    1    3    3    0    0  0.53886785660E+01 -0.30579095060E+01 -0.22547481598E+01  0.65933721644E+01  0.00000000000E+00 0. -1.
</event>
<event>
 7    1  0.7357971E-011  0.4778727E+02  0.7816164E-02  0.1312668E+00
        -11   -1    0    0    0    0  0.00000000000E+00  0.00000000000E+00  0.45593999997E+02  0.45594000000E+02  0.51100000000E-03 0. -1.
         11   -1    0    0    0    0 -0.00000000000E+00 -0.00000000000E+00 -0.45593999997E+02  0.45594000000E+02  0.51100000000E-03 0.  1.
    9900012    2    1    2    0    0  0.26095770489E+01  0.20538002848E+02  0.38144514869E+02  0.47787268808E+02  0.19999989805E+02 0.  0.
        -12    1    1    2    0    0 -0.26095770489E+01 -0.20538002848E+02 -0.38144514869E+02  0.43400731192E+02  0.00000000000E+00 0.  1.
         11    1    3    3    0    0  0.11189353860E+01  0.70404011577E+01  0.95326266998E+00  0.71922162675E+01  0.51100000000E-03 0.  1.
        -11    1    3    3    0    0  0.46063960547E+00  0.11600343229E+02  0.18928451039E+02  0.22205098758E+02  0.51100000000E-03 0. -1.
         12    1    3    3    0    0  0.10300020575E+01  0.18972584615E+01  0.18262801160E+02  0.18389953783E+02  0.00000000000E+00 0. -1.
</event>
<event>
 7    1  0.7357971E-011  0.4778726E+02  0.7816164E-02  0.1312668E+00
        -11   -1    0    0    0    0  0.00000000000E+00  0.00000000000E+00  0.45593999997E+02  0.45594000000E+02  0.51100000000E-03 0. -1.
         11   -1    0    0    0    0 -0.00000000000E+00 -0.00000000000E+00 -0.45593999997E+02  0.45594000000E+02  0.51100000000E-03 0.  1.
    9900012    2    1    2    0    0  0.11041698736E+02  0.20004303004E+02 -0.36898953005E+02  0.47787262880E+02  0.19999962777E+02 0.  0.
         12    1    1    2    0    0 -0.11041698736E+02 -0.20004303004E+02  0.36898953005E+02  0.43400737120E+02  0.00000000000E+00 0. -1.
         11    1    3    3    0    0 -0.50892373030E+01  0.43159666325E+01 -0.56531982046E+01  0.87456591805E+01  0.51100000000E-03 0. -1.
        -11    1    3    3    0    0  0.11981615313E+02  0.73676813871E+01 -0.19981188190E+02  0.24435419298E+02  0.51100000000E-03 0.  1.
         12    1    3    3    0    0  0.41493207263E+01  0.83206549847E+01 -0.11264566611E+02  0.14606184402E+02  0.00000000000E+00 0. -1.
</event>
<event>
 7    1  0.7357971E-011  0.4778728E+02  0.7816164E-02  0.1312668E+00
        -11   -1    0    0    0    0  0.00000000000E+00  0.00000000000E+00  0.45593999997E+02  0.45594000000E+02  0.51100000000E-03 0.  1.
         11   -1    0    0    0    0 -0.00000000000E+00 -0.00000000000E+00 -0.45593999997E+02  0.45594000000E+02  0.51100000000E-03 0. -1.
    9900012    2    1    2    0    0  0.21485937768E+02 -0.21982037543E+02  0.30639307105E+02  0.47787278391E+02  0.20000033496E+02 0.  0.
        -12    1    1    2    0    0 -0.21485937768E+02  0.21982037543E+02 -0.30639307105E+02  0.43400721609E+02  0.00000000000E+00 0.  1.
         11    1    3    3    0    0  0.71768220198E+01 -0.43706610066E+01  0.73157506745E+01  0.11141349116E+02  0.51100000000E-03 0. -1.
        -11    1    3    3    0    0  0.14481806688E+02 -0.52068059285E+01  0.95623788644E+01  0.18118295801E+02  0.51100000000E-03 0.  1.
        -12    1    3    3    0    0 -0.17269093989E+00 -0.12404570608E+02  0.13761177566E+02  0.18527633474E+02  0.00000000000E+00 0.  1.
</event>
<event>
 7    1  0.7357971E-011  0.4778727E+02  0.7816164E-02  0.1312668E+00
        -11   -1    0    0    0    0  0.00000000000E+00  0.00000000000E+00  0.45593999997E+02  0.45594000000E+02  0.51100000000E-03 0. -1.
         11   -1    0    0    0    0 -0.00000000000E+00 -0.00000000000E+00 -0.45593999997E+02  0.45594000000E+02  0.51100000000E-03 0.  1.
    9900012    2    1    2    0    0  0.13533437295E+02 -0.38770699296E+02  0.14046428737E+02  0.47787271790E+02  0.20000003399E+02 0.  0.
        -12    1    1    2    0    0 -0.13533437295E+02  0.38770699296E+02 -0.14046428737E+02  0.43400728210E+02  0.00000000000E+00 0.  1.
         11    1    3    3    0    0 -0.76876259885E+00 -0.18834639987E+02  0.43781623188E+01  0.19352079086E+02  0.51100000000E-03 0. -1.
        -11    1    3    3    0    0  0.13896568630E+02 -0.15983494408E+02  0.40654654722E+01  0.21566518563E+02  0.51100000000E-03 0.  1.
         12    1    3    3    0    0  0.40563126408E+00 -0.39525649004E+01  0.56028009460E+01  0.68686741410E+01  0.00000000000E+00 0. -1.
</event>
<event>
 7    1  0.7357971E-011  0.4778727E+02  0.7816164E-02  0.1312668E+00
        -11   -1    0    0    0    0  0.00000000000E+00  0.00000000000E+00  0.45593999997E+02  0.45594000000E+02  0.51100000000E-03 0. -1.
         11   -1    0    0    0    0 -0.00000000000E+00 -0.00000000000E+00 -0.45593999997E+02  0.45594000000E+02  0.51100000000E-03 0.  1.
    9900012    2    1    2    0    0 -0.55745414560E+01  0.18069892639E+02 -0.39064395846E+02  0.47787267803E+02  0.19999985221E+02 0.  0.
         12    1    1    2    0    0  0.55745414560E+01 -0.18069892639E+02  0.39064395846E+02  0.43400732197E+02  0.00000000000E+00 0. -1.
         11    1    3    3    0    0 -0.44761419222E+00 -0.32588041281E+01 -0.13791591842E+01  0.35668253570E+01  0.51100000000E-03 0. -1.
        -11    1    3    3    0    0 -0.15339958129E+01  0.83619772786E+01 -0.21820540332E+02  0.23418193521E+02  0.51100000000E-03 0.  1.
         12    1    3    3    0    0 -0.35929314509E+01  0.12966719488E+02 -0.15864696330E+02  0.20802248925E+02  0.00000000000E+00 0. -1.
</event>
<event>
 7    1  0.7357971E-011  0.4778727E+02  0.7816164E-02  0.1312668E+00
        -11   -1    0    0    0    0  0.00000000000E+00  0.00000000000E+00  0.45593999997E+02  0.45594000000E+02  0.51100000000E-03 0. -1.
         11   -1    0    0    0    0 -0.00000000000E+00 -0.00000000000E+00 -0.45593999997E+02  0.45594000000E+02  0.51100000000E-03 0.  1.
    9900012    2    1    2    0    0 -0.25461842905E+02  0.26739267497E+01 -0.35045222872E+02  0.47787274493E+02  0.20000015723E+02 0.  0.
         12    1    1    2    0    0  0.25461842905E+02 -0.26739267497E+01  0.35045222872E+02  0.43400725507E+02  0.00000000000E+00 0. -1.
         11    1    3    3    0    0 -0.70884622827E+01 -0.52849944422E+01 -0.15032911021E+02  0.17440351998E+02  0.51100000000E-03 0. -1.
        -11    1    3    3    0    0 -0.40394061337E+01  0.59136951895E+01 -0.24134732223E+01  0.75573438431E+01  0.51100000000E-03 0.  1.
        -12    1    3    3    0    0 -0.14333974488E+02  0.20452260024E+01 -0.17598838628E+02  0.22789578651E+02  0.00000000000E+00 0.  1.
</event>
<event>
 7    1  0.7357971E-011  0.4778727E+02  0.7816164E-02  0.1312668E+00
        -11   -1    0    0    0    0  0.00000000000E+00  0.00000000000E+00  0.45593999997E+02  0.45594000000E+02  0.51100000000E-03 0. -1.
         11   -1    0    0    0    0 -0.00000000000E+00 -0.00000000000E+00 -0.45593999997E+02  0.45594000000E+02  0.51100000000E-03 0.  1.
    9900012    2    1    2    0    0  0.19505449646E+02 -0.38128120856E+02 -0.70290229425E+01  0.47787270405E+02  0.19999997083E+02 0.  0.
        -12    1    1    2    0    0 -0.19505449646E+02  0.38128120856E+02  0.70290229425E+01  0.43400729595E+02  0.00000000000E+00 0.  1.
         11    1    3    3    0    0  0.22281791186E+02 -0.25631245472E+02 -0.76601537423E+01  0.34815469529E+02  0.51100000000E-03 0. -1.
        -11    1    3    3    0    0 -0.80048889660E+00 -0.80023014185E+01  0.22606054535E+00  0.80454157194E+01  0.51100000000E-03 0.  1.
         12    1    3    3    0    0 -0.19758526437E+01 -0.44945739646E+01  0.40507025444E+00  0.49263851559E+01  0.00000000000E+00 0. -1.
</event>
<event>
 7    1  0.7357971E-011  0.4778727E+02  0.7816164E-02  0.1312668E+00
        -11   -1    0    0    0    0  0.00000000000E+00  0.00000000000E+00  0.45593999997E+02  0.45594000000E+02  0.51100000000E-03 0. -1.
         11   -1    0    0    0    0 -0.00000000000E+00 -0.00000000000E+00 -0.45593999997E+02  0.45594000000E+02  0.51100000000E-03 0.  1.
    9900012    2    1    2    0    0  0.18556682564E+02  0.38589309466E+02  0.70808100115E+01  0.47787272549E+02  0.20000006858E+02 0.  0.
        -12    1    1    2    0    0 -0.18556682564E+02 -0.38589309466E+02 -0.70808100115E+01  0.43400727451E+02  0.00000000000E+00 0.  1.
         11    1    3    3    0    0  0.31284543957E+01  0.15091990946E+02  0.96932367593E+01  0.18207532967E+02  0.51100000000E-03 0. -1.
        -11    1    3    3    0    0  0.18297927056E+01  0.82930111891E+01 -0.34447443822E+01  0.91645207211E+01  0.51100000000E-03 0.  1.
         12    1    3    3    0    0  0.13598435463E+02  0.15204307331E+02  0.83231763440E+00  0.20415218860E+02  0.00000000000E+00 0. -1.
</event>
<event>
 7    1  0.7357971E-011  0.4778728E+02  0.7816164E-02  0.1312668E+00
        -11   -1    0    0    0    0  0.00000000000E+00  0.00000000000E+00  0.45593999997E+02  0.45594000000E+02  0.51100000000E-03 0. -1.
         11   -1    0    0    0    0 -0.00000000000E+00 -0.00000000000E+00 -0.45593999997E+02  0.45594000000E+02  0.51100000000E-03 0.  1.
    9900012    2    1    2    0    0 -0.24881521725E+01 -0.56432562090E+01  0.42960277735E+02  0.47787277599E+02  0.20000029883E+02 0.  0.
        -12    1    1    2    0    0  0.24881521725E+01  0.56432562090E+01 -0.42960277735E+02  0.43400722401E+02  0.00000000000E+00 0.  1.
         11    1    3    3    0    0 -0.67873419722E+00  0.10113459442E+01  0.31396779062E+02  0.31420395230E+02  0.51100000000E-03 0. -1.
        -11    1    3    3    0    0 -0.98021340375E+00 -0.42539788033E+01  0.12813081572E+02  0.13536329399E+02  0.51100000000E-03 0.  1.
         12    1    3    3    0    0 -0.82920457149E+00 -0.24006233499E+01 -0.12495828984E+01  0.28305529688E+01  0.00000000000E+00 0. -1.
</event>
<event>
 7    1  0.7357971E-011  0.4778727E+02  0.7816164E-02  0.1312668E+00
        -11   -1    0    0    0    0  0.00000000000E+00  0.00000000000E+00  0.45593999997E+02  0.45594000000E+02  0.51100000000E-03 0. -1.
         11   -1    0    0    0    0 -0.00000000000E+00 -0.00000000000E+00 -0.45593999997E+02  0.45594000000E+02  0.51100000000E-03 0.  1.
    9900012    2    1    2    0    0 -0.22011709228E+01  0.42545289626E+02 -0.82871346497E+01  0.47787269321E+02  0.19999992142E+02 0.  0.
         12    1    1    2    0    0  0.22011709228E+01 -0.42545289626E+02  0.82871346497E+01  0.43400730679E+02  0.00000000000E+00 0. -1.
         11    1    3    3    0    0  0.24058850649E+01  0.38450852484E+01  0.15147438469E+01  0.47819883621E+01  0.51100000000E-03 0. -1.
        -11    1    3    3    0    0 -0.18143039118E+01  0.18343231893E+02  0.31731920838E+01  0.18703876690E+02  0.51100000000E-03 0.  1.
        -12    1    3    3    0    0 -0.27927520759E+01  0.20356972484E+02 -0.12975070580E+02  0.24301404269E+02  0.00000000000E+00 0.  1.
</event>
<event>
 7    1  0.7357971E-011  0.4778727E+02  0.7816164E-02  0.1312668E+00
        -11   -1    0    0    0    0  0.00000000000E+00  0.00000000000E+00  0.45593999997E+02  0.45594000000E+02  0.51100000000E-03 0. -1.
         11   -1    0    0    0    0 -0.00000000000E+00 -0.00000000000E+00 -0.45593999997E+02  0.45594000000E+02  0.51100000000E-03 0.  1.
    9900012    2    1    2    0    0  0.14645979655E+02  0.58190161748E+00 -0.40850702051E+02  0.47787272038E+02  0.20000004531E+02 0.  0.
         12    1    1    2    0    0 -0.14645979655E+02 -0.58190161748E+00  0.40850702051E+02  0.43400727962E+02  0.00000000000E+00 0. -1.
         11    1    3    3    0    0  0.51386074057E+01  0.59835055248E+01 -0.33020574308E+02  0.33949461739E+02  0.51100000000E-03 0. -1.
        -11    1    3    3    0    0  0.53823213873E+01 -0.47385824563E+01 -0.42507489037E+01  0.83362109927E+01  0.51100000000E-03 0.  1.
         12    1    3    3    0    0  0.41250508619E+01 -0.66302145106E+00 -0.35793788393E+01  0.55015993068E+01  0.00000000000E+00 0. -1.
</event>
<event>
 7    1  0.7357971E-011  0.4778727E+02  0.7816164E-02  0.1312668E+00
        -11   -1    0    0    0    0  0.00000000000E+00  0.00000000000E+00  0.45593999997E+02  0.45594000000E+02  0.51100000000E-03 0. -1.
         11   -1    0    0    0    0 -0.00000000000E+00 -0.00000000000E+00 -0.45593999997E+02  0.45594000000E+02  0.51100000000E-03 0.  1.
    9900012    2    1    2    0    0 -0.23370120216E+02 -0.15281686496E+02  0.33225453505E+02  0.47787271646E+02  0.20000002742E+02 0.  0.
        -12    1    1    2    0    0  0.23370120216E+02  0.15281686496E+02 -0.33225453505E+02  0.43400728354E+02  0.00000000000E+00 0.  1.
         11    1    3    3    0    0 -0.16945506875E+02 -0.15278986196E+02  0.32180651714E+02  0.39448599055E+02  0.51100000000E-03 0. -1.
        -11    1    3    3    0    0 -0.22220840374E+01  0.11379491203E+01 -0.18521152565E+01  0.31085232594E+01  0.51100000000E-03 0.  1.
         12    1    3    3    0    0 -0.42025293032E+01 -0.11406494198E+01  0.28969170478E+01  0.52301493311E+01  0.00000000000E+00 0. -1.
</event>
<event>
 7    1  0.7357971E-011  0.4778727E+02  0.7816164E-02  0.1312668E+00
        -11   -1    0    0    0    0  0.00000000000E+00  0.00000000000E+00  0.45593999997E+02  0.45594000000E+02  0.51100000000E-03 0. -1.
         11   -1    0    0    0    0 -0.00000000000E+00 -0.00000000000E+00 -0.45593999997E+02  0.45594000000E+02  0.51100000000E-03 0.  1.
    9900012    2    1    2    0    0 -0.27769316752E+02 -0.24907505894E+02 -0.22183425275E+02  0.47787272361E+02  0.20000006002E+02 0.  0.
         12    1    1    2    0    0  0.27769316752E+02  0.24907505894E+02  0.22183425275E+02  0.43400727639E+02  0.00000000000E+00 0. -1.
         11    1    3    3    0    0 -0.12088370925E+01  0.11884734611E+01 -0.39789285885E+00  0.17412855229E+01  0.51100000000E-03 0. -1.
        -11    1    3    3    0    0 -0.14921139445E+02 -0.75077637037E+01 -0.16516174510E+02  0.23490230712E+02  0.51100000000E-03 0.  1.
        -12    1    3    3    0    0 -0.11639340214E+02 -0.18588215651E+02 -0.52693579058E+01  0.22555756126E+02  0.00000000000E+00 0.  1.
</event>
<event>
 7    1  0.7357971E-011  0.4778727E+02  0.7816164E-02  0.1312668E+00
        -11   -1    0    0    0    0  0.00000000000E+00  0.00000000000E+00  0.45593999997E+02  0.45594000000E+02  0.51100000000E-03 0. -1.
         11   -1    0    0    0    0 -0.00000000000E+00 -0.00000000000E+00 -0.45593999997E+02  0.45594000000E+02  0.51100000000E-03 0.  1.
    9900012    2    1    2    0    0  0.24493649365E+02 -0.16059860274E+02 -0.32027567985E+02  0.47787273252E+02  0.20000010063E+02 0.  0.
         12    1    1    2    0    0 -0.24493649365E+02  0.16059860274E+02  0.32027567985E+02  0.43400726748E+02  0.00000000000E+00 0. -1.
         11    1    3    3    0    0  0.55206449117E+01 -0.73286610568E+00  0.14815265969E+01  0.57627714070E+01  0.51100000000E-03 0. -1.
        -11    1    3    3    0    0  0.17145047502E+02 -0.10286128998E+02 -0.26772353184E+02  0.33414308296E+02  0.51100000000E-03 0.  1.
        -12    1    3    3    0    0  0.18279569509E+01 -0.50408651708E+01 -0.67367413977E+01  0.86101935486E+01  0.00000000000E+00 0.  1.
</event>
<event>
 7    1  0.7357971E-011  0.4778728E+02  0.7816164E-02  0.1312668E+00
        -11   -1    0    0    0    0  0.00000000000E+00  0.00000000000E+00  0.45593999997E+02  0.45594000000E+02  0.51100000000E-03 0. -1.
         11   -1    0    0    0    0 -0.00000000000E+00 -0.00000000000E+00 -0.45593999997E+02  0.45594000000E+02  0.51100000000E-03 0.  1.
    9900012    2    1    2    0    0  0.48617795321E+01 -0.21809083157E+02 -0.37206852809E+02  0.47787275302E+02  0.20000019413E+02 0.  0.
         12    1    1    2    0    0 -0.48617795321E+01  0.21809083157E+02  0.37206852809E+02  0.43400724698E+02  0.00000000000E+00 0. -1.
         11    1    3    3    0    0 -0.50986069448E+01 -0.13806280309E+02 -0.12873315625E+02  0.19553297016E+02  0.51100000000E-03 0. -1.
        -11    1    3    3    0    0  0.10190498235E+02 -0.87964166085E+01 -0.22444047534E+02  0.26171711243E+02  0.51100000000E-03 0.  1.
        -12    1    3    3    0    0 -0.23011175758E+00  0.79361376042E+00 -0.18894896501E+01  0.20622670437E+01  0.00000000000E+00 0.  1.
</event>
<event>
 7    1  0.7357971E-011  0.4778727E+02  0.7816164E-02  0.1312668E+00
        -11   -1    0    0    0    0  0.00000000000E+00  0.00000000000E+00  0.45593999997E+02  0.45594000000E+02  0.51100000000E-03 0. -1.
         11   -1    0    0    0    0 -0.00000000000E+00 -0.00000000000E+00 -0.45593999997E+02  0.45594000000E+02  0.51100000000E-03 0.  1.
    9900012    2    1    2    0    0  0.20360800892E+01  0.40830448389E+02  0.14572308983E+02  0.47787270434E+02  0.19999997216E+02 0.  0.
        -12    1    1    2    0    0 -0.20360800892E+01 -0.40830448389E+02 -0.14572308983E+02  0.43400729566E+02  0.00000000000E+00 0.  1.
         11    1    3    3    0    0  0.44465095322E+01  0.13580929248E+02  0.26030843070E+01  0.14525465033E+02  0.51100000000E-03 0. -1.
        -11    1    3    3    0    0 -0.61943267291E+01  0.18659552168E+02  0.23149602664E+01  0.19796656588E+02  0.51100000000E-03 0.  1.
        -12    1    3    3    0    0  0.37838972861E+01  0.85899669725E+01  0.96542644099E+01  0.13465148813E+02  0.00000000000E+00 0.  1.
</event>
<event>
 7    1  0.7357971E-011  0.4778727E+02  0.7816164E-02  0.1312668E+00
        -11   -1    0    0    0    0  0.00000000000E+00  0.00000000000E+00  0.45593999997E+02  0.45594000000E+02  0.51100000000E-03 0.  1.
         11   -1    0    0    0    0 -0.00000000000E+00 -0.00000000000E+00 -0.45593999997E+02  0.45594000000E+02  0.51100000000E-03 0. -1.
    9900012    2    1    2    0    0  0.29243126446E+02  0.31908385986E+02  0.32122024989E+01  0.47787265151E+02  0.19999973128E+02 0.  0.
        -12    1    1    2    0    0 -0.29243126446E+02 -0.31908385986E+02 -0.32122024989E+01  0.43400734849E+02  0.00000000000E+00 0.  1.
         11    1    3    3    0    0  0.68422027719E+01  0.13839413712E+02  0.23129309511E+01  0.15610725817E+02  0.51100000000E-03 0. -1.
        -11    1    3    3    0    0  0.79731586575E+01 -0.11153630126E+01  0.13766381181E+01  0.81676450950E+01  0.51100000000E-03 0.  1.
        -12    1    3    3    0    0  0.14427765016E+02  0.19184335286E+02 -0.47736657029E+00  0.24008894239E+02  0.00000000000E+00 0.  1.
</event>
<event>
 7    1  0.7357971E-011  0.4778727E+02  0.7816164E-02  0.1312668E+00
        -11   -1    0    0    0    0  0.00000000000E+00  0.00000000000E+00  0.45593999997E+02  0.45594000000E+02  0.51100000000E-03 0. -1.
         11   -1    0    0    0    0 -0.00000000000E+00 -0.00000000000E+00 -0.45593999997E+02  0.45594000000E+02  0.51100000000E-03 0.  1.
    9900012    2    1    2    0    0  0.15841431053E+02  0.13452163838E+02 -0.38101333092E+02  0.47787271514E+02  0.20000002141E+02 0.  0.
         12    1    1    2    0    0 -0.15841431053E+02 -0.13452163838E+02  0.38101333092E+02  0.43400728486E+02  0.00000000000E+00 0. -1.
         11    1    3    3    0    0  0.92337064369E+01  0.31917363556E+01 -0.59936655290E+01  0.11461786172E+02  0.51100000000E-03 0. -1.
        -11    1    3    3    0    0  0.19299764486E+01  0.18606576582E+01 -0.22755214816E+02  0.22912587318E+02  0.51100000000E-03 0.  1.
         12    1    3    3    0    0  0.46777481670E+01  0.83997698238E+01 -0.93524527467E+01  0.13412898023E+02  0.00000000000E+00 0. -1.
</event>
<event>
 7    1  0.7357971E-011  0.4778727E+02  0.7816164E-02  0.1312668E+00
        -11   -1    0    0    0    0  0.00000000000E+00  0.00000000000E+00  0.45593999997E+02  0.45594000000E+02  0.51100000000E-03 0.  1.
         11   -1    0    0    0    0 -0.00000000000E+00 -0.00000000000E+00 -0.45593999997E+02  0.45594000000E+02  0.51100000000E-03 0. -1.
    9900012    2    1    2    0    0 -0.16238175138E+02 -0.28154445605E+02  0.28762340404E+02  0.47787269999E+02  0.19999995232E+02 0.  0.
        -12    1    1    2    0    0  0.16238175138E+02  0.28154445605E+02 -0.28762340404E+02  0.43400730001E+02  0.00000000000E+00 0.  1.
         11    1    3    3    0    0 -0.48465500195E+01 -0.14168706055E+02  0.51735111316E+01  0.15843184530E+02  0.51100000000E-03 0. -1.
        -11    1    3    3    0    0 -0.13813789039E+02 -0.12026606690E+02  0.18934747386E+02  0.26343589257E+02  0.51100000000E-03 0.  1.
         12    1    3    3    0    0  0.24221639201E+01 -0.19591328603E+01  0.46540818860E+01  0.56004962121E+01  0.00000000000E+00 0. -1.
</event>
<event>
 7    1  0.7357971E-011  0.4778727E+02  0.7816164E-02  0.1312668E+00
        -11   -1    0    0    0    0  0.00000000000E+00  0.00000000000E+00  0.45593999997E+02  0.45594000000E+02  0.51100000000E-03 0. -1.
         11   -1    0    0    0    0 -0.00000000000E+00 -0.00000000000E+00 -0.45593999997E+02  0.45594000000E+02  0.51100000000E-03 0.  1.
    9900012    2    1    2    0    0 -0.21717496420E+02  0.18310868978E+02  0.32812887999E+02  0.47787271984E+02  0.20000004282E+02 0.  0.
        -12    1    1    2    0    0  0.21717496420E+02 -0.18310868978E+02 -0.32812887999E+02  0.43400728016E+02  0.00000000000E+00 0.  1.
         11    1    3    3    0    0 -0.74402149430E+01  0.12376661967E+02  0.12916282542E+02  0.19374439729E+02  0.51100000000E-03 0. -1.
        -11    1    3    3    0    0 -0.11230483628E+02  0.22080618271E+01  0.20582712385E+02  0.23550952188E+02  0.51100000000E-03 0.  1.
        -12    1    3    3    0    0 -0.30467978487E+01  0.37261451843E+01 -0.68610692836E+00  0.48618800666E+01  0.00000000000E+00 0.  1.
</event>
<event>
 7    1  0.7357971E-011  0.4778727E+02  0.7816164E-02  0.1312668E+00
        -11   -1    0    0    0    0  0.00000000000E+00  0.00000000000E+00  0.45593999997E+02  0.45594000000E+02  0.51100000000E-03 0. -1.
         11   -1    0    0    0    0 -0.00000000000E+00 -0.00000000000E+00 -0.45593999997E+02  0.45594000000E+02  0.51100000000E-03 0.  1.
    9900012    2    1    2    0    0  0.11840529527E+02  0.34849514240E+01 -0.41608659540E+02  0.47787267580E+02  0.19999984204E+02 0.  0.
         12    1    1    2    0    0 -0.11840529527E+02 -0.34849514240E+01  0.41608659540E+02  0.43400732420E+02  0.00000000000E+00 0. -1.
         11    1    3    3    0    0  0.66594786757E+01  0.79087256698E+01 -0.84888360714E+01  0.13377478689E+02  0.51100000000E-03 0. -1.
        -11    1    3    3    0    0  0.64790293610E+01 -0.46305090670E+01 -0.29600572016E+02  0.30653112397E+02  0.51100000000E-03 0.  1.
        -12    1    3    3    0    0 -0.12979785102E+01  0.20673482120E+00 -0.35192514527E+01  0.37566764948E+01  0.00000000000E+00 0.  1.
</event>
<event>
 7    1  0.7357971E-011  0.4778727E+02  0.7816164E-02  0.1312668E+00
        -11   -1    0    0    0    0  0.00000000000E+00  0.00000000000E+00  0.45593999997E+02  0.45594000000E+02  0.51100000000E-03 0. -1.
         11   -1    0    0    0    0 -0.00000000000E+00 -0.00000000000E+00 -0.45593999997E+02  0.45594000000E+02  0.51100000000E-03 0.  1.
    9900012    2    1    2    0    0  0.36767221019E+02 -0.15260048763E+02 -0.17289474451E+02  0.47787267789E+02  0.19999985155E+02 0.  0.
         12    1    1    2    0    0 -0.36767221019E+02  0.15260048763E+02  0.17289474451E+02  0.43400732211E+02  0.00000000000E+00 0. -1.
         11    1    3    3    0    0  0.72767371577E+01 -0.45674952091E+01 -0.13583475895E+02  0.16072452638E+02  0.51100000000E-03 0. -1.
        -11    1    3    3    0    0  0.25460912221E+02 -0.81917782269E+01 -0.34147440011E+01  0.26963378099E+02  0.51100000000E-03 0.  1.
         12    1    3    3    0    0  0.40295716404E+01 -0.25007753271E+01 -0.29125455420E+00  0.47514370518E+01  0.00000000000E+00 0. -1.
</event>
<event>
 7    1  0.7357971E-011  0.4778727E+02  0.7816164E-02  0.1312668E+00
        -11   -1    0    0    0    0  0.00000000000E+00  0.00000000000E+00  0.45593999997E+02  0.45594000000E+02  0.51100000000E-03 0. -1.
         11   -1    0    0    0    0 -0.00000000000E+00 -0.00000000000E+00 -0.45593999997E+02  0.45594000000E+02  0.51100000000E-03 0.  1.
    9900012    2    1    2    0    0 -0.48335688020E+01 -0.31549945720E+02  0.29408517031E+02  0.47787270326E+02  0.19999996725E+02 0.  0.
        -12    1    1    2    0    0  0.48335688020E+01  0.31549945720E+02 -0.29408517031E+02  0.43400729674E+02  0.00000000000E+00 0.  1.
         11    1    3    3    0    0 -0.32155462814E+01 -0.12292286258E+02  0.66679793740E+01  0.14349285296E+02  0.51100000000E-03 0. -1.
        -11    1    3    3    0    0 -0.23629253229E+01 -0.11893237988E+02  0.31975825291E+01  0.12540217710E+02  0.51100000000E-03 0.  1.
        -12    1    3    3    0    0  0.74490280231E+00 -0.73644214743E+01  0.19542955128E+02  0.20897767320E+02  0.00000000000E+00 0.  1.
</event>
<event>
 7    1  0.7357971E-011  0.4778727E+02  0.7816164E-02  0.1312668E+00
        -11   -1    0    0    0    0  0.00000000000E+00  0.00000000000E+00  0.45593999997E+02  0.45594000000E+02  0.51100000000E-03 0.  1.
         11   -1    0    0    0    0 -0.00000000000E+00 -0.00000000000E+00 -0.45593999997E+02  0.45594000000E+02  0.51100000000E-03 0. -1.
    9900012    2    1    2    0    0  0.21533548295E+02  0.36550735630E+02 -0.91636938734E+01  0.47787271173E+02  0.20000000587E+02 0.  0.
        -12    1    1    2    0    0 -0.21533548295E+02 -0.36550735630E+02  0.91636938734E+01  0.43400728827E+02  0.00000000000E+00 0.  1.
         11    1    3    3    0    0  0.56452743661E+01  0.24422673170E+02 -0.69367840854E-01  0.25066728936E+02  0.51100000000E-03 0. -1.
        -11    1    3    3    0    0  0.10123339020E+02  0.66681392543E+01 -0.24501518033E+01  0.12367268015E+02  0.51100000000E-03 0.  1.
         12    1    3    3    0    0  0.57649349093E+01  0.54599232064E+01 -0.66441742292E+01  0.10353274222E+02  0.00000000000E+00 0. -1.
</event>
<event>
 7    1  0.7357971E-011  0.4778728E+02  0.7816164E-02  0.1312668E+00
        -11   -1    0    0    0    0  0.00000000000E+00  0.00000000000E+00  0.45593999997E+02  0.45594000000E+02  0.51100000000E-03 0. -1.
         11   -1    0    0    0    0 -0.00000000000E+00 -0.00000000000E+00 -0.45593999997E+02  0.45594000000E+02  0.51100000000E-03 0.  1.
    9900012    2    1    2    0    0 -0.25317950582E+02 -0.15512697662E+02 -0.31654073345E+02  0.47787276852E+02  0.20000026477E+02 0.  0.
         12    1    1    2    0    0  0.25317950582E+02  0.15512697662E+02  0.31654073345E+02  0.43400723148E+02  0.00000000000E+00 0. -1.
         11    1    3    3    0    0 -0.24795674068E+02 -0.12286853003E+02 -0.16464399906E+02  0.32200445242E+02  0.51100000000E-03 0. -1.
        -11    1    3    3    0    0 -0.92742477673E+00 -0.19905269542E+01 -0.94774720369E+01  0.97285554295E+01  0.51100000000E-03 0.  1.
         12    1    3    3    0    0  0.40514826300E+00 -0.12353177048E+01 -0.57122014022E+01  0.58582761805E+01  0.00000000000E+00 0. -1.
</event>
<event>
 7    1  0.7357971E-011  0.4778727E+02  0.7816164E-02  0.1312668E+00
        -11   -1    0    0    0    0  0.00000000000E+00  0.00000000000E+00  0.45593999997E+02  0.45594000000E+02  0.51100000000E-03 0. -1.
         11   -1    0    0    0    0 -0.00000000000E+00 -0.00000000000E+00 -0.45593999997E+02  0.45594000000E+02  0.51100000000E-03 0.  1.
    9900012    2    1    2    0    0 -0.22723874484E+02  0.33322556513E+02  0.16026731893E+02  0.47787269830E+02  0.19999994463E+02 0.  0.
        -12    1    1    2    0    0  0.22723874484E+02 -0.33322556513E+02 -0.16026731893E+02  0.43400730170E+02  0.00000000000E+00 0.  1.
         11    1    3    3    0    0 -0.21890978339E+01 -0.11730706813E+01 -0.16218396054E+01  0.29662447836E+01  0.51100000000E-03 0.  1.
        -11    1    3    3    0    0 -0.20471817245E+02  0.30613593145E+02  0.13727794086E+02  0.39303176936E+02  0.51100000000E-03 0. -1.
        -12    1    3    3    0    0 -0.62959404817E-01  0.38820340496E+01  0.39207774125E+01  0.55178481102E+01  0.00000000000E+00 0.  1.
</event>
<event>
 7    1  0.7357971E-011  0.4778727E+02  0.7816164E-02  0.1312668E+00
        -11   -1    0    0    0    0  0.00000000000E+00  0.00000000000E+00  0.45593999997E+02  0.45594000000E+02  0.51100000000E-03 0.  1.
         11   -1    0    0    0    0 -0.00000000000E+00 -0.00000000000E+00 -0.45593999997E+02  0.45594000000E+02  0.51100000000E-03 0. -1.
    9900012    2    1    2    0    0  0.20263652013E+02  0.38302425224E+02 -0.24356003402E+01  0.47787268210E+02  0.19999987074E+02 0.  0.
         12    1    1    2    0    0 -0.20263652013E+02 -0.38302425224E+02  0.24356003402E+01  0.43400731790E+02  0.00000000000E+00 0. -1.
         11    1    3    3    0    0  0.10966595340E+02  0.25641014303E+02  0.26999918261E+01  0.28018168819E+02  0.51100000000E-03 0.  1.
        -11    1    3    3    0    0  0.42253331452E+01  0.10220310605E+02 -0.78084393680E+01  0.13538091249E+02  0.51100000000E-03 0. -1.
        -12    1    3    3    0    0  0.50717235276E+01  0.24411003158E+01  0.26728472017E+01  0.62310081412E+01  0.00000000000E+00 0.  1.
</event>
<event>
 7    1  0.7357971E-011  0.4778727E+02  0.7816164E-02  0.1312668E+00
        -11   -1    0    0    0    0  0.00000000000E+00  0.00000000000E+00  0.45593999997E+02  0.45594000000E+02  0.51100000000E-03 0. -1.
         11   -1    0    0    0    0 -0.00000000000E+00 -0.00000000000E+00 -0.45593999997E+02  0.45594000000E+02  0.51100000000E-03 0.  1.
    9900012    2    1    2    0    0  0.12858622931E+02 -0.11499630791E+02  0.39825093726E+02  0.47787265187E+02  0.19999973295E+02 0.  0.
        -12    1    1    2    0    0 -0.12858622931E+02  0.11499630791E+02 -0.39825093726E+02  0.43400734813E+02  0.00000000000E+00 0.  1.
         11    1    3    3    0    0  0.12741774512E+01  0.31388953459E+00 -0.17965785586E+01  0.22248032712E+01  0.51100000000E-03 0. -1.
        -11    1    3    3    0    0  0.47777876889E+01 -0.42392755587E-01  0.13624495940E+02  0.14438003402E+02  0.51100000000E-03 0.  1.
         12    1    3    3    0    0  0.68066577906E+01 -0.11771127570E+02  0.27997176344E+02  0.31124458514E+02  0.00000000000E+00 0. -1.
</event>
<event>
 7    1  0.7357971E-011  0.4778727E+02  0.7816164E-02  0.1312668E+00
        -11   -1    0    0    0    0  0.00000000000E+00  0.00000000000E+00  0.45593999997E+02  0.45594000000E+02  0.51100000000E-03 0. -1.
         11   -1    0    0    0    0 -0.00000000000E+00 -0.00000000000E+00 -0.45593999997E+02  0.45594000000E+02  0.51100000000E-03 0.  1.
    9900012    2    1    2    0    0  0.14343401445E+02  0.21352969565E+02  0.34956266953E+02  0.47787273352E+02  0.20000010521E+02 0.  0.
        -12    1    1    2    0    0 -0.14343401445E+02 -0.21352969565E+02 -0.34956266953E+02  0.43400726648E+02  0.00000000000E+00 0.  1.
         11    1    3    3    0    0  0.11685180562E+02  0.69738204091E+01  0.16765042338E+02  0.21592689983E+02  0.51100000000E-03 0. -1.
        -11    1    3    3    0    0 -0.18827785124E+01  0.93197175685E+01  0.37270696506E+01  0.10212396336E+02  0.51100000000E-03 0.  1.
         12    1    3    3    0    0  0.45409993962E+01  0.50594315871E+01  0.14464154965E+02  0.15982187033E+02  0.00000000000E+00 0. -1.
</event>
<event>
 7    1  0.7357971E-011  0.4778727E+02  0.7816164E-02  0.1312668E+00
        -11   -1    0    0    0    0  0.00000000000E+00  0.00000000000E+00  0.45593999997E+02  0.45594000000E+02  0.51100000000E-03 0.  1.
         11   -1    0    0    0    0 -0.00000000000E+00 -0.00000000000E+00 -0.45593999997E+02  0.45594000000E+02  0.51100000000E-03 0. -1.
    9900012    2    1    2    0    0  0.20646808411E+01  0.42636213412E+02  0.78430773649E+01  0.47787268859E+02  0.19999990034E+02 0.  0.
        -12    1    1    2    0    0 -0.20646808411E+01 -0.42636213412E+02 -0.78430773649E+01  0.43400731141E+02  0.00000000000E+00 0.  1.
         11    1    3    3    0    0 -0.99127764216E+00  0.24487851139E+01  0.61974000181E+01  0.67369835344E+01  0.51100000000E-03 0.  1.
        -11    1    3    3    0    0  0.15244646562E+01  0.38623297859E+01  0.21783648606E+01  0.46890145649E+01  0.51100000000E-03 0. -1.
         12    1    3    3    0    0  0.15314938271E+01  0.36325098512E+02 -0.53268751376E+00  0.36361270759E+02  0.00000000000E+00 0. -1.
</event>
<event>
 7    1  0.7357971E-011  0.4778727E+02  0.7816164E-02  0.1312668E+00
        -11   -1    0    0    0    0  0.00000000000E+00  0.00000000000E+00  0.45593999997E+02  0.45594000000E+02  0.51100000000E-03 0. -1.
         11   -1    0    0    0    0 -0.00000000000E+00 -0.00000000000E+00 -0.45593999997E+02  0.45594000000E+02  0.51100000000E-03 0.  1.
    9900012    2    1    2    0    0 -0.27083062805E+02  0.24932445764E+02 -0.22989227068E+02  0.47787266091E+02  0.19999977415E+02 0.  0.
         12    1    1    2    0    0  0.27083062805E+02 -0.24932445764E+02  0.22989227068E+02  0.43400733909E+02  0.00000000000E+00 0. -1.
         11    1    3    3    0    0 -0.10730500243E+02 -0.16034683828E+00 -0.61630333957E+01  0.12375472818E+02  0.51100000000E-03 0. -1.
        -11    1    3    3    0    0 -0.97754908038E+01  0.20470627011E+02 -0.14915014740E+02  0.27148931022E+02  0.51100000000E-03 0.  1.
        -12    1    3    3    0    0 -0.65770717583E+01  0.46221655910E+01 -0.19111789320E+01  0.82628622507E+01  0.00000000000E+00 0.  1.
</event>
<event>
 7    1  0.7658408E-011  0.4778727E+02  0.7816164E-02  0.1312668E+00
        -11   -1    0    0    0    0  0.00000000000E+00  0.00000000000E+00  0.45593999997E+02  0.45594000000E+02  0.51100000000E-03 0. -1.
         11   -1    0    0    0    0 -0.00000000000E+00 -0.00000000000E+00 -0.45593999997E+02  0.45594000000E+02  0.51100000000E-03 0.  1.
    9900012    2    1    2    0    0 -0.56096567152E+01  0.27934468722E+00 -0.43035762053E+02  0.47787273078E+02  0.20000009271E+02 0.  0.
         12    1    1    2    0    0  0.56096567152E+01 -0.27934468722E+00  0.43035762053E+02  0.43400726922E+02  0.00000000000E+00 0. -1.
         11    1    3    3    0    0  0.13564912710E+01 -0.35178355310E+01 -0.97495827880E+01  0.10453210042E+02  0.51100000000E-03 0. -1.
        -11    1    3    3    0    0 -0.76294575545E+01  0.14439110333E+01 -0.33928853772E+02  0.34806042869E+02  0.51100000000E-03 0.  1.
        -12    1    3    3    0    0  0.66330956825E+00  0.23532691849E+01  0.64267450703E+00  0.25280201665E+01  0.00000000000E+00 0.  1.
</event>
<event>
 7    1  0.7357971E-011  0.4778727E+02  0.7816164E-02  0.1312668E+00
        -11   -1    0    0    0    0  0.00000000000E+00  0.00000000000E+00  0.45593999997E+02  0.45594000000E+02  0.51100000000E-03 0. -1.
         11   -1    0    0    0    0 -0.00000000000E+00 -0.00000000000E+00 -0.45593999997E+02  0.45594000000E+02  0.51100000000E-03 0.  1.
    9900012    2    1    2    0    0 -0.31986837297E+02 -0.28716923779E+02  0.59836010436E+01  0.47787274740E+02  0.20000016851E+02 0.  0.
        -12    1    1    2    0    0  0.31986837297E+02  0.28716923779E+02 -0.59836010436E+01  0.43400725260E+02  0.00000000000E+00 0.  1.
         11    1    3    3    0    0 -0.23280127243E+02 -0.10941032222E+02  0.98201832745E+01  0.27533734043E+02  0.51100000000E-03 0. -1.
        -11    1    3    3    0    0 -0.83672713905E+01 -0.15852310036E+02 -0.32818280308E+01  0.18222989861E+02  0.51100000000E-03 0.  1.
        -12    1    3    3    0    0 -0.33943866367E+00 -0.19235815214E+01 -0.55475420012E+00  0.20305508362E+01  0.00000000000E+00 0.  1.
</event>
<event>
 7    1  0.7357971E-011  0.4778727E+02  0.7816164E-02  0.1312668E+00
        -11   -1    0    0    0    0  0.00000000000E+00  0.00000000000E+00  0.45593999997E+02  0.45594000000E+02  0.51100000000E-03 0. -1.
         11   -1    0    0    0    0 -0.00000000000E+00 -0.00000000000E+00 -0.45593999997E+02  0.45594000000E+02  0.51100000000E-03 0.  1.
    9900012    2    1    2    0    0 -0.22894991117E+02 -0.22400189622E+02 -0.29286076241E+02  0.47787269880E+02  0.19999994692E+02 0.  0.
         12    1    1    2    0    0  0.22894991117E+02  0.22400189622E+02  0.29286076241E+02  0.43400730120E+02  0.00000000000E+00 0. -1.
         11    1    3    3    0    0 -0.12481278967E+02 -0.46977782400E+00 -0.84518154780E+01  0.15080988064E+02  0.51100000000E-03 0. -1.
        -11    1    3    3    0    0 -0.10827835629E+02 -0.21643359328E+02 -0.18897158219E+02  0.30704716518E+02  0.51100000000E-03 0.  1.
         12    1    3    3    0    0  0.41412347977E+00 -0.28705246970E+00 -0.19371025436E+01  0.20015652977E+01  0.00000000000E+00 0. -1.
</event>
<event>
 7    1  0.7357971E-011  0.4778728E+02  0.7816164E-02  0.1312668E+00
        -11   -1    0    0    0    0  0.00000000000E+00  0.00000000000E+00  0.45593999997E+02  0.45594000000E+02  0.51100000000E-03 0. -1.
         11   -1    0    0    0    0 -0.00000000000E+00 -0.00000000000E+00 -0.45593999997E+02  0.45594000000E+02  0.51100000000E-03 0.  1.
    9900012    2    1    2    0    0 -0.35387857514E+02 -0.11613793091E+02  0.22280981137E+02  0.47787276852E+02  0.20000026477E+02 0.  0.
        -12    1    1    2    0    0  0.35387857514E+02  0.11613793091E+02 -0.22280981137E+02  0.43400723148E+02  0.00000000000E+00 0.  1.
         11    1    3    3    0    0 -0.75369079620E+01 -0.55439089105E+01  0.65338309639E+01  0.11411873420E+02  0.51100000000E-03 0. -1.
        -11    1    3    3    0    0 -0.13584118374E+02 -0.12528544284E+01  0.16364316532E+02  0.21304665500E+02  0.51100000000E-03 0.  1.
        -12    1    3    3    0    0 -0.14266831178E+02 -0.48170297519E+01 -0.61716635927E+00  0.15070737932E+02  0.00000000000E+00 0.  1.
</event>
<event>
 7    1  0.7357971E-011  0.4778727E+02  0.7816164E-02  0.1312668E+00
        -11   -1    0    0    0    0  0.00000000000E+00  0.00000000000E+00  0.45593999997E+02  0.45594000000E+02  0.51100000000E-03 0. -1.
         11   -1    0    0    0    0 -0.00000000000E+00 -0.00000000000E+00 -0.45593999997E+02  0.45594000000E+02  0.51100000000E-03 0.  1.
    9900012    2    1    2    0    0  0.19670565432E+02 -0.27764322936E+02 -0.26941316910E+02  0.47787270405E+02  0.19999997085E+02 0.  0.
         12    1    1    2    0    0 -0.19670565432E+02  0.27764322936E+02  0.26941316910E+02  0.43400729595E+02  0.00000000000E+00 0. -1.
         11    1    3    3    0    0  0.12411738163E+02 -0.11553662873E+02 -0.33601606740E+01  0.17286672613E+02  0.51100000000E-03 0. -1.
        -11    1    3    3    0    0 -0.46768664402E+00 -0.38878656577E+01 -0.94161469143E+01  0.10197943574E+02  0.51100000000E-03 0.  1.
        -12    1    3    3    0    0  0.77265139132E+01 -0.12322794405E+02 -0.14165009321E+02  0.20302654218E+02  0.00000000000E+00 0.  1.
</event>
<event>
 7    1  0.7357971E-011  0.4778728E+02  0.7816164E-02  0.1312668E+00
        -11   -1    0    0    0    0  0.00000000000E+00  0.00000000000E+00  0.45593999997E+02  0.45594000000E+02  0.51100000000E-03 0. -1.
         11   -1    0    0    0    0 -0.00000000000E+00 -0.00000000000E+00 -0.45593999997E+02  0.45594000000E+02  0.51100000000E-03 0.  1.
    9900012    2    1    2    0    0  0.77174026334E+01 -0.25237154368E+02 -0.34455051657E+02  0.47787275943E+02  0.20000022333E+02 0.  0.
         12    1    1    2    0    0 -0.77174026334E+01  0.25237154368E+02  0.34455051657E+02  0.43400724057E+02  0.00000000000E+00 0. -1.
         11    1    3    3    0    0 -0.14310154800E+01  0.27851905643E+01 -0.42889699081E+01  0.53104006362E+01  0.51100000000E-03 0. -1.
        -11    1    3    3    0    0  0.74574607124E+01 -0.20873169929E+02 -0.19478399126E+02  0.29507812117E+02  0.51100000000E-03 0.  1.
         12    1    3    3    0    0  0.16909574010E+01 -0.71491750034E+01 -0.10687682623E+02  0.12969063189E+02  0.00000000000E+00 0. -1.
</event>
<event>
 7    1  0.7442329E-011  0.4778726E+02  0.7816164E-02  0.1312668E+00
        -11   -1    0    0    0    0  0.00000000000E+00  0.00000000000E+00  0.45593999997E+02  0.45594000000E+02  0.51100000000E-03 0.  1.
         11   -1    0    0    0    0 -0.00000000000E+00 -0.00000000000E+00 -0.45593999997E+02  0.45594000000E+02  0.51100000000E-03 0. -1.
    9900012    2    1    2    0    0 -0.26554186293E+02 -0.24327653355E+02 -0.24221154632E+02  0.47787264302E+02  0.19999969257E+02 0.  0.
         12    1    1    2    0    0  0.26554186293E+02  0.24327653355E+02  0.24221154632E+02  0.43400735698E+02  0.00000000000E+00 0. -1.
         11    1    3    3    0    0 -0.12185458544E+01  0.10323327801E+01 -0.20861353498E+01  0.26272658653E+01  0.51100000000E-03 0. -1.
        -11    1    3    3    0    0 -0.82293633839E+01 -0.40965059720E+01  0.11779148586E+01  0.92677541270E+01  0.51100000000E-03 0.  1.
        -12    1    3    3    0    0 -0.17106277055E+02 -0.21263480163E+02 -0.23312934140E+02  0.35892244309E+02  0.00000000000E+00 0.  1.
</event>
<event>
 7    1  0.7357971E-011  0.4778727E+02  0.7816164E-02  0.1312668E+00
        -11   -1    0    0    0    0  0.00000000000E+00  0.00000000000E+00  0.45593999997E+02  0.45594000000E+02  0.51100000000E-03 0. -1.
         11   -1    0    0    0    0 -0.00000000000E+00 -0.00000000000E+00 -0.45593999997E+02  0.45594000000E+02  0.51100000000E-03 0.  1.
    9900012    2    1    2    0    0  0.32156677175E+02  0.22678487742E+02  0.18310034802E+02  0.47787273420E+02  0.20000010831E+02 0.  0.
        -12    1    1    2    0    0 -0.32156677175E+02 -0.22678487742E+02 -0.18310034802E+02  0.43400726580E+02  0.00000000000E+00 0.  1.
         11    1    3    3    0    0  0.16151548602E+02  0.17152858693E+02  0.14967172223E+02  0.27912529950E+02  0.51100000000E-03 0. -1.
        -11    1    3    3    0    0  0.20331744322E+01  0.16330333952E-01 -0.29565674756E+01  0.35882246934E+01  0.51100000000E-03 0.  1.
        -12    1    3    3    0    0  0.13971954141E+02  0.55092987154E+01  0.62994300547E+01  0.16286518777E+02  0.00000000000E+00 0.  1.
</event>
<event>
 7    1  0.7357971E-011  0.4778726E+02  0.7816164E-02  0.1312668E+00
        -11   -1    0    0    0    0  0.00000000000E+00  0.00000000000E+00  0.45593999997E+02  0.45594000000E+02  0.51100000000E-03 0.  1.
         11   -1    0    0    0    0 -0.00000000000E+00 -0.00000000000E+00 -0.45593999997E+02  0.45594000000E+02  0.51100000000E-03 0. -1.
    9900012    2    1    2    0    0 -0.99837280023E+00  0.32614599894E+02 -0.28616690216E+02  0.47787264599E+02  0.19999970611E+02 0.  0.
         12    1    1    2    0    0  0.99837280023E+00 -0.32614599894E+02  0.28616690216E+02  0.43400735401E+02  0.00000000000E+00 0. -1.
         11    1    3    3    0    0 -0.37829554629E+00 -0.42450079761E+00 -0.58572890931E+00  0.81632534190E+00  0.51100000000E-03 0. -1.
        -11    1    3    3    0    0 -0.44013746831E+01  0.20671577697E+01  0.23676793878E+00  0.48683980593E+01  0.51100000000E-03 0.  1.
        -12    1    3    3    0    0  0.37812974292E+01  0.30971942922E+02 -0.28267729245E+02  0.42102541197E+02  0.00000000000E+00 0.  1.
</event>
<event>
 7    1  0.7357971E-011  0.4778728E+02  0.7816164E-02  0.1312668E+00
        -11   -1    0    0    0    0  0.00000000000E+00  0.00000000000E+00  0.45593999997E+02  0.45594000000E+02  0.51100000000E-03 0. -1.
         11   -1    0    0    0    0 -0.00000000000E+00 -0.00000000000E+00 -0.45593999997E+02  0.45594000000E+02  0.51100000000E-03 0.  1.
    9900012    2    1    2    0    0  0.25625038952E+02  0.18042554939E+02  0.30024098949E+02  0.47787275033E+02  0.20000018184E+02 0.  0.
        -12    1    1    2    0    0 -0.25625038952E+02 -0.18042554939E+02 -0.30024098949E+02  0.43400724967E+02  0.00000000000E+00 0.  1.
         11    1    3    3    0    0  0.12471877410E+02  0.34273051492E+01  0.15340047437E+02  0.20065173868E+02  0.51100000000E-03 0. -1.
        -11    1    3    3    0    0  0.51107255399E+01  0.55724241361E+01 -0.13015055163E+01  0.76723753275E+01  0.51100000000E-03 0.  1.
        -12    1    3    3    0    0  0.80424360012E+01  0.90428256540E+01  0.15985557028E+02  0.20049725837E+02  0.00000000000E+00 0.  1.
</event>
<event>
 7    1  0.7357971E-011  0.4778733E+02  0.7816164E-02  0.1312668E+00
        -11   -1    0    0    0    0  0.00000000000E+00  0.00000000000E+00  0.45593999997E+02  0.45594000000E+02  0.51100000000E-03 0. -1.
         11   -1    0    0    0    0 -0.00000000000E+00 -0.00000000000E+00 -0.45593999997E+02  0.45594000000E+02  0.51100000000E-03 0.  1.
    9900012    2    1    2    0    0 -0.24677132970E+02  0.50112073239E+01  0.35348907588E+02  0.47787327677E+02  0.20000258207E+02 0.  0.
        -12    1    1    2    0    0  0.24677132970E+02 -0.50112073239E+01 -0.35348907588E+02  0.43400672323E+02  0.00000000000E+00 0.  1.
         11    1    3    3    0    0 -0.19990555251E+02  0.78260890624E+01  0.17584958271E+02  0.27750688765E+02  0.51100000000E-03 0. -1.
        -11    1    3    3    0    0 -0.21926887260E+01 -0.33577312929E+00  0.15905218637E+02  0.16059159616E+02  0.51100000000E-03 0.  1.
         12    1    3    3    0    0 -0.24938889926E+01 -0.24791086092E+01  0.18587306799E+01  0.39774792953E+01  0.00000000000E+00 0. -1.
</event>
<event>
 7    1  0.7357971E-011  0.4778728E+02  0.7816164E-02  0.1312668E+00
        -11   -1    0    0    0    0  0.00000000000E+00  0.00000000000E+00  0.45593999997E+02  0.45594000000E+02  0.51100000000E-03 0. -1.
         11   -1    0    0    0    0 -0.00000000000E+00 -0.00000000000E+00 -0.45593999997E+02  0.45594000000E+02  0.51100000000E-03 0.  1.
    9900012    2    1    2    0    0 -0.62295603230E+01  0.19669318008E+02  0.38182890487E+02  0.47787278593E+02  0.20000034418E+02 0.  0.
        -12    1    1    2    0    0  0.62295603230E+01 -0.19669318008E+02 -0.38182890487E+02  0.43400721407E+02  0.00000000000E+00 0.  1.
         11    1    3    3    0    0  0.35256142667E+01 -0.63704490285E+00  0.30327603272E+01  0.46939767393E+01  0.51100000000E-03 0. -1.
        -11    1    3    3    0    0  0.17414884981E+01  0.53879007986E+01  0.50549834505E+01  0.75904621171E+01  0.51100000000E-03 0.  1.
         12    1    3    3    0    0 -0.11496663088E+02  0.14918462112E+02  0.30095146709E+02  0.35502839737E+02  0.00000000000E+00 0. -1.
</event>
<event>
 7    1  0.7357971E-011  0.4778727E+02  0.7816164E-02  0.1312668E+00
        -11   -1    0    0    0    0  0.00000000000E+00  0.00000000000E+00  0.45593999997E+02  0.45594000000E+02  0.51100000000E-03 0. -1.
         11   -1    0    0    0    0 -0.00000000000E+00 -0.00000000000E+00 -0.45593999997E+02  0.45594000000E+02  0.51100000000E-03 0.  1.
    9900012    2    1    2    0    0  0.29489531529E+02  0.28336177434E+02 -0.14527625920E+02  0.47787270326E+02  0.19999996725E+02 0.  0.
         12    1    1    2    0    0 -0.29489531529E+02 -0.28336177434E+02  0.14527625920E+02  0.43400729674E+02  0.00000000000E+00 0. -1.
         11    1    3    3    0    0  0.71322675537E+01  0.12792400621E+02  0.19267258852E+01  0.14772509164E+02  0.51100000000E-03 0. -1.
        -11    1    3    3    0    0  0.12569091813E+02  0.68976609977E+01 -0.38061100609E+01  0.14833956664E+02  0.51100000000E-03 0.  1.
         12    1    3    3    0    0  0.97881721617E+01  0.86461158148E+01 -0.12648241745E+02  0.18180804498E+02  0.00000000000E+00 0. -1.
</event>
<event>
 7    1  0.7357971E-011  0.4778727E+02  0.7816164E-02  0.1312668E+00
        -11   -1    0    0    0    0  0.00000000000E+00  0.00000000000E+00  0.45593999997E+02  0.45594000000E+02  0.51100000000E-03 0. -1.
         11   -1    0    0    0    0 -0.00000000000E+00 -0.00000000000E+00 -0.45593999997E+02  0.45594000000E+02  0.51100000000E-03 0.  1.
    9900012    2    1    2    0    0 -0.19384225630E+02 -0.20081895113E+02  0.33235407244E+02  0.47787274093E+02  0.20000013898E+02 0.  0.
        -12    1    1    2    0    0  0.19384225630E+02  0.20081895113E+02 -0.33235407244E+02  0.43400725907E+02  0.00000000000E+00 0.  1.
         11    1    3    3    0    0 -0.68145868460E+01 -0.40878741441E+00  0.16704689256E+02  0.18045840087E+02  0.51100000000E-03 0. -1.
        -11    1    3    3    0    0 -0.29253649001E+00  0.38449855403E+00 -0.50787885406E+00  0.70096927719E+00  0.51100000000E-03 0.  1.
         12    1    3    3    0    0 -0.12277102294E+02 -0.20057606252E+02  0.17038596842E+02  0.29040464728E+02  0.00000000000E+00 0. -1.
</event>
<event>
 7    1  0.7357971E-011  0.4778728E+02  0.7816164E-02  0.1312668E+00
        -11   -1    0    0    0    0  0.00000000000E+00  0.00000000000E+00  0.45593999997E+02  0.45594000000E+02  0.51100000000E-03 0. -1.
         11   -1    0    0    0    0 -0.00000000000E+00 -0.00000000000E+00 -0.45593999997E+02  0.45594000000E+02  0.51100000000E-03 0.  1.
    9900012    2    1    2    0    0 -0.68696067927E+00 -0.41191985791E+02  0.13651764120E+02  0.47787282587E+02  0.20000052627E+02 0.  0.
        -12    1    1    2    0    0  0.68696067927E+00  0.41191985791E+02 -0.13651764120E+02  0.43400717413E+02  0.00000000000E+00 0.  1.
         11    1    3    3    0    0 -0.22564540361E-02  0.19815030083E+00  0.20463340860E+01  0.20559066335E+01  0.51100000000E-03 0. -1.
        -11    1    3    3    0    0 -0.47354580981E+01 -0.89412117881E+01 -0.19993062175E+01  0.10313440612E+02  0.51100000000E-03 0.  1.
        -12    1    3    3    0    0  0.40507538728E+01 -0.32448924304E+02  0.13604736251E+02  0.35417935342E+02  0.00000000000E+00 0.  1.
</event>
<event>
 7    1  0.7357971E-011  0.4778726E+02  0.7816164E-02  0.1312668E+00
        -11   -1    0    0    0    0  0.00000000000E+00  0.00000000000E+00  0.45593999997E+02  0.45594000000E+02  0.51100000000E-03 0. -1.
         11   -1    0    0    0    0 -0.00000000000E+00 -0.00000000000E+00 -0.45593999997E+02  0.45594000000E+02  0.51100000000E-03 0.  1.
    9900012    2    1    2    0    0 -0.36504916676E+01  0.41323971564E+02 -0.12752547176E+02  0.47787260667E+02  0.19999952684E+02 0.  0.
         12    1    1    2    0    0  0.36504916676E+01 -0.41323971564E+02  0.12752547176E+02  0.43400739333E+02  0.00000000000E+00 0. -1.
         11    1    3    3    0    0  0.62375395963E+01  0.25738905963E+02 -0.41459632463E+01  0.26806476678E+02  0.51100000000E-03 0. -1.
        -11    1    3    3    0    0 -0.84561219381E+01  0.11311517389E+02 -0.43403989436E+01  0.14774826128E+02  0.51100000000E-03 0.  1.
        -12    1    3    3    0    0 -0.14319093258E+01  0.42735482123E+01 -0.42661849858E+01  0.62059578610E+01  0.00000000000E+00 0.  1.
</event>
<event>
 7    1  0.7357971E-011  0.4778728E+02  0.7816164E-02  0.1312668E+00
        -11   -1    0    0    0    0  0.00000000000E+00  0.00000000000E+00  0.45593999997E+02  0.45594000000E+02  0.51100000000E-03 0. -1.
         11   -1    0    0    0    0 -0.00000000000E+00 -0.00000000000E+00 -0.45593999997E+02  0.45594000000E+02  0.51100000000E-03 0.  1.
    9900012    2    1    2    0    0 -0.27692577571E+02 -0.65467257797E+01  0.32770175275E+02  0.47787275829E+02  0.20000021817E+02 0.  0.
        -12    1    1    2    0    0  0.27692577571E+02  0.65467257797E+01 -0.32770175275E+02  0.43400724171E+02  0.00000000000E+00 0.  1.
         11    1    3    3    0    0 -0.18580414489E+02 -0.56718969467E+01  0.21044112043E+02  0.28640126911E+02  0.51100000000E-03 0. -1.
        -11    1    3    3    0    0 -0.79811618256E+00 -0.26631692162E+01 -0.16967861223E+01  0.32570758543E+01  0.51100000000E-03 0.  1.
        -12    1    3    3    0    0 -0.83140468992E+01  0.17883403832E+01  0.13422849355E+02  0.15890073064E+02  0.00000000000E+00 0.  1.
</event>
<event>
 7    1  0.8854969E-011  0.4778727E+02  0.7816164E-02  0.1312668E+00
        -11   -1    0    0    0    0  0.00000000000E+00  0.00000000000E+00  0.45593999997E+02  0.45594000000E+02  0.51100000000E-03 0. -1.
         11   -1    0    0    0    0 -0.00000000000E+00 -0.00000000000E+00 -0.45593999997E+02  0.45594000000E+02  0.51100000000E-03 0.  1.
    9900012    2    1    2    0    0  0.48451356214E+01  0.38283047893E+01 -0.42959189998E+02  0.47787271181E+02  0.20000000624E+02 0.  0.
         12    1    1    2    0    0 -0.48451356214E+01 -0.38283047893E+01  0.42959189998E+02  0.43400728819E+02  0.00000000000E+00 0. -1.
         11    1    3    3    0    0  0.56678347697E+01 -0.27162930262E+01 -0.55119375157E+01  0.83596683080E+01  0.51100000000E-03 0. -1.
        -11    1    3    3    0    0  0.11978533088E+01  0.49744087028E+01 -0.36237822142E+02  0.36597258755E+02  0.51100000000E-03 0.  1.
        -12    1    3    3    0    0 -0.20205524572E+01  0.15701891127E+01 -0.12094303396E+01  0.28303441184E+01  0.00000000000E+00 0.  1.
</event>
<event>
 7    1  0.7357971E-011  0.4778727E+02  0.7816164E-02  0.1312668E+00
        -11   -1    0    0    0    0  0.00000000000E+00  0.00000000000E+00  0.45593999997E+02  0.45594000000E+02  0.51100000000E-03 0. -1.
         11   -1    0    0    0    0 -0.00000000000E+00 -0.00000000000E+00 -0.45593999997E+02  0.45594000000E+02  0.51100000000E-03 0.  1.
    9900012    2    1    2    0    0 -0.92051399324E+01 -0.31082784389E+02 -0.28857399996E+02  0.47787267044E+02  0.19999981761E+02 0.  0.
         12    1    1    2    0    0  0.92051399324E+01  0.31082784389E+02  0.28857399996E+02  0.43400732956E+02  0.00000000000E+00 0. -1.
         11    1    3    3    0    0 -0.22565142157E+01 -0.41007733249E+00 -0.12759569910E+01  0.26245163989E+01  0.51100000000E-03 0. -1.
        -11    1    3    3    0    0 -0.10737712290E+01 -0.10330528452E+02 -0.20245875838E+02  0.22754522439E+02  0.51100000000E-03 0.  1.
        -12    1    3    3    0    0 -0.58748544877E+01 -0.20342178605E+02 -0.73355671672E+01  0.22408228206E+02  0.00000000000E+00 0.  1.
</event>
<event>
 7    1  0.7357971E-011  0.4778727E+02  0.7816164E-02  0.1312668E+00
        -11   -1    0    0    0    0  0.00000000000E+00  0.00000000000E+00  0.45593999997E+02  0.45594000000E+02  0.51100000000E-03 0. -1.
         11   -1    0    0    0    0 -0.00000000000E+00 -0.00000000000E+00 -0.45593999997E+02  0.45594000000E+02  0.51100000000E-03 0.  1.
    9900012    2    1    2    0    0 -0.90525462833E+01 -0.13706464232E+02  0.40172218974E+02  0.47787274969E+02  0.20000017892E+02 0.  0.
        -12    1    1    2    0    0  0.90525462833E+01  0.13706464232E+02 -0.40172218974E+02  0.43400725031E+02  0.00000000000E+00 0.  1.
         11    1    3    3    0    0 -0.12734695626E+01 -0.14813366782E+02  0.21160918672E+02  0.25861980579E+02  0.51100000000E-03 0. -1.
        -11    1    3    3    0    0 -0.81474610529E+01  0.25154137835E+01  0.11741080626E+02  0.14510734049E+02  0.51100000000E-03 0.  1.
        -12    1    3    3    0    0  0.36838433215E+00 -0.14085112327E+01  0.72702196764E+01  0.74145603411E+01  0.00000000000E+00 0.  1.
</event>
<event>
 7    1  0.7357971E-011  0.4778726E+02  0.7816164E-02  0.1312668E+00
        -11   -1    0    0    0    0  0.00000000000E+00  0.00000000000E+00  0.45593999997E+02  0.45594000000E+02  0.51100000000E-03 0. -1.
         11   -1    0    0    0    0 -0.00000000000E+00 -0.00000000000E+00 -0.45593999997E+02  0.45594000000E+02  0.51100000000E-03 0.  1.
    9900012    2    1    2    0    0  0.33655408865E+02 -0.15284955831E+02 -0.22744398674E+02  0.47787261623E+02  0.19999957043E+02 0.  0.
         12    1    1    2    0    0 -0.33655408865E+02  0.15284955831E+02  0.22744398674E+02  0.43400738377E+02  0.00000000000E+00 0. -1.
         11    1    3    3    0    0  0.43944429722E+01  0.82294570652E+00 -0.11345736193E+01  0.46125509461E+01  0.51100000000E-03 0. -1.
        -11    1    3    3    0    0 -0.10532450245E+01  0.12963503299E+01  0.58360246582E+00  0.17693053322E+01  0.51100000000E-03 0.  1.
        -12    1    3    3    0    0  0.30314210917E+02 -0.17404251868E+02 -0.22193427521E+02  0.41405405344E+02  0.00000000000E+00 0.  1.
</event>
<event>
 7    1  0.7357971E-011  0.4778727E+02  0.7816164E-02  0.1312668E+00
        -11   -1    0    0    0    0  0.00000000000E+00  0.00000000000E+00  0.45593999997E+02  0.45594000000E+02  0.51100000000E-03 0. -1.
         11   -1    0    0    0    0 -0.00000000000E+00 -0.00000000000E+00 -0.45593999997E+02  0.45594000000E+02  0.51100000000E-03 0.  1.
    9900012    2    1    2    0    0  0.75180219144E+01  0.48445107687E+01 -0.42469205051E+02  0.47787270562E+02  0.19999997801E+02 0.  0.
         12    1    1    2    0    0 -0.75180219144E+01 -0.48445107687E+01  0.42469205051E+02  0.43400729438E+02  0.00000000000E+00 0. -1.
         11    1    3    3    0    0  0.24522183057E+00  0.93336231109E+01 -0.17315376376E+02  0.19672287956E+02  0.51100000000E-03 0. -1.
        -11    1    3    3    0    0  0.80694694339E+01 -0.98150915700E+00 -0.12117709793E+02  0.14591730126E+02  0.51100000000E-03 0.  1.
         12    1    3    3    0    0 -0.79666935007E+00 -0.35076031851E+01 -0.13036118882E+02  0.13523252481E+02  0.00000000000E+00 0. -1.
</event>
<event>
 7    1  0.7357971E-011  0.4778727E+02  0.7816164E-02  0.1312668E+00
        -11   -1    0    0    0    0  0.00000000000E+00  0.00000000000E+00  0.45593999997E+02  0.45594000000E+02  0.51100000000E-03 0. -1.
         11   -1    0    0    0    0 -0.00000000000E+00 -0.00000000000E+00 -0.45593999997E+02  0.45594000000E+02  0.51100000000E-03 0.  1.
    9900012    2    1    2    0    0 -0.25493134092E+02  0.24180917722E+02 -0.25475609807E+02  0.47787270020E+02  0.19999995331E+02 0.  0.
         12    1    1    2    0    0  0.25493134092E+02 -0.24180917722E+02  0.25475609807E+02  0.43400729980E+02  0.00000000000E+00 0. -1.
         11    1    3    3    0    0 -0.48747753537E+01  0.84837797180E+01 -0.17482783650E+02  0.20034611987E+02  0.51100000000E-03 0.  1.
        -11    1    3    3    0    0 -0.73165072411E+01  0.83467217983E+01 -0.14030025021E+01  0.11187826387E+02  0.51100000000E-03 0. -1.
         12    1    3    3    0    0 -0.13301851497E+02  0.73504162060E+01 -0.65898236545E+01  0.16564831646E+02  0.00000000000E+00 0. -1.
</event>
<event>
 7    1  0.7357971E-011  0.4778727E+02  0.7816164E-02  0.1312668E+00
        -11   -1    0    0    0    0  0.00000000000E+00  0.00000000000E+00  0.45593999997E+02  0.45594000000E+02  0.51100000000E-03 0. -1.
         11   -1    0    0    0    0 -0.00000000000E+00 -0.00000000000E+00 -0.45593999997E+02  0.45594000000E+02  0.51100000000E-03 0.  1.
    9900012    2    1    2    0    0  0.36027760924E+02  0.11694609028E+02 -0.21186317088E+02  0.47787268794E+02  0.19999989739E+02 0.  0.
         12    1    1    2    0    0 -0.36027760924E+02 -0.11694609028E+02  0.21186317088E+02  0.43400731206E+02  0.00000000000E+00 0. -1.
         11    1    3    3    0    0 -0.49278024354E+00  0.11727969849E+01 -0.47540838690E+01  0.49213411618E+01  0.51100000000E-03 0. -1.
        -11    1    3    3    0    0  0.30012822668E+02  0.49513983938E+01 -0.95649993121E+01  0.31886910836E+02  0.51100000000E-03 0.  1.
        -12    1    3    3    0    0  0.65077184989E+01  0.55704136491E+01 -0.68672339066E+01  0.10979016796E+02  0.00000000000E+00 0.  1.
</event>
<event>
 7    1  0.7357971E-011  0.4778727E+02  0.7816164E-02  0.1312668E+00
        -11   -1    0    0    0    0  0.00000000000E+00  0.00000000000E+00  0.45593999997E+02  0.45594000000E+02  0.51100000000E-03 0.  1.
         11   -1    0    0    0    0 -0.00000000000E+00 -0.00000000000E+00 -0.45593999997E+02  0.45594000000E+02  0.51100000000E-03 0. -1.
    9900012    2    1    2    0    0 -0.27163705212E+02  0.15941211980E+02 -0.29860241165E+02  0.47787272786E+02  0.20000007942E+02 0.  0.
         12    1    1    2    0    0  0.27163705212E+02 -0.15941211980E+02  0.29860241165E+02  0.43400727214E+02  0.00000000000E+00 0. -1.
         11    1    3    3    0    0 -0.18553239744E+02  0.13313171055E+01 -0.20819622946E+02  0.27918664189E+02  0.51100000000E-03 0. -1.
        -11    1    3    3    0    0 -0.11783343375E+01  0.67288273415E+01 -0.29488495134E+01  0.74405176511E+01  0.51100000000E-03 0.  1.
         12    1    3    3    0    0 -0.74321311304E+01  0.78810675325E+01 -0.60917687057E+01  0.12428090946E+02  0.00000000000E+00 0. -1.
</event>
<event>
 7    1  0.7357971E-011  0.4778727E+02  0.7816164E-02  0.1312668E+00
        -11   -1    0    0    0    0  0.00000000000E+00  0.00000000000E+00  0.45593999997E+02  0.45594000000E+02  0.51100000000E-03 0. -1.
         11   -1    0    0    0    0 -0.00000000000E+00 -0.00000000000E+00 -0.45593999997E+02  0.45594000000E+02  0.51100000000E-03 0.  1.
    9900012    2    1    2    0    0 -0.30057366446E+01  0.37794430343E+02  0.21122737744E+02  0.47787268814E+02  0.19999989829E+02 0.  0.
        -12    1    1    2    0    0  0.30057366446E+01 -0.37794430343E+02 -0.21122737744E+02  0.43400731186E+02  0.00000000000E+00 0.  1.
         11    1    3    3    0    0 -0.46215034620E+00  0.27514831994E+01  0.84717042903E+01  0.89193058352E+01  0.51100000000E-03 0. -1.
        -11    1    3    3    0    0 -0.45581653746E-01  0.33780873378E+02  0.10623460667E+02  0.35411966914E+02  0.51100000000E-03 0.  1.
        -12    1    3    3    0    0 -0.24980046446E+01  0.12620737650E+01  0.20275727871E+01  0.34559960648E+01  0.00000000000E+00 0.  1.
</event>
<event>
 7    1  0.7357971E-011  0.4778727E+02  0.7816164E-02  0.1312668E+00
        -11   -1    0    0    0    0  0.00000000000E+00  0.00000000000E+00  0.45593999997E+02  0.45594000000E+02  0.51100000000E-03 0. -1.
         11   -1    0    0    0    0 -0.00000000000E+00 -0.00000000000E+00 -0.45593999997E+02  0.45594000000E+02  0.51100000000E-03 0.  1.
    9900012    2    1    2    0    0 -0.16133536897E+02  0.27480489245E+02  0.29464469089E+02  0.47787271427E+02  0.20000001744E+02 0.  0.
        -12    1    1    2    0    0  0.16133536897E+02 -0.27480489245E+02 -0.29464469089E+02  0.43400728573E+02  0.00000000000E+00 0.  1.
         11    1    3    3    0    0 -0.88563273969E+00  0.42243766553E+01  0.48088808158E+01  0.64618138659E+01  0.51100000000E-03 0. -1.
        -11    1    3    3    0    0  0.35802512280E+01  0.27111676283E+01  0.70619177364E+01  0.83689492256E+01  0.51100000000E-03 0.  1.
        -12    1    3    3    0    0 -0.18828155385E+02  0.20544944962E+02  0.17593670537E+02  0.32956508335E+02  0.00000000000E+00 0.  1.
</event>
<event>
 7    1  0.7357971E-011  0.4778728E+02  0.7816164E-02  0.1312668E+00
        -11   -1    0    0    0    0  0.00000000000E+00  0.00000000000E+00  0.45593999997E+02  0.45594000000E+02  0.51100000000E-03 0. -1.
         11   -1    0    0    0    0 -0.00000000000E+00 -0.00000000000E+00 -0.45593999997E+02  0.45594000000E+02  0.51100000000E-03 0.  1.
    9900012    2    1    2    0    0  0.39462915890E+02  0.72046396485E+01  0.16564852374E+02  0.47787275384E+02  0.20000019787E+02 0.  0.
        -12    1    1    2    0    0 -0.39462915890E+02 -0.72046396485E+01 -0.16564852374E+02  0.43400724616E+02  0.00000000000E+00 0.  1.
         11    1    3    3    0    0  0.11473013213E+02  0.28075022017E+01  0.13048272969E+02  0.17600270695E+02  0.51100000000E-03 0. -1.
        -11    1    3    3    0    0  0.68445291915E+00 -0.18447374138E+01  0.35431844320E+00  0.19992683024E+01  0.51100000000E-03 0.  1.
         12    1    3    3    0    0  0.27305449758E+02  0.62418748606E+01  0.31622609622E+01  0.28187736387E+02  0.00000000000E+00 0. -1.
</event>
<event>
 7    1  0.7357971E-011  0.4778727E+02  0.7816164E-02  0.1312668E+00
        -11   -1    0    0    0    0  0.00000000000E+00  0.00000000000E+00  0.45593999997E+02  0.45594000000E+02  0.51100000000E-03 0. -1.
         11   -1    0    0    0    0 -0.00000000000E+00 -0.00000000000E+00 -0.45593999997E+02  0.45594000000E+02  0.51100000000E-03 0.  1.
    9900012    2    1    2    0    0  0.19374712057E+00 -0.10028152779E+02 -0.42225843116E+02  0.47787271746E+02  0.20000003201E+02 0.  0.
         12    1    1    2    0    0 -0.19374712057E+00  0.10028152779E+02  0.42225843116E+02  0.43400728254E+02  0.00000000000E+00 0. -1.
         11    1    3    3    0    0  0.28451635131E+01 -0.11515369939E+02 -0.13685422436E+02  0.18110480054E+02  0.51100000000E-03 0. -1.
        -11    1    3    3    0    0  0.75666774511E+00  0.37526350637E+01 -0.17191945229E+02  0.17613000796E+02  0.51100000000E-03 0.  1.
         12    1    3    3    0    0 -0.34080841376E+01 -0.22654179034E+01 -0.11348475450E+02  0.12063790897E+02  0.00000000000E+00 0. -1.
</event>
<event>
 7    1  0.7357971E-011  0.4778728E+02  0.7816164E-02  0.1312668E+00
        -11   -1    0    0    0    0  0.00000000000E+00  0.00000000000E+00  0.45593999997E+02  0.45594000000E+02  0.51100000000E-03 0.  1.
         11   -1    0    0    0    0 -0.00000000000E+00 -0.00000000000E+00 -0.45593999997E+02  0.45594000000E+02  0.51100000000E-03 0. -1.
    9900012    2    1    2    0    0  0.43097062464E+02 -0.20616650474E+01 -0.46920782203E+01  0.47787275884E+02  0.20000022063E+02 0.  0.
         12    1    1    2    0    0 -0.43097062464E+02  0.20616650474E+01  0.46920782203E+01  0.43400724116E+02  0.00000000000E+00 0. -1.
         11    1    3    3    0    0  0.13364785003E+02 -0.21162715158E+01  0.59154683772E+01  0.14767831584E+02  0.51100000000E-03 0.  1.
        -11    1    3    3    0    0  0.11753099537E+02 -0.15784123639E+00 -0.93058253131E+01  0.14991952761E+02  0.51100000000E-03 0. -1.
         12    1    3    3    0    0  0.17979177925E+02  0.21244770475E+00 -0.13017212845E+01  0.18027491539E+02  0.00000000000E+00 0. -1.
</event>
<event>
 7    1  0.7357971E-011  0.4778727E+02  0.7816164E-02  0.1312668E+00
        -11   -1    0    0    0    0  0.00000000000E+00  0.00000000000E+00  0.45593999997E+02  0.45594000000E+02  0.51100000000E-03 0. -1.
         11   -1    0    0    0    0 -0.00000000000E+00 -0.00000000000E+00 -0.45593999997E+02  0.45594000000E+02  0.51100000000E-03 0.  1.
    9900012    2    1    2    0    0 -0.37344401756E+02 -0.12580187827E+02  0.18186751253E+02  0.47787269714E+02  0.19999993933E+02 0.  0.
        -12    1    1    2    0    0  0.37344401756E+02  0.12580187827E+02 -0.18186751253E+02  0.43400730286E+02  0.00000000000E+00 0.  1.
         11    1    3    3    0    0 -0.13609984748E+02 -0.27234446018E+01  0.14103286418E+01  0.13951267415E+02  0.51100000000E-03 0. -1.
        -11    1    3    3    0    0 -0.22669255208E+02 -0.51302238616E+01  0.95330123151E+01  0.25121557528E+02  0.51100000000E-03 0.  1.
        -12    1    3    3    0    0 -0.10651617994E+01 -0.47265193634E+01  0.72434102959E+01  0.87144447710E+01  0.00000000000E+00 0.  1.
</event>
<event>
 7    1  0.7357971E-011  0.4778727E+02  0.7816164E-02  0.1312668E+00
        -11   -1    0    0    0    0  0.00000000000E+00  0.00000000000E+00  0.45593999997E+02  0.45594000000E+02  0.51100000000E-03 0. -1.
         11   -1    0    0    0    0 -0.00000000000E+00 -0.00000000000E+00 -0.45593999997E+02  0.45594000000E+02  0.51100000000E-03 0.  1.
    9900012    2    1    2    0    0 -0.11712546396E+02  0.41267292321E+02  0.65917005525E+01  0.47787266426E+02  0.19999978944E+02 0.  0.
        -12    1    1    2    0    0  0.11712546396E+02 -0.41267292321E+02 -0.65917005525E+01  0.43400733574E+02  0.00000000000E+00 0.  1.
         11    1    3    3    0    0  0.38654064328E+01  0.26731986136E+01  0.11125113240E+01  0.48296003381E+01  0.51100000000E-03 0.  1.
        -11    1    3    3    0    0 -0.15480385131E+02  0.32066664267E+02  0.69161726623E+01  0.36273223259E+02  0.51100000000E-03 0. -1.
         12    1    3    3    0    0 -0.97567698013E-01  0.65274294397E+01 -0.14369834339E+01  0.66844428291E+01  0.00000000000E+00 0. -1.
</event>
<event>
 7    1  0.9405744E-011  0.4778727E+02  0.7816164E-02  0.1312668E+00
        -11   -1    0    0    0    0  0.00000000000E+00  0.00000000000E+00  0.45593999997E+02  0.45594000000E+02  0.51100000000E-03 0. -1.
         11   -1    0    0    0    0 -0.00000000000E+00 -0.00000000000E+00 -0.45593999997E+02  0.45594000000E+02  0.51100000000E-03 0.  1.
    9900012    2    1    2    0    0 -0.65576251815E+01  0.34282758844E+02  0.25793668130E+02  0.47787270541E+02  0.19999997704E+02 0.  0.
        -12    1    1    2    0    0  0.65576251815E+01 -0.34282758844E+02 -0.25793668130E+02  0.43400729459E+02  0.00000000000E+00 0.  1.
         11    1    3    3    0    0  0.76362507572E+00  0.27025316144E+02  0.21269259347E+02  0.34399596355E+02  0.51100000000E-03 0. -1.
        -11    1    3    3    0    0 -0.67368567156E+00  0.18296092936E+01 -0.18574370532E+01  0.26928414768E+01  0.51100000000E-03 0.  1.
         12    1    3    3    0    0 -0.66475645857E+01  0.54278334070E+01  0.63818458356E+01  0.10694832710E+02  0.00000000000E+00 0. -1.
</event>
<event>
 7    1  0.7357971E-011  0.4778727E+02  0.7816164E-02  0.1312668E+00
        -11   -1    0    0    0    0  0.00000000000E+00  0.00000000000E+00  0.45593999997E+02  0.45594000000E+02  0.51100000000E-03 0. -1.
         11   -1    0    0    0    0 -0.00000000000E+00 -0.00000000000E+00 -0.45593999997E+02  0.45594000000E+02  0.51100000000E-03 0.  1.
    9900012    2    1    2    0    0 -0.17741703671E+02  0.24023259733E+02  0.31491877999E+02  0.47787269162E+02  0.19999991417E+02 0.  0.
        -12    1    1    2    0    0  0.17741703671E+02 -0.24023259733E+02 -0.31491877999E+02  0.43400730838E+02  0.00000000000E+00 0.  1.
         11    1    3    3    0    0  0.32177782189E+01  0.99113151037E+01  0.97747032652E+01  0.14287515107E+02  0.51100000000E-03 0. -1.
        -11    1    3    3    0    0 -0.16314556821E+02  0.91762534197E+01  0.16375269275E+02  0.24870018801E+02  0.51100000000E-03 0.  1.
         12    1    3    3    0    0 -0.46449250697E+01  0.49356912092E+01  0.53419054588E+01  0.86297352535E+01  0.00000000000E+00 0. -1.
</event>
<event>
 7    1  0.7357971E-011  0.4778727E+02  0.7816164E-02  0.1312668E+00
        -11   -1    0    0    0    0  0.00000000000E+00  0.00000000000E+00  0.45593999997E+02  0.45594000000E+02  0.51100000000E-03 0. -1.
         11   -1    0    0    0    0 -0.00000000000E+00 -0.00000000000E+00 -0.45593999997E+02  0.45594000000E+02  0.51100000000E-03 0.  1.
    9900012    2    1    2    0    0  0.37284886506E+02 -0.13155674204E+02  0.17899406022E+02  0.47787271187E+02  0.20000000650E+02 0.  0.
        -12    1    1    2    0    0 -0.37284886506E+02  0.13155674204E+02 -0.17899406022E+02  0.43400728813E+02  0.00000000000E+00 0.  1.
         11    1    3    3    0    0  0.26303849762E+02 -0.73651170412E+01  0.47733562692E+01  0.27729449898E+02  0.51100000000E-03 0. -1.
        -11    1    3    3    0    0  0.16332531741E+01 -0.53184902049E+01  0.32148470417E+01  0.64256591687E+01  0.51100000000E-03 0.  1.
        -12    1    3    3    0    0  0.93477835702E+01 -0.47206695815E+00  0.99112027109E+01  0.13632162120E+02  0.00000000000E+00 0.  1.
</event>
<event>
 7    1  0.9868934E-011  0.4778730E+02  0.7816164E-02  0.1312668E+00
        -11   -1    0    0    0    0  0.00000000000E+00  0.00000000000E+00  0.45593999997E+02  0.45594000000E+02  0.51100000000E-03 0. -1.
         11   -1    0    0    0    0 -0.00000000000E+00 -0.00000000000E+00 -0.45593999997E+02  0.45594000000E+02  0.51100000000E-03 0.  1.
    9900012    2    1    2    0    0 -0.13633536276E+02 -0.60322636699E+01 -0.40759770874E+02  0.47787303715E+02  0.20000148957E+02 0.  0.
         12    1    1    2    0    0  0.13633536276E+02  0.60322636699E+01  0.40759770874E+02  0.43400696285E+02  0.00000000000E+00 0. -1.
         11    1    3    3    0    0  0.80625537606E+00 -0.31212793490E+01 -0.22459123344E+00  0.32315435923E+01  0.51100000000E-03 0. -1.
        -11    1    3    3    0    0 -0.14586297144E+02 -0.43593789074E+01 -0.27442552356E+02  0.31382446191E+02  0.51100000000E-03 0.  1.
        -12    1    3    3    0    0  0.14650549265E+00  0.14483945865E+01 -0.13092627284E+02  0.13173313931E+02  0.00000000000E+00 0.  1.
</event>
<event>
 7    1  0.7357971E-011  0.4778727E+02  0.7816164E-02  0.1312668E+00
        -11   -1    0    0    0    0  0.00000000000E+00  0.00000000000E+00  0.45593999997E+02  0.45594000000E+02  0.51100000000E-03 0. -1.
         11   -1    0    0    0    0 -0.00000000000E+00 -0.00000000000E+00 -0.45593999997E+02  0.45594000000E+02  0.51100000000E-03 0.  1.
    9900012    2    1    2    0    0 -0.25919525021E+02 -0.34456959912E+02 -0.49517162812E+01  0.47787270078E+02  0.19999995592E+02 0.  0.
         12    1    1    2    0    0  0.25919525021E+02  0.34456959912E+02  0.49517162812E+01  0.43400729922E+02  0.00000000000E+00 0. -1.
         11    1    3    3    0    0 -0.15936199819E+02 -0.10701152288E+02 -0.36115307246E+01  0.19532544110E+02  0.51100000000E-03 0. -1.
        -11    1    3    3    0    0 -0.46250651202E+01 -0.18083231023E+02 -0.54375683113E+01  0.19441235069E+02  0.51100000000E-03 0.  1.
        -12    1    3    3    0    0 -0.53582600814E+01 -0.56725766012E+01  0.40973827547E+01  0.88134908995E+01  0.00000000000E+00 0.  1.
</event>
<event>
 7    1  0.7357971E-011  0.4778727E+02  0.7816164E-02  0.1312668E+00
        -11   -1    0    0    0    0  0.00000000000E+00  0.00000000000E+00  0.45593999997E+02  0.45594000000E+02  0.51100000000E-03 0. -1.
         11   -1    0    0    0    0 -0.00000000000E+00 -0.00000000000E+00 -0.45593999997E+02  0.45594000000E+02  0.51100000000E-03 0.  1.
    9900012    2    1    2    0    0 -0.98299196259E+01 -0.27156433197E+02 -0.32396360263E+02  0.47787270258E+02  0.19999996417E+02 0.  0.
         12    1    1    2    0    0  0.98299196259E+01  0.27156433197E+02  0.32396360263E+02  0.43400729742E+02  0.00000000000E+00 0. -1.
         11    1    3    3    0    0  0.21433394930E+01 -0.10408746419E+02 -0.44149546185E+01  0.11507724829E+02  0.51100000000E-03 0. -1.
        -11    1    3    3    0    0 -0.25956014104E+01 -0.10565479644E+02 -0.85574006705E+01  0.13841806721E+02  0.51100000000E-03 0.  1.
         12    1    3    3    0    0 -0.93776577086E+01 -0.61822071334E+01 -0.19424004974E+02  0.22437738709E+02  0.00000000000E+00 0. -1.
</event>
<event>
 7    1  0.7357971E-011  0.4778727E+02  0.7816164E-02  0.1312668E+00
        -11   -1    0    0    0    0  0.00000000000E+00  0.00000000000E+00  0.45593999997E+02  0.45594000000E+02  0.51100000000E-03 0. -1.
         11   -1    0    0    0    0 -0.00000000000E+00 -0.00000000000E+00 -0.45593999997E+02  0.45594000000E+02  0.51100000000E-03 0.  1.
    9900012    2    1    2    0    0  0.19024734505E+02 -0.30240928568E+02  0.24640793434E+02  0.47787274376E+02  0.20000015191E+02 0.  0.
        -12    1    1    2    0    0 -0.19024734505E+02  0.30240928568E+02 -0.24640793434E+02  0.43400725624E+02  0.00000000000E+00 0.  1.
         11    1    3    3    0    0  0.53668818799E+01 -0.21573745927E+02  0.71612230008E+01  0.23356220789E+02  0.51100000000E-03 0.  1.
        -11    1    3    3    0    0  0.78584864530E+00 -0.27126907261E+01  0.21688873029E+01  0.35609439005E+01  0.51100000000E-03 0. -1.
         12    1    3    3    0    0  0.12872003980E+02 -0.59544919150E+01  0.15310683130E+02  0.20870109686E+02  0.00000000000E+00 0. -1.
</event>
<event>
 7    1  0.7357971E-011  0.4778727E+02  0.7816164E-02  0.1312668E+00
        -11   -1    0    0    0    0  0.00000000000E+00  0.00000000000E+00  0.45593999997E+02  0.45594000000E+02  0.51100000000E-03 0.  1.
         11   -1    0    0    0    0 -0.00000000000E+00 -0.00000000000E+00 -0.45593999997E+02  0.45594000000E+02  0.51100000000E-03 0. -1.
    9900012    2    1    2    0    0  0.17012643769E+02  0.39922639294E+02 -0.61336704645E+00  0.47787269646E+02  0.19999993622E+02 0.  0.
         12    1    1    2    0    0 -0.17012643769E+02 -0.39922639294E+02  0.61336704645E+00  0.43400730354E+02  0.00000000000E+00 0. -1.
         11    1    3    3    0    0  0.64336472074E+01  0.16513117646E+02 -0.44872424270E+01  0.18281417222E+02  0.51100000000E-03 0. -1.
        -11    1    3    3    0    0 -0.22586150890E+01 -0.26322060558E+00 -0.14267141663E+00  0.22783727969E+01  0.51100000000E-03 0.  1.
        -12    1    3    3    0    0  0.12837611650E+02  0.23672742253E+02  0.40165467972E+01  0.27227479627E+02  0.00000000000E+00 0.  1.
</event>
<event>
 7    1  0.7357971E-011  0.4778727E+02  0.7816164E-02  0.1312668E+00
        -11   -1    0    0    0    0  0.00000000000E+00  0.00000000000E+00  0.45593999997E+02  0.45594000000E+02  0.51100000000E-03 0. -1.
         11   -1    0    0    0    0 -0.00000000000E+00 -0.00000000000E+00 -0.45593999997E+02  0.45594000000E+02  0.51100000000E-03 0.  1.
    9900012    2    1    2    0    0 -0.65321839719E+01  0.90281374984E+01  0.41945754306E+02  0.47787274217E+02  0.20000014467E+02 0.  0.
        -12    1    1    2    0    0  0.65321839719E+01 -0.90281374984E+01 -0.41945754306E+02  0.43400725783E+02  0.00000000000E+00 0.  1.
         11    1    3    3    0    0 -0.42778103257E+01  0.40757416343E+01  0.17973869967E+02  0.18920130362E+02  0.51100000000E-03 0.  1.
        -11    1    3    3    0    0 -0.56832853818E+01  0.76665146121E+01  0.84689909334E+01  0.12759270619E+02  0.51100000000E-03 0. -1.
        -12    1    3    3    0    0  0.34289117357E+01 -0.27141187479E+01  0.15502893406E+02  0.16107873237E+02  0.00000000000E+00 0.  1.
</event>
<event>
 7    1  0.7357971E-011  0.4778727E+02  0.7816164E-02  0.1312668E+00
        -11   -1    0    0    0    0  0.00000000000E+00  0.00000000000E+00  0.45593999997E+02  0.45594000000E+02  0.51100000000E-03 0. -1.
         11   -1    0    0    0    0 -0.00000000000E+00 -0.00000000000E+00 -0.45593999997E+02  0.45594000000E+02  0.51100000000E-03 0.  1.
    9900012    2    1    2    0    0  0.52472178905E+01 -0.19087488410E+02  0.38623280530E+02  0.47787270648E+02  0.19999998192E+02 0.  0.
        -12    1    1    2    0    0 -0.52472178905E+01  0.19087488410E+02 -0.38623280530E+02  0.43400729352E+02  0.00000000000E+00 0.  1.
         11    1    3    3    0    0  0.20997788504E+01 -0.16113725398E+01  0.10391817318E+02  0.10723593619E+02  0.51100000000E-03 0. -1.
        -11    1    3    3    0    0  0.86842290212E+01 -0.46098593390E+01  0.94763169349E+01  0.13655300060E+02  0.51100000000E-03 0.  1.
        -12    1    3    3    0    0 -0.55367899811E+01 -0.12866256531E+02  0.18755146277E+02  0.23408376968E+02  0.00000000000E+00 0.  1.
</event>
<event>
 7    1  0.7357971E-011  0.4778727E+02  0.7816164E-02  0.1312668E+00
        -11   -1    0    0    0    0  0.00000000000E+00  0.00000000000E+00  0.45593999997E+02  0.45594000000E+02  0.51100000000E-03 0.  1.
         11   -1    0    0    0    0 -0.00000000000E+00 -0.00000000000E+00 -0.45593999997E+02  0.45594000000E+02  0.51100000000E-03 0. -1.
    9900012    2    1    2    0    0 -0.36189966209E+01 -0.30030079318E+02  0.31124275469E+02  0.47787270469E+02  0.19999997377E+02 0.  0.
        -12    1    1    2    0    0  0.36189966209E+01  0.30030079318E+02 -0.31124275469E+02  0.43400729531E+02  0.00000000000E+00 0.  1.
         11    1    3    3    0    0 -0.15840473377E+01  0.21624031807E+01  0.37697654298E+00  0.27068995288E+01  0.51100000000E-03 0. -1.
        -11    1    3    3    0    0 -0.45553436289E+01 -0.19506455162E+02  0.18438521052E+02  0.27225576347E+02  0.51100000000E-03 0.  1.
         12    1    3    3    0    0  0.25203943458E+01 -0.12686027336E+02  0.12308777874E+02  0.17854794594E+02  0.00000000000E+00 0. -1.
</event>
<event>
 7    1  0.7357971E-011  0.4778728E+02  0.7816164E-02  0.1312668E+00
        -11   -1    0    0    0    0  0.00000000000E+00  0.00000000000E+00  0.45593999997E+02  0.45594000000E+02  0.51100000000E-03 0. -1.
         11   -1    0    0    0    0 -0.00000000000E+00 -0.00000000000E+00 -0.45593999997E+02  0.45594000000E+02  0.51100000000E-03 0.  1.
    9900012    2    1    2    0    0  0.38955837384E+00  0.33029469364E+02  0.28151823782E+02  0.47787276683E+02  0.20000025707E+02 0.  0.
        -12    1    1    2    0    0 -0.38955837384E+00 -0.33029469364E+02 -0.28151823782E+02  0.43400723317E+02  0.00000000000E+00 0.  1.
         11    1    3    3    0    0 -0.52804077790E+01  0.33173574095E+01  0.99139945585E+01  0.11712166958E+02  0.51100000000E-03 0. -1.
        -11    1    3    3    0    0 -0.67499446652E-01 -0.25949248369E+00  0.98276695724E+00  0.10186872326E+01  0.51100000000E-03 0.  1.
         12    1    3    3    0    0  0.57374655994E+01  0.29971604438E+02  0.17255062267E+02  0.35056422492E+02  0.00000000000E+00 0. -1.
</event>
<event>
 7    1  0.7357971E-011  0.4778728E+02  0.7816164E-02  0.1312668E+00
        -11   -1    0    0    0    0  0.00000000000E+00  0.00000000000E+00  0.45593999997E+02  0.45594000000E+02  0.51100000000E-03 0. -1.
         11   -1    0    0    0    0 -0.00000000000E+00 -0.00000000000E+00 -0.45593999997E+02  0.45594000000E+02  0.51100000000E-03 0.  1.
    9900012    2    1    2    0    0 -0.31274631030E+02 -0.17618734179E+01 -0.30040232205E+02  0.47787282322E+02  0.20000051419E+02 0.  0.
         12    1    1    2    0    0  0.31274631030E+02  0.17618734179E+01  0.30040232205E+02  0.43400717678E+02  0.00000000000E+00 0. -1.
         11    1    3    3    0    0 -0.67551826967E+00  0.47515721616E+01 -0.52259428272E+01  0.70953676179E+01  0.51100000000E-03 0. -1.
        -11    1    3    3    0    0 -0.22064600960E+02 -0.81135397014E+01 -0.19184110021E+02  0.30343141227E+02  0.51100000000E-03 0.  1.
        -12    1    3    3    0    0 -0.85345118009E+01  0.16000941219E+01 -0.56301793573E+01  0.10348773477E+02  0.00000000000E+00 0.  1.
</event>
<event>
 7    1  0.7357971E-011  0.4778729E+02  0.7816164E-02  0.1312668E+00
        -11   -1    0    0    0    0  0.00000000000E+00  0.00000000000E+00  0.45593999997E+02  0.45594000000E+02  0.51100000000E-03 0. -1.
         11   -1    0    0    0    0 -0.00000000000E+00 -0.00000000000E+00 -0.45593999997E+02  0.45594000000E+02  0.51100000000E-03 0.  1.
    9900012    2    1    2    0    0  0.13037065003E+00 -0.19500427302E+02 -0.38772901837E+02  0.47787290578E+02  0.20000089060E+02 0.  0.
         12    1    1    2    0    0 -0.13037065003E+00  0.19500427302E+02  0.38772901837E+02  0.43400709422E+02  0.00000000000E+00 0. -1.
         11    1    3    3    0    0 -0.75886874176E+01 -0.13930936489E+02 -0.26377943980E+02  0.30780758552E+02  0.51100000000E-03 0. -1.
        -11    1    3    3    0    0 -0.84863650888E-01 -0.25064569460E+00 -0.50122187776E+01  0.50191993823E+01  0.51100000000E-03 0.  1.
         12    1    3    3    0    0  0.78039217185E+01 -0.53188451182E+01 -0.73827390797E+01  0.11987332643E+02  0.00000000000E+00 0. -1.
</event>
<event>
 7    1  0.7357971E-011  0.4778727E+02  0.7816164E-02  0.1312668E+00
        -11   -1    0    0    0    0  0.00000000000E+00  0.00000000000E+00  0.45593999997E+02  0.45594000000E+02  0.51100000000E-03 0. -1.
         11   -1    0    0    0    0 -0.00000000000E+00 -0.00000000000E+00 -0.45593999997E+02  0.45594000000E+02  0.51100000000E-03 0.  1.
    9900012    2    1    2    0    0 -0.24470678013E+02 -0.10296643460E+02  0.34333482608E+02  0.47787274465E+02  0.20000015595E+02 0.  0.
        -12    1    1    2    0    0  0.24470678013E+02  0.10296643460E+02 -0.34333482608E+02  0.43400725535E+02  0.00000000000E+00 0.  1.
         11    1    3    3    0    0 -0.27698117732E+01 -0.34137530308E+01  0.32130801005E+01  0.54451309449E+01  0.51100000000E-03 0. -1.
        -11    1    3    3    0    0 -0.55373064119E+01 -0.88845099724E+01  0.51005783326E+01  0.11645264245E+02  0.51100000000E-03 0.  1.
        -12    1    3    3    0    0 -0.16163559828E+02  0.20016195436E+01  0.26019824175E+02  0.30696879275E+02  0.00000000000E+00 0.  1.
</event>
<event>
 7    1  0.7357971E-011  0.4778727E+02  0.7816164E-02  0.1312668E+00
        -11   -1    0    0    0    0  0.00000000000E+00  0.00000000000E+00  0.45593999997E+02  0.45594000000E+02  0.51100000000E-03 0. -1.
         11   -1    0    0    0    0 -0.00000000000E+00 -0.00000000000E+00 -0.45593999997E+02  0.45594000000E+02  0.51100000000E-03 0.  1.
    9900012    2    1    2    0    0  0.20099373389E+02 -0.40657066765E+01  0.38250602103E+02  0.47787270253E+02  0.19999996389E+02 0.  0.
        -12    1    1    2    0    0 -0.20099373389E+02  0.40657066765E+01 -0.38250602103E+02  0.43400729747E+02  0.00000000000E+00 0.  1.
         11    1    3    3    0    0  0.94590247464E+01 -0.90649406636E+01  0.14111843690E+02  0.19255919375E+02  0.51100000000E-03 0. -1.
        -11    1    3    3    0    0  0.72079669807E+01  0.13498040823E+01  0.21803863670E+02  0.23004026393E+02  0.51100000000E-03 0.  1.
         12    1    3    3    0    0  0.34323816618E+01  0.36494299049E+01  0.23348947422E+01  0.55273244848E+01  0.00000000000E+00 0. -1.
</event>
<event>
 7    1  0.7357971E-011  0.4778727E+02  0.7816164E-02  0.1312668E+00
        -11   -1    0    0    0    0  0.00000000000E+00  0.00000000000E+00  0.45593999997E+02  0.45594000000E+02  0.51100000000E-03 0. -1.
         11   -1    0    0    0    0 -0.00000000000E+00 -0.00000000000E+00 -0.45593999997E+02  0.45594000000E+02  0.51100000000E-03 0.  1.
    9900012    2    1    2    0    0  0.25787457701E+01 -0.39845936700E+02 -0.17008074945E+02  0.47787271727E+02  0.20000003113E+02 0.  0.
         12    1    1    2    0    0 -0.25787457701E+01  0.39845936700E+02  0.17008074945E+02  0.43400728273E+02  0.00000000000E+00 0. -1.
         11    1    3    3    0    0 -0.54687372482E+01 -0.20982405041E+02 -0.16230516201E+02  0.27085015503E+02  0.51100000000E-03 0. -1.
        -11    1    3    3    0    0  0.79256249374E+01 -0.17807320032E+02 -0.20036358103E+00  0.19492468371E+02  0.51100000000E-03 0.  1.
        -12    1    3    3    0    0  0.12185808091E+00 -0.10562116269E+01 -0.57719516340E+00  0.12097878530E+01  0.00000000000E+00 0.  1.
</event>
<event>
 7    1  0.7357971E-011  0.4778727E+02  0.7816164E-02  0.1312668E+00
        -11   -1    0    0    0    0  0.00000000000E+00  0.00000000000E+00  0.45593999997E+02  0.45594000000E+02  0.51100000000E-03 0. -1.
         11   -1    0    0    0    0 -0.00000000000E+00 -0.00000000000E+00 -0.45593999997E+02  0.45594000000E+02  0.51100000000E-03 0.  1.
    9900012    2    1    2    0    0  0.20002708998E+02  0.32147196850E+01  0.38382035087E+02  0.47787269507E+02  0.19999992990E+02 0.  0.
        -12    1    1    2    0    0 -0.20002708998E+02 -0.32147196850E+01 -0.38382035087E+02  0.43400730493E+02  0.00000000000E+00 0.  1.
         11    1    3    3    0    0  0.41352917433E+01 -0.39001312798E+01  0.16305049577E+02  0.17267492690E+02  0.51100000000E-03 0. -1.
        -11    1    3    3    0    0  0.12500286272E+02  0.31161276555E+01  0.72158810104E+01  0.14766053890E+02  0.51100000000E-03 0.  1.
        -12    1    3    3    0    0  0.33671309830E+01  0.39987233093E+01  0.14861104499E+02  0.15753722928E+02  0.00000000000E+00 0.  1.
</event>
<event>
 7    1  0.7357971E-011  0.4778727E+02  0.7816164E-02  0.1312668E+00
        -11   -1    0    0    0    0  0.00000000000E+00  0.00000000000E+00  0.45593999997E+02  0.45594000000E+02  0.51100000000E-03 0. -1.
         11   -1    0    0    0    0 -0.00000000000E+00 -0.00000000000E+00 -0.45593999997E+02  0.45594000000E+02  0.51100000000E-03 0.  1.
    9900012    2    1    2    0    0 -0.24379416821E+02 -0.35453530057E+01  0.35730906083E+02  0.47787272564E+02  0.20000006930E+02 0.  0.
        -12    1    1    2    0    0  0.24379416821E+02  0.35453530057E+01 -0.35730906083E+02  0.43400727436E+02  0.00000000000E+00 0.  1.
         11    1    3    3    0    0 -0.53862462798E+01 -0.83725811736E+01  0.10120925400E+02  0.14196650862E+02  0.51100000000E-03 0. -1.
        -11    1    3    3    0    0 -0.17108255555E+02  0.68911042756E+01  0.19334528014E+02  0.26720847668E+02  0.51100000000E-03 0.  1.
        -12    1    3    3    0    0 -0.18849149859E+01 -0.20638761077E+01  0.62754526684E+01  0.68697740346E+01  0.00000000000E+00 0.  1.
</event>
<event>
 7    1  0.7357971E-011  0.4778727E+02  0.7816164E-02  0.1312668E+00
        -11   -1    0    0    0    0  0.00000000000E+00  0.00000000000E+00  0.45593999997E+02  0.45594000000E+02  0.51100000000E-03 0. -1.
         11   -1    0    0    0    0 -0.00000000000E+00 -0.00000000000E+00 -0.45593999997E+02  0.45594000000E+02  0.51100000000E-03 0.  1.
    9900012    2    1    2    0    0 -0.16021521145E+00 -0.10058433620E+02 -0.42218785908E+02  0.47787266834E+02  0.19999980805E+02 0.  0.
         12    1    1    2    0    0  0.16021521145E+00  0.10058433620E+02  0.42218785908E+02  0.43400733166E+02  0.00000000000E+00 0. -1.
         11    1    3    3    0    0  0.14252450798E+01 -0.67232655677E+01 -0.89824540365E+01  0.11310088603E+02  0.51100000000E-03 0. -1.
        -11    1    3    3    0    0 -0.15121046266E+01 -0.87132407617E+01 -0.14499060476E+02  0.16983220540E+02  0.51100000000E-03 0.  1.
        -12    1    3    3    0    0 -0.73355664644E-01  0.53780727093E+01 -0.18737271395E+02  0.19493957691E+02  0.00000000000E+00 0.  1.
</event>
<event>
 7    1  0.7357971E-011  0.4778727E+02  0.7816164E-02  0.1312668E+00
        -11   -1    0    0    0    0  0.00000000000E+00  0.00000000000E+00  0.45593999997E+02  0.45594000000E+02  0.51100000000E-03 0. -1.
         11   -1    0    0    0    0 -0.00000000000E+00 -0.00000000000E+00 -0.45593999997E+02  0.45594000000E+02  0.51100000000E-03 0.  1.
    9900012    2    1    2    0    0 -0.16891262621E+02 -0.36394114243E+02  0.16546209292E+02  0.47787270209E+02  0.19999996190E+02 0.  0.
        -12    1    1    2    0    0  0.16891262621E+02  0.36394114243E+02 -0.16546209292E+02  0.43400729791E+02  0.00000000000E+00 0.  1.
         11    1    3    3    0    0  0.14587429921E+01 -0.11615124840E+02  0.85915258558E+01  0.14520791059E+02  0.51100000000E-03 0. -1.
        -11    1    3    3    0    0 -0.24809020574E+01 -0.21360445656E-01  0.21697426354E+01  0.32959239451E+01  0.51100000000E-03 0.  1.
         12    1    3    3    0    0 -0.15869103556E+02 -0.24757628957E+02  0.57849408007E+01  0.29970555205E+02  0.00000000000E+00 0. -1.
</event>
<event>
 7    1  0.7357971E-011  0.4778727E+02  0.7816164E-02  0.1312668E+00
        -11   -1    0    0    0    0  0.00000000000E+00  0.00000000000E+00  0.45593999997E+02  0.45594000000E+02  0.51100000000E-03 0. -1.
         11   -1    0    0    0    0 -0.00000000000E+00 -0.00000000000E+00 -0.45593999997E+02  0.45594000000E+02  0.51100000000E-03 0.  1.
    9900012    2    1    2    0    0  0.31349602188E+02 -0.18762816734E+01  0.29955052236E+02  0.47787272532E+02  0.20000006782E+02 0.  0.
        -12    1    1    2    0    0 -0.31349602188E+02  0.18762816734E+01 -0.29955052236E+02  0.43400727468E+02  0.00000000000E+00 0.  1.
         11    1    3    3    0    0  0.11222364922E+01  0.46575629407E+01  0.20960390006E+01  0.52293103794E+01  0.51100000000E-03 0. -1.
        -11    1    3    3    0    0  0.36627074293E+00  0.82595753475E+00  0.26244269972E+01  0.27756039759E+01  0.51100000000E-03 0.  1.
         12    1    3    3    0    0  0.29861094953E+02 -0.73598021488E+01  0.25234586239E+02  0.39782358177E+02  0.00000000000E+00 0. -1.
</event>
<event>
 7    1  0.7357971E-011  0.4778727E+02  0.7816164E-02  0.1312668E+00
        -11   -1    0    0    0    0  0.00000000000E+00  0.00000000000E+00  0.45593999997E+02  0.45594000000E+02  0.51100000000E-03 0.  1.
         11   -1    0    0    0    0 -0.00000000000E+00 -0.00000000000E+00 -0.45593999997E+02  0.45594000000E+02  0.51100000000E-03 0. -1.
    9900012    2    1    2    0    0  0.38123569736E+02  0.86892441996E+01  0.18833847832E+02  0.47787270071E+02  0.19999995562E+02 0.  0.
        -12    1    1    2    0    0 -0.38123569736E+02 -0.86892441996E+01 -0.18833847832E+02  0.43400729929E+02  0.00000000000E+00 0.  1.
         11    1    3    3    0    0  0.22865542541E+02  0.19255163591E+01  0.37734125426E+01  0.23254661714E+02  0.51100000000E-03 0. -1.
        -11    1    3    3    0    0  0.16117811168E+02  0.78724358424E+01  0.14276158524E+02  0.22925265220E+02  0.51100000000E-03 0.  1.
         12    1    3    3    0    0 -0.85978397346E+00 -0.11087080019E+01  0.78427676582E+00  0.16073431370E+01  0.00000000000E+00 0. -1.
</event>
<event>
 7    1  0.7357971E-011  0.4778727E+02  0.7816164E-02  0.1312668E+00
        -11   -1    0    0    0    0  0.00000000000E+00  0.00000000000E+00  0.45593999997E+02  0.45594000000E+02  0.51100000000E-03 0. -1.
         11   -1    0    0    0    0 -0.00000000000E+00 -0.00000000000E+00 -0.45593999997E+02  0.45594000000E+02  0.51100000000E-03 0.  1.
    9900012    2    1    2    0    0 -0.17788150634E+02 -0.15811532955E+02 -0.36293251233E+02  0.47787274633E+02  0.20000016360E+02 0.  0.
         12    1    1    2    0    0  0.17788150634E+02  0.15811532955E+02  0.36293251233E+02  0.43400725367E+02  0.00000000000E+00 0. -1.
         11    1    3    3    0    0 -0.65379674998E+01 -0.16730803472E+01 -0.73745679226E+00  0.67888187234E+01  0.51100000000E-03 0. -1.
        -11    1    3    3    0    0 -0.95208830675E+01 -0.43492438769E+01 -0.18652176605E+02  0.21388474210E+02  0.51100000000E-03 0.  1.
         12    1    3    3    0    0 -0.17293000666E+01 -0.97892087309E+01 -0.16903617836E+02  0.19609981699E+02  0.00000000000E+00 0. -1.
</event>
<event>
 7    1  0.7357971E-011  0.4778727E+02  0.7816164E-02  0.1312668E+00
        -11   -1    0    0    0    0  0.00000000000E+00  0.00000000000E+00  0.45593999997E+02  0.45594000000E+02  0.51100000000E-03 0. -1.
         11   -1    0    0    0    0 -0.00000000000E+00 -0.00000000000E+00 -0.45593999997E+02  0.45594000000E+02  0.51100000000E-03 0.  1.
    9900012    2    1    2    0    0 -0.15227188240E+01  0.15673731191E+01 -0.43345679775E+02  0.47787270901E+02  0.19999999347E+02 0.  0.
         12    1    1    2    0    0  0.15227188240E+01 -0.15673731191E+01  0.43345679775E+02  0.43400729099E+02  0.00000000000E+00 0. -1.
         11    1    3    3    0    0 -0.50277649208E+01 -0.45775525289E+01 -0.17513885722E+02  0.18787458598E+02  0.51100000000E-03 0. -1.
        -11    1    3    3    0    0  0.74965607528E+01  0.33560337880E+01 -0.17867685662E+02  0.19665085229E+02  0.51100000000E-03 0.  1.
        -12    1    3    3    0    0 -0.39915146560E+01  0.27888918600E+01 -0.79641083921E+01  0.93347270736E+01  0.00000000000E+00 0.  1.
</event>
<event>
 7    1  0.7357971E-011  0.4778727E+02  0.7816164E-02  0.1312668E+00
        -11   -1    0    0    0    0  0.00000000000E+00  0.00000000000E+00  0.45593999997E+02  0.45594000000E+02  0.51100000000E-03 0. -1.
         11   -1    0    0    0    0 -0.00000000000E+00 -0.00000000000E+00 -0.45593999997E+02  0.45594000000E+02  0.51100000000E-03 0.  1.
    9900012    2    1    2    0    0 -0.56660214817E+01  0.74743521391E+01 -0.42375151643E+02  0.47787271710E+02  0.20000003037E+02 0.  0.
         12    1    1    2    0    0  0.56660214817E+01 -0.74743521391E+01  0.42375151643E+02  0.43400728290E+02  0.00000000000E+00 0. -1.
         11    1    3    3    0    0 -0.47747426587E+01  0.10390806023E+02 -0.12146776567E+02  0.16682661613E+02  0.51100000000E-03 0. -1.
        -11    1    3    3    0    0  0.89165773099E+00 -0.34454662556E+01 -0.27893294934E+02  0.28119427337E+02  0.51100000000E-03 0.  1.
        -12    1    3    3    0    0 -0.17829365541E+01  0.52901237180E+00 -0.23350801415E+01  0.29851827604E+01  0.00000000000E+00 0.  1.
</event>
<event>
 7    1  0.7357971E-011  0.4778727E+02  0.7816164E-02  0.1312668E+00
        -11   -1    0    0    0    0  0.00000000000E+00  0.00000000000E+00  0.45593999997E+02  0.45594000000E+02  0.51100000000E-03 0. -1.
         11   -1    0    0    0    0 -0.00000000000E+00 -0.00000000000E+00 -0.45593999997E+02  0.45594000000E+02  0.51100000000E-03 0.  1.
    9900012    2    1    2    0    0  0.25406429846E+02 -0.13745787177E+02  0.32391200928E+02  0.47787271432E+02  0.20000001768E+02 0.  0.
        -12    1    1    2    0    0 -0.25406429846E+02  0.13745787177E+02 -0.32391200928E+02  0.43400728568E+02  0.00000000000E+00 0.  1.
         11    1    3    3    0    0  0.61186091754E+01 -0.28532198541E+01  0.11271802991E+02  0.13138941537E+02  0.51100000000E-03 0. -1.
        -11    1    3    3    0    0 -0.18192053129E+01 -0.36283764350E+01  0.74203089400E+01  0.84578725783E+01  0.51100000000E-03 0.  1.
        -12    1    3    3    0    0  0.21107025983E+02 -0.72641908878E+01  0.13699088997E+02  0.26190457317E+02  0.00000000000E+00 0.  1.
</event>
<event>
 7    1  0.7776372E-011  0.4778727E+02  0.7816164E-02  0.1312668E+00
        -11   -1    0    0    0    0  0.00000000000E+00  0.00000000000E+00  0.45593999997E+02  0.45594000000E+02  0.51100000000E-03 0. -1.
         11   -1    0    0    0    0 -0.00000000000E+00 -0.00000000000E+00 -0.45593999997E+02  0.45594000000E+02  0.51100000000E-03 0.  1.
    9900012    2    1    2    0    0  0.12218906945E+02 -0.36069474018E+02 -0.20816214240E+02  0.47787269382E+02  0.19999992422E+02 0.  0.
         12    1    1    2    0    0 -0.12218906945E+02  0.36069474018E+02  0.20816214240E+02  0.43400730618E+02  0.00000000000E+00 0. -1.
         11    1    3    3    0    0  0.12723658660E+01  0.46150168603E+00 -0.61070169426E+00  0.14848755919E+01  0.51100000000E-03 0. -1.
        -11    1    3    3    0    0 -0.36240194917E+01 -0.93452170164E+01 -0.90451729721E+01  0.13501175975E+02  0.51100000000E-03 0.  1.
        -12    1    3    3    0    0  0.14570560570E+02 -0.27185758687E+02 -0.11160339574E+02  0.32801217815E+02  0.00000000000E+00 0.  1.
</event>
<event>
 7    1  0.7357971E-011  0.4778727E+02  0.7816164E-02  0.1312668E+00
        -11   -1    0    0    0    0  0.00000000000E+00  0.00000000000E+00  0.45593999997E+02  0.45594000000E+02  0.51100000000E-03 0. -1.
         11   -1    0    0    0    0 -0.00000000000E+00 -0.00000000000E+00 -0.45593999997E+02  0.45594000000E+02  0.51100000000E-03 0.  1.
    9900012    2    1    2    0    0 -0.32369960077E+02 -0.27571168247E+01 -0.28778588836E+02  0.47787272080E+02  0.20000004723E+02 0.  0.
         12    1    1    2    0    0  0.32369960077E+02  0.27571168247E+01  0.28778588836E+02  0.43400727920E+02  0.00000000000E+00 0. -1.
         11    1    3    3    0    0 -0.18970772464E+01  0.15697876249E+01  0.78057584071E+00  0.25831055283E+01  0.51100000000E-03 0. -1.
        -11    1    3    3    0    0 -0.10904030656E+02 -0.61924114208E+01 -0.44289028074E+01  0.13298835441E+02  0.51100000000E-03 0.  1.
        -12    1    3    3    0    0 -0.19568852175E+02  0.18655069712E+01 -0.25130261869E+02  0.31905331111E+02  0.00000000000E+00 0.  1.
</event>
<event>
 7    1  0.7357971E-011  0.4778727E+02  0.7816164E-02  0.1312668E+00
        -11   -1    0    0    0    0  0.00000000000E+00  0.00000000000E+00  0.45593999997E+02  0.45594000000E+02  0.51100000000E-03 0. -1.
         11   -1    0    0    0    0 -0.00000000000E+00 -0.00000000000E+00 -0.45593999997E+02  0.45594000000E+02  0.51100000000E-03 0.  1.
    9900012    2    1    2    0    0  0.13506593628E+01 -0.10619750184E+02  0.42059716008E+02  0.47787273216E+02  0.20000009901E+02 0.  0.
        -12    1    1    2    0    0 -0.13506593628E+01  0.10619750184E+02 -0.42059716008E+02  0.43400726784E+02  0.00000000000E+00 0.  1.
         11    1    3    3    0    0  0.64014933523E+00  0.39265310250E+01  0.19709169239E+02  0.20106685193E+02  0.51100000000E-03 0. -1.
        -11    1    3    3    0    0  0.14076293045E+01 -0.15011037742E+02  0.22190183615E+02  0.26827540391E+02  0.51100000000E-03 0.  1.
        -12    1    3    3    0    0 -0.69711927686E+00  0.46475653290E+00  0.16036315423E+00  0.85304763189E+00  0.00000000000E+00 0.  1.
</event>
<event>
 7    1  0.7357971E-011  0.4778727E+02  0.7816164E-02  0.1312668E+00
        -11   -1    0    0    0    0  0.00000000000E+00  0.00000000000E+00  0.45593999997E+02  0.45594000000E+02  0.51100000000E-03 0.  1.
         11   -1    0    0    0    0 -0.00000000000E+00 -0.00000000000E+00 -0.45593999997E+02  0.45594000000E+02  0.51100000000E-03 0. -1.
    9900012    2    1    2    0    0  0.36755732792E+02 -0.20175286955E+02 -0.11207005000E+02  0.47787273533E+02  0.20000011348E+02 0.  0.
         12    1    1    2    0    0 -0.36755732792E+02  0.20175286955E+02  0.11207005000E+02  0.43400726467E+02  0.00000000000E+00 0. -1.
         11    1    3    3    0    0  0.30425728904E+02 -0.17508719633E+02 -0.11903908691E+02  0.37067280517E+02  0.51100000000E-03 0.  1.
        -11    1    3    3    0    0 -0.28223711231E+00 -0.37187217735E+01  0.14092106723E+01  0.39867812075E+01  0.51100000000E-03 0. -1.
        -12    1    3    3    0    0  0.66122410000E+01  0.10521544517E+01 -0.71230698159E+00  0.67332118093E+01  0.00000000000E+00 0.  1.
</event>
<event>
 7    1  0.7357971E-011  0.4778729E+02  0.7816164E-02  0.1312668E+00
        -11   -1    0    0    0    0  0.00000000000E+00  0.00000000000E+00  0.45593999997E+02  0.45594000000E+02  0.51100000000E-03 0. -1.
         11   -1    0    0    0    0 -0.00000000000E+00 -0.00000000000E+00 -0.45593999997E+02  0.45594000000E+02  0.51100000000E-03 0.  1.
    9900012    2    1    2    0    0 -0.15748454539E+02  0.22533869114E+02 -0.33583212032E+02  0.47787294845E+02  0.20000108515E+02 0.  0.
         12    1    1    2    0    0  0.15748454539E+02 -0.22533869114E+02  0.33583212032E+02  0.43400705155E+02  0.00000000000E+00 0. -1.
         11    1    3    3    0    0 -0.12975942076E+02  0.10190845849E+02 -0.13488890272E+02  0.21311465761E+02  0.51100000000E-03 0. -1.
        -11    1    3    3    0    0  0.50053287923E+00  0.13682964843E+02 -0.15592321845E+02  0.20750772536E+02  0.51100000000E-03 0.  1.
         12    1    3    3    0    0 -0.32730453417E+01 -0.13399415775E+01 -0.45019999147E+01  0.57250565475E+01  0.00000000000E+00 0. -1.
</event>
<event>
 7    1  0.7357971E-011  0.4778727E+02  0.7816164E-02  0.1312668E+00
        -11   -1    0    0    0    0  0.00000000000E+00  0.00000000000E+00  0.45593999997E+02  0.45594000000E+02  0.51100000000E-03 0. -1.
         11   -1    0    0    0    0 -0.00000000000E+00 -0.00000000000E+00 -0.45593999997E+02  0.45594000000E+02  0.51100000000E-03 0.  1.
    9900012    2    1    2    0    0  0.48799086562E+01  0.15455638496E+02  0.40260816340E+02  0.47787267262E+02  0.19999982756E+02 0.  0.
        -12    1    1    2    0    0 -0.48799086562E+01 -0.15455638496E+02 -0.40260816340E+02  0.43400732738E+02  0.00000000000E+00 0.  1.
         11    1    3    3    0    0 -0.62040978758E+00  0.17715527999E+01  0.19722376414E+02  0.19811497655E+02  0.51100000000E-03 0. -1.
        -11    1    3    3    0    0 -0.16964003538E+01  0.66790257257E+01  0.25011095298E+01  0.73309418185E+01  0.51100000000E-03 0.  1.
        -12    1    3    3    0    0  0.71967187976E+01  0.70050599702E+01  0.18037330396E+02  0.20644827789E+02  0.00000000000E+00 0.  1.
</event>
<event>
 7    1  0.7357971E-011  0.4778727E+02  0.7816164E-02  0.1312668E+00
        -11   -1    0    0    0    0  0.00000000000E+00  0.00000000000E+00  0.45593999997E+02  0.45594000000E+02  0.51100000000E-03 0.  1.
         11   -1    0    0    0    0 -0.00000000000E+00 -0.00000000000E+00 -0.45593999997E+02  0.45594000000E+02  0.51100000000E-03 0. -1.
    9900012    2    1    2    0    0  0.18015840115E+02 -0.39438411766E+02  0.19142873619E+01  0.47787270585E+02  0.19999997905E+02 0.  0.
         12    1    1    2    0    0 -0.18015840115E+02  0.39438411766E+02 -0.19142873619E+01  0.43400729415E+02  0.00000000000E+00 0. -1.
         11    1    3    3    0    0  0.16768187630E+02 -0.29003190733E+02 -0.21447447704E+00  0.33502286320E+02  0.51100000000E-03 0. -1.
        -11    1    3    3    0    0  0.44465726408E+01 -0.92913284037E+01  0.30905483181E+01  0.10754175046E+02  0.51100000000E-03 0.  1.
         12    1    3    3    0    0 -0.31989201556E+01 -0.11438926287E+01 -0.96178647916E+00  0.35308092187E+01  0.00000000000E+00 0. -1.
</event>
<event>
 7    1  0.7357971E-011  0.4778722E+02  0.7816164E-02  0.1312668E+00
        -11   -1    0    0    0    0  0.00000000000E+00  0.00000000000E+00  0.45593999997E+02  0.45594000000E+02  0.51100000000E-03 0. -1.
         11   -1    0    0    0    0 -0.00000000000E+00 -0.00000000000E+00 -0.45593999997E+02  0.45594000000E+02  0.51100000000E-03 0.  1.
    9900012    2    1    2    0    0 -0.25519626586E+02 -0.29440140389E+02  0.19122083462E+02  0.47787224855E+02  0.19999789405E+02 0.  0.
        -12    1    1    2    0    0  0.25519626586E+02  0.29440140389E+02 -0.19122083462E+02  0.43400775145E+02  0.00000000000E+00 0.  1.
         11    1    3    3    0    0 -0.93805661207E+01 -0.41886275840E+01  0.32111656942E+01  0.10763419864E+02  0.51100000000E-03 0. -1.
        -11    1    3    3    0    0 -0.10846746820E+02 -0.19413979196E+02  0.18289263826E+02  0.28793257481E+02  0.51100000000E-03 0.  1.
        -12    1    3    3    0    0 -0.52923136451E+01 -0.58375336088E+01 -0.23783460584E+01  0.82305475107E+01  0.00000000000E+00 0.  1.
</event>
<event>
 7    1  0.7357971E-011  0.4778727E+02  0.7816164E-02  0.1312668E+00
        -11   -1    0    0    0    0  0.00000000000E+00  0.00000000000E+00  0.45593999997E+02  0.45594000000E+02  0.51100000000E-03 0. -1.
         11   -1    0    0    0    0 -0.00000000000E+00 -0.00000000000E+00 -0.45593999997E+02  0.45594000000E+02  0.51100000000E-03 0.  1.
    9900012    2    1    2    0    0 -0.28034932937E+02 -0.11090746302E+02 -0.31219566580E+02  0.47787268949E+02  0.19999990446E+02 0.  0.
         12    1    1    2    0    0  0.28034932937E+02  0.11090746302E+02  0.31219566580E+02  0.43400731051E+02  0.00000000000E+00 0. -1.
         11    1    3    3    0    0 -0.85110337974E+01 -0.71519005979E+01 -0.35195730641E+01  0.11660822153E+02  0.51100000000E-03 0. -1.
        -11    1    3    3    0    0 -0.82678797227E+01  0.53382476308E+00 -0.20317463360E+02  0.21941789390E+02  0.51100000000E-03 0.  1.
         12    1    3    3    0    0 -0.11256019417E+02 -0.44726704674E+01 -0.73825301553E+01  0.14184657406E+02  0.00000000000E+00 0. -1.
</event>
<event>
 7    1  0.7357971E-011  0.4778727E+02  0.7816164E-02  0.1312668E+00
        -11   -1    0    0    0    0  0.00000000000E+00  0.00000000000E+00  0.45593999997E+02  0.45594000000E+02  0.51100000000E-03 0. -1.
         11   -1    0    0    0    0 -0.00000000000E+00 -0.00000000000E+00 -0.45593999997E+02  0.45594000000E+02  0.51100000000E-03 0.  1.
    9900012    2    1    2    0    0 -0.29659317133E+02 -0.98320480069E+01 -0.30121066994E+02  0.47787274918E+02  0.20000017660E+02 0.  0.
         12    1    1    2    0    0  0.29659317133E+02  0.98320480069E+01  0.30121066994E+02  0.43400725082E+02  0.00000000000E+00 0. -1.
         11    1    3    3    0    0 -0.11011811801E+02 -0.19578374088E+01 -0.17708483728E+00  0.11185905674E+02  0.51100000000E-03 0. -1.
        -11    1    3    3    0    0 -0.25566868788E+01 -0.34990007821E+01 -0.53028594788E+01  0.68483555094E+01  0.51100000000E-03 0.  1.
         12    1    3    3    0    0 -0.16090818453E+02 -0.43752098160E+01 -0.24641122678E+02  0.29753013734E+02  0.00000000000E+00 0. -1.
</event>
<event>
 7    1  0.1169928E-010  0.4778727E+02  0.7816164E-02  0.1312668E+00
        -11   -1    0    0    0    0  0.00000000000E+00  0.00000000000E+00  0.45593999997E+02  0.45594000000E+02  0.51100000000E-03 0. -1.
         11   -1    0    0    0    0 -0.00000000000E+00 -0.00000000000E+00 -0.45593999997E+02  0.45594000000E+02  0.51100000000E-03 0.  1.
    9900012    2    1    2    0    0 -0.83842987863E+01 -0.21867638526E+01  0.42526986044E+02  0.47787274842E+02  0.20000017314E+02 0.  0.
        -12    1    1    2    0    0  0.83842987863E+01  0.21867638526E+01 -0.42526986044E+02  0.43400725158E+02  0.00000000000E+00 0.  1.
         11    1    3    3    0    0 -0.50197565446E+01  0.45364763917E+00  0.34237552629E+02  0.34606556637E+02  0.51100000000E-03 0. -1.
        -11    1    3    3    0    0  0.23637284413E+01  0.15836337441E+01  0.10613244426E+01  0.30366952125E+01  0.51100000000E-03 0.  1.
         12    1    3    3    0    0 -0.57282706829E+01 -0.42240452359E+01  0.72281089718E+01  0.10144022993E+02  0.00000000000E+00 0. -1.
</event>
<event>
 7    1  0.7357971E-011  0.4778727E+02  0.7816164E-02  0.1312668E+00
        -11   -1    0    0    0    0  0.00000000000E+00  0.00000000000E+00  0.45593999997E+02  0.45594000000E+02  0.51100000000E-03 0. -1.
         11   -1    0    0    0    0 -0.00000000000E+00 -0.00000000000E+00 -0.45593999997E+02  0.45594000000E+02  0.51100000000E-03 0.  1.
    9900012    2    1    2    0    0 -0.40626133185E+02  0.31878634364E+01  0.14932448998E+02  0.47787271850E+02  0.20000003675E+02 0.  0.
        -12    1    1    2    0    0  0.40626133185E+02 -0.31878634364E+01 -0.14932448998E+02  0.43400728150E+02  0.00000000000E+00 0.  1.
         11    1    3    3    0    0 -0.31668468474E+02  0.26178152716E+01  0.94974677518E+01  0.33165445063E+02  0.51100000000E-03 0. -1.
        -11    1    3    3    0    0 -0.51207342000E+01 -0.19090761620E+01 -0.20633452250E+01  0.58415652284E+01  0.51100000000E-03 0.  1.
         12    1    3    3    0    0 -0.38369305107E+01  0.24791243267E+01  0.74983264709E+01  0.87802615585E+01  0.00000000000E+00 0. -1.
</event>
<event>
 7    1  0.7357971E-011  0.4778727E+02  0.7816164E-02  0.1312668E+00
        -11   -1    0    0    0    0  0.00000000000E+00  0.00000000000E+00  0.45593999997E+02  0.45594000000E+02  0.51100000000E-03 0. -1.
         11   -1    0    0    0    0 -0.00000000000E+00 -0.00000000000E+00 -0.45593999997E+02  0.45594000000E+02  0.51100000000E-03 0.  1.
    9900012    2    1    2    0    0 -0.25809861247E+02 -0.26457432856E+02  0.22748165615E+02  0.47787265793E+02  0.19999976055E+02 0.  0.
        -12    1    1    2    0    0  0.25809861247E+02  0.26457432856E+02 -0.22748165615E+02  0.43400734207E+02  0.00000000000E+00 0.  1.
         11    1    3    3    0    0 -0.14632279359E+02 -0.16592669690E+02  0.20275522902E+02  0.30008617361E+02  0.51100000000E-03 0. -1.
        -11    1    3    3    0    0 -0.97513248427E+01 -0.11575530347E+02  0.11290994715E+01  0.15177486778E+02  0.51100000000E-03 0.  1.
         12    1    3    3    0    0 -0.14262570451E+01  0.17107671822E+01  0.13435432412E+01  0.26011616542E+01  0.00000000000E+00 0. -1.
</event>
<event>
 7    1  0.7357971E-011  0.4778727E+02  0.7816164E-02  0.1312668E+00
        -11   -1    0    0    0    0  0.00000000000E+00  0.00000000000E+00  0.45593999997E+02  0.45594000000E+02  0.51100000000E-03 0. -1.
         11   -1    0    0    0    0 -0.00000000000E+00 -0.00000000000E+00 -0.45593999997E+02  0.45594000000E+02  0.51100000000E-03 0.  1.
    9900012    2    1    2    0    0  0.38138346819E+01 -0.30099991562E+02 -0.31033348253E+02  0.47787268084E+02  0.19999986503E+02 0.  0.
         12    1    1    2    0    0 -0.38138346819E+01  0.30099991562E+02  0.31033348253E+02  0.43400731916E+02  0.00000000000E+00 0. -1.
         11    1    3    3    0    0  0.10971745019E+02 -0.23981857893E+02 -0.19457614679E+02  0.32773578780E+02  0.51100000000E-03 0. -1.
        -11    1    3    3    0    0 -0.52313090491E+01 -0.50824183395E+01 -0.96725067599E+01  0.12114246069E+02  0.51100000000E-03 0.  1.
         12    1    3    3    0    0 -0.19266012883E+01 -0.10357153293E+01 -0.19032268142E+01  0.28994432351E+01  0.00000000000E+00 0. -1.
</event>
<event>
 7    1  0.7357971E-011  0.4778727E+02  0.7816164E-02  0.1312668E+00
        -11   -1    0    0    0    0  0.00000000000E+00  0.00000000000E+00  0.45593999997E+02  0.45594000000E+02  0.51100000000E-03 0. -1.
         11   -1    0    0    0    0 -0.00000000000E+00 -0.00000000000E+00 -0.45593999997E+02  0.45594000000E+02  0.51100000000E-03 0.  1.
    9900012    2    1    2    0    0  0.41205589833E+02  0.99331837031E+01  0.93303030992E+01  0.47787270422E+02  0.19999997163E+02 0.  0.
        -12    1    1    2    0    0 -0.41205589833E+02 -0.99331837031E+01 -0.93303030992E+01  0.43400729578E+02  0.00000000000E+00 0.  1.
         11    1    3    3    0    0  0.22489203850E+02  0.53096424074E+01  0.24201476712E+01  0.23233891351E+02  0.51100000000E-03 0. -1.
        -11    1    3    3    0    0  0.14848017577E+00 -0.31675100525E+01  0.22408830160E+01  0.38828756415E+01  0.51100000000E-03 0.  1.
        -12    1    3    3    0    0  0.18567905807E+02  0.77910513481E+01  0.46692724120E+01  0.20670503430E+02  0.00000000000E+00 0.  1.
</event>
<event>
 7    1  0.7357971E-011  0.4778727E+02  0.7816164E-02  0.1312668E+00
        -11   -1    0    0    0    0  0.00000000000E+00  0.00000000000E+00  0.45593999997E+02  0.45594000000E+02  0.51100000000E-03 0. -1.
         11   -1    0    0    0    0 -0.00000000000E+00 -0.00000000000E+00 -0.45593999997E+02  0.45594000000E+02  0.51100000000E-03 0.  1.
    9900012    2    1    2    0    0 -0.36060183437E+02 -0.34896666827E+01  0.23897883583E+02  0.47787269099E+02  0.19999991128E+02 0.  0.
        -12    1    1    2    0    0  0.36060183437E+02  0.34896666827E+01 -0.23897883583E+02  0.43400730901E+02  0.00000000000E+00 0.  1.
         11    1    3    3    0    0 -0.56703321509E+00  0.35222248669E+01  0.34996403502E+01  0.49975071308E+01  0.51100000000E-03 0. -1.
        -11    1    3    3    0    0 -0.26637181203E+02 -0.49626706946E+01  0.20024781658E+02  0.33692126730E+02  0.51100000000E-03 0.  1.
        -12    1    3    3    0    0 -0.88559690191E+01 -0.20492208550E+01  0.37346157419E+00  0.90976352382E+01  0.00000000000E+00 0.  1.
</event>
<event>
 7    1  0.7357971E-011  0.4778725E+02  0.7816164E-02  0.1312668E+00
        -11   -1    0    0    0    0  0.00000000000E+00  0.00000000000E+00  0.45593999997E+02  0.45594000000E+02  0.51100000000E-03 0. -1.
         11   -1    0    0    0    0 -0.00000000000E+00 -0.00000000000E+00 -0.45593999997E+02  0.45594000000E+02  0.51100000000E-03 0.  1.
    9900012    2    1    2    0    0  0.32314916323E+02 -0.14663814700E+02  0.24986867320E+02  0.47787253268E+02  0.19999918948E+02 0.  0.
        -12    1    1    2    0    0 -0.32314916323E+02  0.14663814700E+02 -0.24986867320E+02  0.43400746732E+02  0.00000000000E+00 0.  1.
         11    1    3    3    0    0  0.11009549377E+02  0.19905087702E+01  0.11898970317E+02  0.16332721681E+02  0.51100000000E-03 0. -1.
        -11    1    3    3    0    0  0.24504843899E+01 -0.63070668522E+01  0.11733523992E+01  0.68673664630E+01  0.51100000000E-03 0.  1.
         12    1    3    3    0    0  0.18854882556E+02 -0.10347256618E+02  0.11914544604E+02  0.24587165124E+02  0.00000000000E+00 0. -1.
</event>
<event>
 7    1  0.7357971E-011  0.4778727E+02  0.7816164E-02  0.1312668E+00
        -11   -1    0    0    0    0  0.00000000000E+00  0.00000000000E+00  0.45593999997E+02  0.45594000000E+02  0.51100000000E-03 0.  1.
         11   -1    0    0    0    0 -0.00000000000E+00 -0.00000000000E+00 -0.45593999997E+02  0.45594000000E+02  0.51100000000E-03 0. -1.
    9900012    2    1    2    0    0 -0.32416428666E+02 -0.26735034850E+02  0.10864440287E+02  0.47787274215E+02  0.20000014457E+02 0.  0.
         12    1    1    2    0    0  0.32416428666E+02  0.26735034850E+02 -0.10864440287E+02  0.43400725785E+02  0.00000000000E+00 0. -1.
         11    1    3    3    0    0 -0.12828593058E+02 -0.10686765594E+02 -0.15756517502E+00  0.16697442492E+02  0.51100000000E-03 0. -1.
        -11    1    3    3    0    0 -0.82989975913E+01 -0.15479647049E+02  0.48971369008E+01  0.18233891079E+02  0.51100000000E-03 0.  1.
        -12    1    3    3    0    0 -0.11288838016E+02 -0.56862220692E+00  0.61248685607E+01  0.12855940645E+02  0.00000000000E+00 0.  1.
</event>
<event>
 7    1  0.7357971E-011  0.4778728E+02  0.7816164E-02  0.1312668E+00
        -11   -1    0    0    0    0  0.00000000000E+00  0.00000000000E+00  0.45593999997E+02  0.45594000000E+02  0.51100000000E-03 0. -1.
         11   -1    0    0    0    0 -0.00000000000E+00 -0.00000000000E+00 -0.45593999997E+02  0.45594000000E+02  0.51100000000E-03 0.  1.
    9900012    2    1    2    0    0  0.16362537933E+02  0.41653882686E+01  0.39981741740E+02  0.47787276739E+02  0.20000025963E+02 0.  0.
        -12    1    1    2    0    0 -0.16362537933E+02 -0.41653882686E+01 -0.39981741740E+02  0.43400723261E+02  0.00000000000E+00 0.  1.
         11    1    3    3    0    0  0.15499900853E+02  0.59480386064E+01  0.14761188037E+02  0.22215282178E+02  0.51100000000E-03 0. -1.
        -11    1    3    3    0    0  0.11858452859E+01 -0.12391652942E+01  0.24681665341E+02  0.24741187602E+02  0.51100000000E-03 0.  1.
        -12    1    3    3    0    0 -0.32320820591E+00 -0.54348504359E+00  0.53888836155E+00  0.83080695904E+00  0.00000000000E+00 0.  1.
</event>
<event>
 7    1  0.7357971E-011  0.4778727E+02  0.7816164E-02  0.1312668E+00
        -11   -1    0    0    0    0  0.00000000000E+00  0.00000000000E+00  0.45593999997E+02  0.45594000000E+02  0.51100000000E-03 0. -1.
         11   -1    0    0    0    0 -0.00000000000E+00 -0.00000000000E+00 -0.45593999997E+02  0.45594000000E+02  0.51100000000E-03 0.  1.
    9900012    2    1    2    0    0  0.24758273808E+02  0.16031285904E+02 -0.31837853580E+02  0.47787272238E+02  0.20000005442E+02 0.  0.
         12    1    1    2    0    0 -0.24758273808E+02 -0.16031285904E+02  0.31837853580E+02  0.43400727762E+02  0.00000000000E+00 0. -1.
         11    1    3    3    0    0  0.84157056845E+01 -0.12772750376E+01 -0.23892097015E+01  0.88410325726E+01  0.51100000000E-03 0. -1.
        -11    1    3    3    0    0  0.15654600142E+02  0.18054723188E+02 -0.25832216029E+02  0.35190096906E+02  0.51100000000E-03 0.  1.
         12    1    3    3    0    0  0.68796798115E+00 -0.74616224623E+00 -0.36164278494E+01  0.37561427596E+01  0.00000000000E+00 0. -1.
</event>
<event>
 7    1  0.7357971E-011  0.4778728E+02  0.7816164E-02  0.1312668E+00
        -11   -1    0    0    0    0  0.00000000000E+00  0.00000000000E+00  0.45593999997E+02  0.45594000000E+02  0.51100000000E-03 0. -1.
         11   -1    0    0    0    0 -0.00000000000E+00 -0.00000000000E+00 -0.45593999997E+02  0.45594000000E+02  0.51100000000E-03 0.  1.
    9900012    2    1    2    0    0 -0.28253941912E+02  0.93161839919E+01 -0.31599782123E+02  0.47787277103E+02  0.20000027623E+02 0.  0.
         12    1    1    2    0    0  0.28253941912E+02 -0.93161839919E+01  0.31599782123E+02  0.43400722897E+02  0.00000000000E+00 0. -1.
         11    1    3    3    0    0 -0.48792657444E+01  0.89598575664E+01 -0.10064282454E+02  0.14330947749E+02  0.51100000000E-03 0. -1.
        -11    1    3    3    0    0 -0.18192615838E+02 -0.27394697465E+01 -0.11351821384E+02  0.21618043726E+02  0.51100000000E-03 0.  1.
        -12    1    3    3    0    0 -0.51820603295E+01  0.30957961720E+01 -0.10183678285E+02  0.11838285628E+02  0.00000000000E+00 0.  1.
</event>
<event>
 7    1  0.7357971E-011  0.4778727E+02  0.7816164E-02  0.1312668E+00
        -11   -1    0    0    0    0  0.00000000000E+00  0.00000000000E+00  0.45593999997E+02  0.45594000000E+02  0.51100000000E-03 0. -1.
         11   -1    0    0    0    0 -0.00000000000E+00 -0.00000000000E+00 -0.45593999997E+02  0.45594000000E+02  0.51100000000E-03 0.  1.
    9900012    2    1    2    0    0 -0.18966122411E+02 -0.96776954767E+01  0.37818667545E+02  0.47787271851E+02  0.20000003676E+02 0.  0.
        -12    1    1    2    0    0  0.18966122411E+02  0.96776954767E+01 -0.37818667545E+02  0.43400728149E+02  0.00000000000E+00 0.  1.
         11    1    3    3    0    0 -0.62184967385E+01  0.28735684823E+01  0.92789178933E+01  0.11533664424E+02  0.51100000000E-03 0. -1.
        -11    1    3    3    0    0 -0.38684039468E+01 -0.12416217058E+02  0.13208542460E+02  0.18536250681E+02  0.51100000000E-03 0.  1.
        -12    1    3    3    0    0 -0.88792217252E+01 -0.13504690096E+00  0.15331207192E+02  0.17717356746E+02  0.00000000000E+00 0.  1.
</event>
<event>
 7    1  0.7357971E-011  0.4778727E+02  0.7816164E-02  0.1312668E+00
        -11   -1    0    0    0    0  0.00000000000E+00  0.00000000000E+00  0.45593999997E+02  0.45594000000E+02  0.51100000000E-03 0. -1.
         11   -1    0    0    0    0 -0.00000000000E+00 -0.00000000000E+00 -0.45593999997E+02  0.45594000000E+02  0.51100000000E-03 0.  1.
    9900012    2    1    2    0    0 -0.35264072559E+02 -0.17167342816E+01 -0.25241266778E+02  0.47787267995E+02  0.19999986096E+02 0.  0.
         12    1    1    2    0    0  0.35264072559E+02  0.17167342816E+01  0.25241266778E+02  0.43400732005E+02  0.00000000000E+00 0. -1.
         11    1    3    3    0    0 -0.19735057931E+01  0.12456272993E+01 -0.74964339200E+01  0.78512950691E+01  0.51100000000E-03 0. -1.
        -11    1    3    3    0    0 -0.31482073188E+02  0.56286782701E+00 -0.17359069156E+02  0.35955180915E+02  0.51100000000E-03 0.  1.
        -12    1    3    3    0    0 -0.18084935783E+01 -0.35252294079E+01 -0.38576370108E+00  0.39807920109E+01  0.00000000000E+00 0.  1.
</event>
<event>
 7    1  0.7357971E-011  0.4778727E+02  0.7816164E-02  0.1312668E+00
        -11   -1    0    0    0    0  0.00000000000E+00  0.00000000000E+00  0.45593999997E+02  0.45594000000E+02  0.51100000000E-03 0. -1.
         11   -1    0    0    0    0 -0.00000000000E+00 -0.00000000000E+00 -0.45593999997E+02  0.45594000000E+02  0.51100000000E-03 0.  1.
    9900012    2    1    2    0    0  0.38421486478E+02  0.33435291833E+01  0.19905611612E+02  0.47787272077E+02  0.20000004708E+02 0.  0.
        -12    1    1    2    0    0 -0.38421486478E+02 -0.33435291833E+01 -0.19905611612E+02  0.43400727923E+02  0.00000000000E+00 0.  1.
         11    1    3    3    0    0  0.25795660572E+02  0.28275379331E+01  0.53987187965E+01  0.26505796348E+02  0.51100000000E-03 0.  1.
        -11    1    3    3    0    0  0.17308034729E+01  0.28274662877E+01  0.72948054162E+01  0.80127668499E+01  0.51100000000E-03 0. -1.
         12    1    3    3    0    0  0.10895022433E+02 -0.23114750375E+01  0.72120873992E+01  0.13268708879E+02  0.00000000000E+00 0. -1.
</event>
<event>
 7    1  0.7357971E-011  0.4778727E+02  0.7816164E-02  0.1312668E+00
        -11   -1    0    0    0    0  0.00000000000E+00  0.00000000000E+00  0.45593999997E+02  0.45594000000E+02  0.51100000000E-03 0. -1.
         11   -1    0    0    0    0 -0.00000000000E+00 -0.00000000000E+00 -0.45593999997E+02  0.45594000000E+02  0.51100000000E-03 0.  1.
    9900012    2    1    2    0    0 -0.13346791049E+02 -0.32142063298E+02 -0.25930180625E+02  0.47787270379E+02  0.19999996967E+02 0.  0.
         12    1    1    2    0    0  0.13346791049E+02  0.32142063298E+02  0.25930180625E+02  0.43400729621E+02  0.00000000000E+00 0. -1.
         11    1    3    3    0    0 -0.80939408924E+00 -0.39048331192E+01 -0.61634306891E+01  0.73410298052E+01  0.51100000000E-03 0. -1.
        -11    1    3    3    0    0 -0.15562124205E+02 -0.16637879155E+02 -0.16149954214E+02  0.27925252978E+02  0.51100000000E-03 0.  1.
        -12    1    3    3    0    0  0.30247272444E+01 -0.11599351024E+02 -0.36167957222E+01  0.12520987596E+02  0.00000000000E+00 0.  1.
</event>
<event>
 7    1  0.7357971E-011  0.4778728E+02  0.7816164E-02  0.1312668E+00
        -11   -1    0    0    0    0  0.00000000000E+00  0.00000000000E+00  0.45593999997E+02  0.45594000000E+02  0.51100000000E-03 0. -1.
         11   -1    0    0    0    0 -0.00000000000E+00 -0.00000000000E+00 -0.45593999997E+02  0.45594000000E+02  0.51100000000E-03 0.  1.
    9900012    2    1    2    0    0  0.60135821770E+01 -0.54684328337E+01 -0.42632797914E+02  0.47787281271E+02  0.20000046625E+02 0.  0.
         12    1    1    2    0    0 -0.60135821770E+01  0.54684328337E+01  0.42632797914E+02  0.43400718729E+02  0.00000000000E+00 0. -1.
         11    1    3    3    0    0  0.54034307101E+01  0.66458006814E+01 -0.16300681781E+02  0.18414015231E+02  0.51100000000E-03 0. -1.
        -11    1    3    3    0    0 -0.90044874980E+00 -0.51419605545E+01 -0.15900622079E+02  0.16735601246E+02  0.51100000000E-03 0.  1.
         12    1    3    3    0    0  0.15106002167E+01 -0.69722729606E+01 -0.10431494054E+02  0.12637664794E+02  0.00000000000E+00 0. -1.
</event>
<event>
 7    1  0.7357971E-011  0.4778729E+02  0.7816164E-02  0.1312668E+00
        -11   -1    0    0    0    0  0.00000000000E+00  0.00000000000E+00  0.45593999997E+02  0.45594000000E+02  0.51100000000E-03 0. -1.
         11   -1    0    0    0    0 -0.00000000000E+00 -0.00000000000E+00 -0.45593999997E+02  0.45594000000E+02  0.51100000000E-03 0.  1.
    9900012    2    1    2    0    0 -0.24406284796E+02  0.25298739033E+02 -0.25454436005E+02  0.47787294400E+02  0.20000106486E+02 0.  0.
         12    1    1    2    0    0  0.24406284796E+02 -0.25298739033E+02  0.25454436005E+02  0.43400705600E+02  0.00000000000E+00 0. -1.
         11    1    3    3    0    0 -0.19083488509E+02  0.89236644068E+01 -0.12915858302E+02  0.24710943246E+02  0.51100000000E-03 0. -1.
        -11    1    3    3    0    0 -0.61856923506E+01  0.15676411474E+02 -0.13511343430E+02  0.21600209909E+02  0.51100000000E-03 0.  1.
         12    1    3    3    0    0  0.86289606362E+00  0.69866315202E+00  0.97276572685E+00  0.14761412453E+01  0.00000000000E+00 0. -1.
</event>
<event>
 7    1  0.7357971E-011  0.4778729E+02  0.7816164E-02  0.1312668E+00
        -11   -1    0    0    0    0  0.00000000000E+00  0.00000000000E+00  0.45593999997E+02  0.45594000000E+02  0.51100000000E-03 0. -1.
         11   -1    0    0    0    0 -0.00000000000E+00 -0.00000000000E+00 -0.45593999997E+02  0.45594000000E+02  0.51100000000E-03 0.  1.
    9900012    2    1    2    0    0  0.37791956701E+02 -0.97939145983E+01  0.18959669446E+02  0.47787287795E+02  0.20000076370E+02 0.  0.
        -12    1    1    2    0    0 -0.37791956701E+02  0.97939145983E+01 -0.18959669446E+02  0.43400712205E+02  0.00000000000E+00 0.  1.
         11    1    3    3    0    0  0.34633967689E+02 -0.25872898497E+01  0.13571587464E+02  0.37287984301E+02  0.51100000000E-03 0. -1.
        -11    1    3    3    0    0  0.34149959837E+01 -0.69016907558E+01  0.33071441645E+01  0.83804973386E+01  0.51100000000E-03 0.  1.
         12    1    3    3    0    0 -0.25700697184E+00 -0.30493399281E+00  0.20809378175E+01  0.21188061553E+01  0.00000000000E+00 0. -1.
</event>
<event>
 7    1  0.7357971E-011  0.4778727E+02  0.7816164E-02  0.1312668E+00
        -11   -1    0    0    0    0  0.00000000000E+00  0.00000000000E+00  0.45593999997E+02  0.45594000000E+02  0.51100000000E-03 0. -1.
         11   -1    0    0    0    0 -0.00000000000E+00 -0.00000000000E+00 -0.45593999997E+02  0.45594000000E+02  0.51100000000E-03 0.  1.
    9900012    2    1    2    0    0 -0.19519715496E+02  0.10190013384E+02 -0.37400099029E+02  0.47787273356E+02  0.20000010541E+02 0.  0.
         12    1    1    2    0    0  0.19519715496E+02 -0.10190013384E+02  0.37400099029E+02  0.43400726644E+02  0.00000000000E+00 0. -1.
         11    1    3    3    0    0 -0.64416378143E+01  0.68662005834E+01 -0.38517336309E+01  0.10172279017E+02  0.51100000000E-03 0. -1.
        -11    1    3    3    0    0 -0.11875957595E+02 -0.15032548108E+01 -0.22132735768E+02  0.25162593997E+02  0.51100000000E-03 0.  1.
        -12    1    3    3    0    0 -0.12021200873E+01  0.48270676118E+01 -0.11415629630E+02  0.12452400342E+02  0.00000000000E+00 0.  1.
</event>
<event>
 7    1  0.7357971E-011  0.4778725E+02  0.7816164E-02  0.1312668E+00
        -11   -1    0    0    0    0  0.00000000000E+00  0.00000000000E+00  0.45593999997E+02  0.45594000000E+02  0.51100000000E-03 0. -1.
         11   -1    0    0    0    0 -0.00000000000E+00 -0.00000000000E+00 -0.45593999997E+02  0.45594000000E+02  0.51100000000E-03 0.  1.
    9900012    2    1    2    0    0  0.87540467240E+01  0.16744510580E+01 -0.42475736953E+02  0.47787247125E+02  0.19999890941E+02 0.  0.
         12    1    1    2    0    0 -0.87540467240E+01 -0.16744510580E+01  0.42475736953E+02  0.43400752875E+02  0.00000000000E+00 0. -1.
         11    1    3    3    0    0 -0.38071320550E+01  0.41139072607E+01 -0.13160127782E+02  0.14304106086E+02  0.51100000000E-03 0. -1.
        -11    1    3    3    0    0  0.12892411377E+02 -0.33610089181E+01 -0.29602614135E+02  0.32462677276E+02  0.51100000000E-03 0.  1.
        -12    1    3    3    0    0 -0.33123259750E+00  0.92155271542E+00  0.28700496362E+00  0.10204637623E+01  0.00000000000E+00 0.  1.
</event>
<event>
 7    1  0.7357971E-011  0.4778727E+02  0.7816164E-02  0.1312668E+00
        -11   -1    0    0    0    0  0.00000000000E+00  0.00000000000E+00  0.45593999997E+02  0.45594000000E+02  0.51100000000E-03 0. -1.
         11   -1    0    0    0    0 -0.00000000000E+00 -0.00000000000E+00 -0.45593999997E+02  0.45594000000E+02  0.51100000000E-03 0.  1.
    9900012    2    1    2    0    0  0.10750582371E+02  0.53779316997E+01  0.41702836748E+02  0.47787265404E+02  0.19999974282E+02 0.  0.
        -12    1    1    2    0    0 -0.10750582371E+02 -0.53779316997E+01 -0.41702836748E+02  0.43400734596E+02  0.00000000000E+00 0.  1.
         11    1    3    3    0    0  0.17039684054E+01 -0.28747874993E+01  0.30261361535E+02  0.30445326632E+02  0.51100000000E-03 0. -1.
        -11    1    3    3    0    0  0.21291933982E+01  0.47834254825E+01  0.54257617372E+01  0.75401269594E+01  0.51100000000E-03 0.  1.
         12    1    3    3    0    0  0.69174205670E+01  0.34692937164E+01  0.60157134753E+01  0.98018118125E+01  0.00000000000E+00 0. -1.
</event>
<event>
 7    1  0.7357971E-011  0.4778727E+02  0.7816164E-02  0.1312668E+00
        -11   -1    0    0    0    0  0.00000000000E+00  0.00000000000E+00  0.45593999997E+02  0.45594000000E+02  0.51100000000E-03 0. -1.
         11   -1    0    0    0    0 -0.00000000000E+00 -0.00000000000E+00 -0.45593999997E+02  0.45594000000E+02  0.51100000000E-03 0.  1.
    9900012    2    1    2    0    0 -0.16808437809E+02 -0.34577038472E+02 -0.20137736741E+02  0.47787267148E+02  0.19999982234E+02 0.  0.
         12    1    1    2    0    0  0.16808437809E+02  0.34577038472E+02  0.20137736741E+02  0.43400732852E+02  0.00000000000E+00 0. -1.
         11    1    3    3    0    0 -0.14559851990E+02 -0.95161859948E+01 -0.57892203396E+01  0.18331998207E+02  0.51100000000E-03 0. -1.
        -11    1    3    3    0    0 -0.24307940078E+01 -0.17156855024E+02 -0.12413682021E+02  0.21315861123E+02  0.51100000000E-03 0.  1.
         12    1    3    3    0    0  0.18220818829E+00 -0.79039974529E+01 -0.19348343801E+01  0.81394078186E+01  0.00000000000E+00 0. -1.
</event>
<event>
 7    1  0.7357971E-011  0.4778727E+02  0.7816164E-02  0.1312668E+00
        -11   -1    0    0    0    0  0.00000000000E+00  0.00000000000E+00  0.45593999997E+02  0.45594000000E+02  0.51100000000E-03 0. -1.
         11   -1    0    0    0    0 -0.00000000000E+00 -0.00000000000E+00 -0.45593999997E+02  0.45594000000E+02  0.51100000000E-03 0.  1.
    9900012    2    1    2    0    0 -0.17044521563E+02  0.12359793761E+02  0.37951847969E+02  0.47787274415E+02  0.20000015366E+02 0.  0.
        -12    1    1    2    0    0  0.17044521563E+02 -0.12359793761E+02 -0.37951847969E+02  0.43400725585E+02  0.00000000000E+00 0.  1.
         11    1    3    3    0    0 -0.95322356515E+01  0.70327824640E+01  0.11061653430E+02  0.16207520556E+02  0.51100000000E-03 0. -1.
        -11    1    3    3    0    0 -0.95193934211E+01  0.24406317342E+01  0.26219559260E+02  0.28000728962E+02  0.51100000000E-03 0.  1.
        -12    1    3    3    0    0  0.20071075099E+01  0.28863795624E+01  0.67063527902E+00  0.35790248967E+01  0.00000000000E+00 0.  1.
</event>
<event>
 7    1 -0.1186571E-010  0.4778727E+02  0.7816164E-02  0.1312668E+00
        -11   -1    0    0    0    0  0.00000000000E+00  0.00000000000E+00  0.45593999997E+02  0.45594000000E+02  0.51100000000E-03 0. -1.
         11   -1    0    0    0    0 -0.00000000000E+00 -0.00000000000E+00 -0.45593999997E+02  0.45594000000E+02  0.51100000000E-03 0.  1.
    9900012    2    1    2    0    0  0.81824103076E+01  0.27168624092E+02 -0.32841089320E+02  0.47787272803E+02  0.20000008020E+02 0.  0.
         12    1    1    2    0    0 -0.81824103076E+01 -0.27168624092E+02  0.32841089320E+02  0.43400727197E+02  0.00000000000E+00 0. -1.
         11    1    3    3    0    0 -0.33214645517E+01  0.30379794992E+01 -0.11791673627E+02  0.12621608986E+02  0.51100000000E-03 0. -1.
        -11    1    3    3    0    0  0.10868087695E+00  0.10054803675E+02 -0.72198011196E+01  0.12378869776E+02  0.51100000000E-03 0.  1.
         12    1    3    3    0    0  0.11395193982E+02  0.14075840918E+02 -0.13829614573E+02  0.22786794042E+02  0.00000000000E+00 0. -1.
</event>
<event>
 7    1  0.7357971E-011  0.4778727E+02  0.7816164E-02  0.1312668E+00
        -11   -1    0    0    0    0  0.00000000000E+00  0.00000000000E+00  0.45593999997E+02  0.45594000000E+02  0.51100000000E-03 0. -1.
         11   -1    0    0    0    0 -0.00000000000E+00 -0.00000000000E+00 -0.45593999997E+02  0.45594000000E+02  0.51100000000E-03 0.  1.
    9900012    2    1    2    0    0  0.22972576427E+02  0.10055118208E+02  0.35422852329E+02  0.47787272621E+02  0.20000007190E+02 0.  0.
        -12    1    1    2    0    0 -0.22972576427E+02 -0.10055118208E+02 -0.35422852329E+02  0.43400727379E+02  0.00000000000E+00 0.  1.
         11    1    3    3    0    0  0.14976089656E+02  0.14498151783E+02  0.30441230621E+02  0.36893741861E+02  0.51100000000E-03 0. -1.
        -11    1    3    3    0    0  0.36174101074E+01 -0.34987930849E+01  0.16002690741E+01  0.52809156693E+01  0.51100000000E-03 0.  1.
         12    1    3    3    0    0  0.43790766634E+01 -0.94424049040E+00  0.33813526337E+01  0.56126150911E+01  0.00000000000E+00 0. -1.
</event>
<event>
 7    1  0.8283179E-011  0.4778727E+02  0.7816164E-02  0.1312668E+00
        -11   -1    0    0    0    0  0.00000000000E+00  0.00000000000E+00  0.45593999997E+02  0.45594000000E+02  0.51100000000E-03 0. -1.
         11   -1    0    0    0    0 -0.00000000000E+00 -0.00000000000E+00 -0.45593999997E+02  0.45594000000E+02  0.51100000000E-03 0.  1.
    9900012    2    1    2    0    0 -0.31444393131E+02 -0.14443450171E+02 -0.26196566437E+02  0.47787271834E+02  0.20000003602E+02 0.  0.
         12    1    1    2    0    0  0.31444393131E+02  0.14443450171E+02  0.26196566437E+02  0.43400728166E+02  0.00000000000E+00 0. -1.
         11    1    3    3    0    0 -0.85678783137E+01  0.98587915467E+00 -0.28483698650E+00  0.86291151850E+01  0.51100000000E-03 0. -1.
        -11    1    3    3    0    0 -0.40010725713E+01 -0.61236804646E+01 -0.11580059949E+02  0.13696927861E+02  0.51100000000E-03 0.  1.
        -12    1    3    3    0    0 -0.18875442246E+02 -0.93056488614E+01 -0.14331669502E+02  0.25461228788E+02  0.00000000000E+00 0.  1.
</event>
<event>
 7    1  0.7357971E-011  0.4778727E+02  0.7816164E-02  0.1312668E+00
        -11   -1    0    0    0    0  0.00000000000E+00  0.00000000000E+00  0.45593999997E+02  0.45594000000E+02  0.51100000000E-03 0. -1.
         11   -1    0    0    0    0 -0.00000000000E+00 -0.00000000000E+00 -0.45593999997E+02  0.45594000000E+02  0.51100000000E-03 0.  1.
    9900012    2    1    2    0    0  0.35728946448E+02 -0.80127456632E+01 -0.23299387865E+02  0.47787272100E+02  0.20000004812E+02 0.  0.
         12    1    1    2    0    0 -0.35728946448E+02  0.80127456632E+01  0.23299387865E+02  0.43400727900E+02  0.00000000000E+00 0. -1.
         11    1    3    3    0    0  0.15676299883E+02 -0.19905931220E+01 -0.24899997880E+01  0.15997154066E+02  0.51100000000E-03 0. -1.
        -11    1    3    3    0    0  0.11523037898E+02 -0.48373685465E+01 -0.19381131335E+02  0.23060979792E+02  0.51100000000E-03 0.  1.
        -12    1    3    3    0    0  0.85296086673E+01 -0.11847839947E+01 -0.14282567417E+01  0.87291382422E+01  0.00000000000E+00 0.  1.
</event>
<event>
 7    1  0.7357971E-011  0.4778727E+02  0.7816164E-02  0.1312668E+00
        -11   -1    0    0    0    0  0.00000000000E+00  0.00000000000E+00  0.45593999997E+02  0.45594000000E+02  0.51100000000E-03 0.  1.
         11   -1    0    0    0    0 -0.00000000000E+00 -0.00000000000E+00 -0.45593999997E+02  0.45594000000E+02  0.51100000000E-03 0. -1.
    9900012    2    1    2    0    0 -0.16594518584E+02  0.37649833470E+02  0.13810694821E+02  0.47787270758E+02  0.19999998694E+02 0.  0.
        -12    1    1    2    0    0  0.16594518584E+02 -0.37649833470E+02 -0.13810694821E+02  0.43400729242E+02  0.00000000000E+00 0.  1.
         11    1    3    3    0    0 -0.30179493131E+01  0.17337898787E+02 -0.32967439727E+01  0.17904727686E+02  0.51100000000E-03 0. -1.
        -11    1    3    3    0    0 -0.61157842138E+01  0.92392975884E+01  0.88815373668E+01  0.14200321924E+02  0.51100000000E-03 0.  1.
         12    1    3    3    0    0 -0.74607850568E+01  0.11072637094E+02  0.82259014265E+01  0.15682221148E+02  0.00000000000E+00 0. -1.
</event>
<event>
 7    1  0.7357971E-011  0.4778728E+02  0.7816164E-02  0.1312668E+00
        -11   -1    0    0    0    0  0.00000000000E+00  0.00000000000E+00  0.45593999997E+02  0.45594000000E+02  0.51100000000E-03 0. -1.
         11   -1    0    0    0    0 -0.00000000000E+00 -0.00000000000E+00 -0.45593999997E+02  0.45594000000E+02  0.51100000000E-03 0.  1.
    9900012    2    1    2    0    0  0.23621845264E+02  0.31845473449E+01 -0.36269682072E+02  0.47787277044E+02  0.20000027356E+02 0.  0.
         12    1    1    2    0    0 -0.23621845264E+02 -0.31845473449E+01  0.36269682072E+02  0.43400722956E+02  0.00000000000E+00 0. -1.
         11    1    3    3    0    0  0.12105713490E+01  0.27111439555E+01 -0.14467761288E+02  0.14769289133E+02  0.51100000000E-03 0.  1.
        -11    1    3    3    0    0  0.16422691752E+02 -0.37393369407E+01 -0.11561676531E+02  0.20429385933E+02  0.51100000000E-03 0. -1.
         12    1    3    3    0    0  0.59885821629E+01  0.42127403301E+01 -0.10240244253E+02  0.12588601979E+02  0.00000000000E+00 0. -1.
</event>
<event>
 7    1  0.7357971E-011  0.4778727E+02  0.7816164E-02  0.1312668E+00
        -11   -1    0    0    0    0  0.00000000000E+00  0.00000000000E+00  0.45593999997E+02  0.45594000000E+02  0.51100000000E-03 0. -1.
         11   -1    0    0    0    0 -0.00000000000E+00 -0.00000000000E+00 -0.45593999997E+02  0.45594000000E+02  0.51100000000E-03 0.  1.
    9900012    2    1    2    0    0  0.24076324544E+02 -0.58703188792E+01 -0.35629949151E+02  0.47787270470E+02  0.19999997380E+02 0.  0.
         12    1    1    2    0    0 -0.24076324544E+02  0.58703188792E+01  0.35629949151E+02  0.43400729530E+02  0.00000000000E+00 0. -1.
         11    1    3    3    0    0 -0.11155569091E+01  0.25109285459E+00  0.16855760811E+01  0.20368313199E+01  0.51100000000E-03 0. -1.
        -11    1    3    3    0    0  0.10765275682E+02 -0.53487857943E+01 -0.17209577933E+02  0.20992147172E+02  0.51100000000E-03 0.  1.
         12    1    3    3    0    0  0.14426605770E+02 -0.77262593950E+00 -0.20105947299E+02  0.24758291978E+02  0.00000000000E+00 0. -1.
</event>
<event>
 7    1  0.7357971E-011  0.4778728E+02  0.7816164E-02  0.1312668E+00
        -11   -1    0    0    0    0  0.00000000000E+00  0.00000000000E+00  0.45593999997E+02  0.45594000000E+02  0.51100000000E-03 0. -1.
         11   -1    0    0    0    0 -0.00000000000E+00 -0.00000000000E+00 -0.45593999997E+02  0.45594000000E+02  0.51100000000E-03 0.  1.
    9900012    2    1    2    0    0  0.37777528396E-01  0.12229975258E+02  0.41641913295E+02  0.47787278061E+02  0.20000031993E+02 0.  0.
        -12    1    1    2    0    0 -0.37777528396E-01 -0.12229975258E+02 -0.41641913295E+02  0.43400721939E+02  0.00000000000E+00 0.  1.
         11    1    3    3    0    0  0.12769151798E+01  0.70654395411E+01  0.41836069317E+02  0.42447704820E+02  0.51100000000E-03 0. -1.
        -11    1    3    3    0    0 -0.71978272053E+00  0.26248306220E+01  0.14294523774E+00  0.27254828125E+01  0.51100000000E-03 0.  1.
         12    1    3    3    0    0 -0.51935493088E+00  0.25397050946E+01 -0.33710126022E+00  0.26140904291E+01  0.00000000000E+00 0. -1.
</event>
<event>
 7    1  0.7357971E-011  0.4778727E+02  0.7816164E-02  0.1312668E+00
        -11   -1    0    0    0    0  0.00000000000E+00  0.00000000000E+00  0.45593999997E+02  0.45594000000E+02  0.51100000000E-03 0. -1.
         11   -1    0    0    0    0 -0.00000000000E+00 -0.00000000000E+00 -0.45593999997E+02  0.45594000000E+02  0.51100000000E-03 0.  1.
    9900012    2    1    2    0    0 -0.49292219254E+01 -0.36815565589E+02 -0.22448610847E+02  0.47787271580E+02  0.20000002441E+02 0.  0.
         12    1    1    2    0    0  0.49292219254E+01  0.36815565589E+02  0.22448610847E+02  0.43400728420E+02  0.00000000000E+00 0. -1.
         11    1    3    3    0    0 -0.45504286343E+01 -0.13995277762E+02 -0.25246946075E+01  0.14931452827E+02  0.51100000000E-03 0.  1.
        -11    1    3    3    0    0  0.38081652863E+01 -0.20713617441E+02 -0.18283941945E+02  0.27890116594E+02  0.51100000000E-03 0. -1.
         12    1    3    3    0    0 -0.41869585775E+01 -0.21066703863E+01 -0.16399742953E+01  0.49657021593E+01  0.00000000000E+00 0. -1.
</event>
<event>
 7    1  0.7357971E-011  0.4778727E+02  0.7816164E-02  0.1312668E+00
        -11   -1    0    0    0    0  0.00000000000E+00  0.00000000000E+00  0.45593999997E+02  0.45594000000E+02  0.51100000000E-03 0. -1.
         11   -1    0    0    0    0 -0.00000000000E+00 -0.00000000000E+00 -0.45593999997E+02  0.45594000000E+02  0.51100000000E-03 0.  1.
    9900012    2    1    2    0    0 -0.92005874416E+01 -0.28216961139E+02  0.31666634915E+02  0.47787268762E+02  0.19999989592E+02 0.  0.
        -12    1    1    2    0    0  0.92005874416E+01  0.28216961139E+02 -0.31666634915E+02  0.43400731238E+02  0.00000000000E+00 0.  1.
         11    1    3    3    0    0 -0.31082304654E+01 -0.42336273088E+01  0.18296463137E+01  0.55616816441E+01  0.51100000000E-03 0. -1.
        -11    1    3    3    0    0 -0.60450498137E+01 -0.26547933436E+02  0.26290545207E+02  0.37848753804E+02  0.51100000000E-03 0.  1.
        -12    1    3    3    0    0 -0.47307162528E-01  0.25645996059E+01  0.35464433945E+01  0.43768333137E+01  0.00000000000E+00 0.  1.
</event>
<event>
 7    1  0.7357971E-011  0.4778727E+02  0.7816164E-02  0.1312668E+00
        -11   -1    0    0    0    0  0.00000000000E+00  0.00000000000E+00  0.45593999997E+02  0.45594000000E+02  0.51100000000E-03 0.  1.
         11   -1    0    0    0    0 -0.00000000000E+00 -0.00000000000E+00 -0.45593999997E+02  0.45594000000E+02  0.51100000000E-03 0. -1.
    9900012    2    1    2    0    0 -0.26630625076E+02  0.31335423831E+02 -0.13875312379E+02  0.47787271063E+02  0.20000000086E+02 0.  0.
         12    1    1    2    0    0  0.26630625076E+02 -0.31335423831E+02  0.13875312379E+02  0.43400728937E+02  0.00000000000E+00 0. -1.
         11    1    3    3    0    0 -0.11028598944E+02  0.18761314891E+02 -0.10588508254E+01  0.21788485409E+02  0.51100000000E-03 0. -1.
        -11    1    3    3    0    0 -0.57709055796E+01  0.51581956812E+01  0.62962185132E+00  0.77657425808E+01  0.51100000000E-03 0.  1.
         12    1    3    3    0    0 -0.98311205526E+01  0.74159132591E+01 -0.13446083405E+02  0.18233043073E+02  0.00000000000E+00 0. -1.
</event>
<event>
 7    1  0.7357971E-011  0.4778727E+02  0.7816164E-02  0.1312668E+00
        -11   -1    0    0    0    0  0.00000000000E+00  0.00000000000E+00  0.45593999997E+02  0.45594000000E+02  0.51100000000E-03 0. -1.
         11   -1    0    0    0    0 -0.00000000000E+00 -0.00000000000E+00 -0.45593999997E+02  0.45594000000E+02  0.51100000000E-03 0.  1.
    9900012    2    1    2    0    0  0.27873305020E+02  0.27416825561E+01  0.33153960801E+02  0.47787273361E+02  0.20000010561E+02 0.  0.
        -12    1    1    2    0    0 -0.27873305020E+02 -0.27416825561E+01 -0.33153960801E+02  0.43400726639E+02  0.00000000000E+00 0.  1.
         11    1    3    3    0    0  0.22230200947E+02 -0.11109930818E+00  0.14114228436E+02  0.26332596184E+02  0.51100000000E-03 0.  1.
        -11    1    3    3    0    0  0.19635693052E+01  0.51561921381E+01  0.98128543767E+01  0.11257621110E+02  0.51100000000E-03 0. -1.
        -12    1    3    3    0    0  0.36795347679E+01 -0.23034102738E+01  0.92268779891E+01  0.10197056066E+02  0.00000000000E+00 0.  1.
</event>
<event>
 7    1  0.7624813E-011  0.4778727E+02  0.7816164E-02  0.1312668E+00
        -11   -1    0    0    0    0  0.00000000000E+00  0.00000000000E+00  0.45593999997E+02  0.45594000000E+02  0.51100000000E-03 0. -1.
         11   -1    0    0    0    0 -0.00000000000E+00 -0.00000000000E+00 -0.45593999997E+02  0.45594000000E+02  0.51100000000E-03 0.  1.
    9900012    2    1    2    0    0  0.41998145242E+01 -0.22178368955E+02 -0.37068922098E+02  0.47787268704E+02  0.19999989330E+02 0.  0.
         12    1    1    2    0    0 -0.41998145242E+01  0.22178368955E+02  0.37068922098E+02  0.43400731296E+02  0.00000000000E+00 0. -1.
         11    1    3    3    0    0 -0.13766519103E+01  0.14082792124E+01 -0.70134265830E+01  0.72846807424E+01  0.51100000000E-03 0. -1.
        -11    1    3    3    0    0  0.65743770001E+01 -0.19243735284E+02 -0.16357815544E+02  0.26098312402E+02  0.51100000000E-03 0.  1.
        -12    1    3    3    0    0 -0.99791056556E+00 -0.43429128827E+01 -0.13697679971E+02  0.14404275559E+02  0.00000000000E+00 0.  1.
</event>
<event>
 7    1  0.7357971E-011  0.4778728E+02  0.7816164E-02  0.1312668E+00
        -11   -1    0    0    0    0  0.00000000000E+00  0.00000000000E+00  0.45593999997E+02  0.45594000000E+02  0.51100000000E-03 0. -1.
         11   -1    0    0    0    0 -0.00000000000E+00 -0.00000000000E+00 -0.45593999997E+02  0.45594000000E+02  0.51100000000E-03 0.  1.
    9900012    2    1    2    0    0  0.11846196527E+02 -0.20594820182E+02  0.36320019331E+02  0.47787276565E+02  0.20000025171E+02 0.  0.
        -12    1    1    2    0    0 -0.11846196527E+02  0.20594820182E+02 -0.36320019331E+02  0.43400723435E+02  0.00000000000E+00 0.  1.
         11    1    3    3    0    0  0.99511714051E+01 -0.61114121991E+01  0.13584385803E+02  0.17913980834E+02  0.51100000000E-03 0. -1.
        -11    1    3    3    0    0 -0.48595626642E+01 -0.33049783284E+01  0.43088398184E+01  0.72872719093E+01  0.51100000000E-03 0.  1.
        -12    1    3    3    0    0  0.67545877860E+01 -0.11178429654E+02  0.18426793709E+02  0.22586023822E+02  0.00000000000E+00 0.  1.
</event>
<event>
 7    1  0.7357971E-011  0.4778727E+02  0.7816164E-02  0.1312668E+00
        -11   -1    0    0    0    0  0.00000000000E+00  0.00000000000E+00  0.45593999997E+02  0.45594000000E+02  0.51100000000E-03 0. -1.
         11   -1    0    0    0    0 -0.00000000000E+00 -0.00000000000E+00 -0.45593999997E+02  0.45594000000E+02  0.51100000000E-03 0.  1.
    9900012    2    1    2    0    0 -0.27340506960E+02 -0.32120174292E+02 -0.10218333338E+02  0.47787271279E+02  0.20000001068E+02 0.  0.
         12    1    1    2    0    0  0.27340506960E+02  0.32120174292E+02  0.10218333338E+02  0.43400728721E+02  0.00000000000E+00 0. -1.
         11    1    3    3    0    0 -0.50262461253E+00  0.89575949936E+00 -0.66196691674E+00  0.12219726027E+01  0.51100000000E-03 0. -1.
        -11    1    3    3    0    0 -0.17336369705E+02 -0.11318251998E+02  0.78629739941E+00  0.20718851481E+02  0.51100000000E-03 0.  1.
        -12    1    3    3    0    0 -0.95015126424E+01 -0.21697681793E+02 -0.10342663821E+02  0.25846447195E+02  0.00000000000E+00 0.  1.
</event>
<event>
 7    1  0.7357971E-011  0.4778727E+02  0.7816164E-02  0.1312668E+00
        -11   -1    0    0    0    0  0.00000000000E+00  0.00000000000E+00  0.45593999997E+02  0.45594000000E+02  0.51100000000E-03 0. -1.
         11   -1    0    0    0    0 -0.00000000000E+00 -0.00000000000E+00 -0.45593999997E+02  0.45594000000E+02  0.51100000000E-03 0.  1.
    9900012    2    1    2    0    0 -0.24028864325E+02 -0.67028642558E+01  0.35514903300E+02  0.47787273435E+02  0.20000010900E+02 0.  0.
        -12    1    1    2    0    0  0.24028864325E+02  0.67028642558E+01 -0.35514903300E+02  0.43400726565E+02  0.00000000000E+00 0.  1.
         11    1    3    3    0    0 -0.97207758862E+01  0.52158278814E+01  0.88985896030E+01  0.14173328526E+02  0.51100000000E-03 0. -1.
        -11    1    3    3    0    0 -0.12516398903E+02 -0.13224582000E+02  0.22561743235E+02  0.28992793392E+02  0.51100000000E-03 0.  1.
        -12    1    3    3    0    0 -0.17916895359E+01  0.13058898625E+01  0.40545704611E+01  0.46211515178E+01  0.00000000000E+00 0.  1.
</event>
<event>
 7    1  0.7357971E-011  0.4778728E+02  0.7816164E-02  0.1312668E+00
        -11   -1    0    0    0    0  0.00000000000E+00  0.00000000000E+00  0.45593999997E+02  0.45594000000E+02  0.51100000000E-03 0. -1.
         11   -1    0    0    0    0 -0.00000000000E+00 -0.00000000000E+00 -0.45593999997E+02  0.45594000000E+02  0.51100000000E-03 0.  1.
    9900012    2    1    2    0    0  0.27312519275E+01  0.27154508832E+02  0.33746046286E+02  0.47787277345E+02  0.20000028729E+02 0.  0.
        -12    1    1    2    0    0 -0.27312519275E+01 -0.27154508832E+02 -0.33746046286E+02  0.43400722655E+02  0.00000000000E+00 0.  1.
         11    1    3    3    0    0  0.83711650823E+00  0.19725928600E+02  0.26009321919E+02  0.32654216422E+02  0.51100000000E-03 0. -1.
        -11    1    3    3    0    0  0.26092212817E+01 -0.20529794020E+01  0.95759698017E+00  0.34553946749E+01  0.51100000000E-03 0.  1.
        -12    1    3    3    0    0 -0.71508586248E+00  0.94815596344E+01  0.67791273862E+01  0.11677666248E+02  0.00000000000E+00 0.  1.
</event>
<event>
 7    1  0.7357971E-011  0.4778727E+02  0.7816164E-02  0.1312668E+00
        -11   -1    0    0    0    0  0.00000000000E+00  0.00000000000E+00  0.45593999997E+02  0.45594000000E+02  0.51100000000E-03 0. -1.
         11   -1    0    0    0    0 -0.00000000000E+00 -0.00000000000E+00 -0.45593999997E+02  0.45594000000E+02  0.51100000000E-03 0.  1.
    9900012    2    1    2    0    0  0.11264708964E+02 -0.19763714394E+02  0.36961130081E+02  0.47787271762E+02  0.20000003272E+02 0.  0.
        -12    1    1    2    0    0 -0.11264708964E+02  0.19763714394E+02 -0.36961130081E+02  0.43400728238E+02  0.00000000000E+00 0.  1.
         11    1    3    3    0    0 -0.21805209739E+01 -0.32196654301E+01  0.11450069680E+00  0.38902477903E+01  0.51100000000E-03 0.  1.
        -11    1    3    3    0    0  0.87439049548E+01 -0.52249966614E+01  0.24342190619E+02  0.26387472565E+02  0.51100000000E-03 0. -1.
         12    1    3    3    0    0  0.47013249836E+01 -0.11319052303E+02  0.12504438765E+02  0.17509551406E+02  0.00000000000E+00 0. -1.
</event>
<event>
 7    1  0.7357971E-011  0.4778727E+02  0.7816164E-02  0.1312668E+00
        -11   -1    0    0    0    0  0.00000000000E+00  0.00000000000E+00  0.45593999997E+02  0.45594000000E+02  0.51100000000E-03 0. -1.
         11   -1    0    0    0    0 -0.00000000000E+00 -0.00000000000E+00 -0.45593999997E+02  0.45594000000E+02  0.51100000000E-03 0.  1.
    9900012    2    1    2    0    0  0.40487787976E+02  0.12175807028E+02 -0.98036937594E+01  0.47787266558E+02  0.19999979543E+02 0.  0.
        -12    1    1    2    0    0 -0.40487787976E+02 -0.12175807028E+02  0.98036937594E+01  0.43400733442E+02  0.00000000000E+00 0.  1.
         11    1    3    3    0    0  0.29149942545E+02  0.22801683018E+01 -0.14365458407E+01  0.29274254595E+02  0.51100000000E-03 0. -1.
        -11    1    3    3    0    0  0.10879589883E+02  0.70051872772E+01 -0.86623779236E+01  0.15571606095E+02  0.51100000000E-03 0.  1.
         12    1    3    3    0    0  0.45825554839E+00  0.28904514492E+01  0.29523000494E+00  0.29414058686E+01  0.00000000000E+00 0. -1.
</event>
<event>
 7    1  0.7357971E-011  0.4778727E+02  0.7816164E-02  0.1312668E+00
        -11   -1    0    0    0    0  0.00000000000E+00  0.00000000000E+00  0.45593999997E+02  0.45594000000E+02  0.51100000000E-03 0. -1.
         11   -1    0    0    0    0 -0.00000000000E+00 -0.00000000000E+00 -0.45593999997E+02  0.45594000000E+02  0.51100000000E-03 0.  1.
    9900012    2    1    2    0    0  0.41875288423E+02  0.11273885487E+02  0.17271455455E+01  0.47787270672E+02  0.19999998301E+02 0.  0.
        -12    1    1    2    0    0 -0.41875288423E+02 -0.11273885487E+02 -0.17271455455E+01  0.43400729328E+02  0.00000000000E+00 0.  1.
         11    1    3    3    0    0  0.24675908601E+02  0.74795674395E+01  0.74114047759E+01  0.26828591379E+02  0.51100000000E-03 0. -1.
        -11    1    3    3    0    0  0.69147495557E+01  0.25575078111E+01 -0.74149211831E+01  0.10456369544E+02  0.51100000000E-03 0.  1.
         12    1    3    3    0    0  0.10284630266E+02  0.12368102368E+01  0.17306619527E+01  0.10502309749E+02  0.00000000000E+00 0. -1.
</event>
<event>
 7    1  0.7357971E-011  0.4778728E+02  0.7816164E-02  0.1312668E+00
        -11   -1    0    0    0    0  0.00000000000E+00  0.00000000000E+00  0.45593999997E+02  0.45594000000E+02  0.51100000000E-03 0. -1.
         11   -1    0    0    0    0 -0.00000000000E+00 -0.00000000000E+00 -0.45593999997E+02  0.45594000000E+02  0.51100000000E-03 0.  1.
    9900012    2    1    2    0    0 -0.20592624098E+02  0.32456024948E+02 -0.20153724630E+02  0.47787281813E+02  0.20000049099E+02 0.  0.
         12    1    1    2    0    0  0.20592624098E+02 -0.32456024948E+02  0.20153724630E+02  0.43400718187E+02  0.00000000000E+00 0. -1.
         11    1    3    3    0    0 -0.14823296325E+02  0.11916442382E+02 -0.18279552994E+01  0.19106887078E+02  0.51100000000E-03 0. -1.
        -11    1    3    3    0    0 -0.59364762562E+01  0.11032383461E+02 -0.97375791403E+01  0.15867440970E+02  0.51100000000E-03 0.  1.
         12    1    3    3    0    0  0.16714848296E+00  0.95071991054E+01 -0.85881901898E+01  0.12812953765E+02  0.00000000000E+00 0. -1.
</event>
<event>
 7    1  0.7357971E-011  0.4778729E+02  0.7816164E-02  0.1312668E+00
        -11   -1    0    0    0    0  0.00000000000E+00  0.00000000000E+00  0.45593999997E+02  0.45594000000E+02  0.51100000000E-03 0. -1.
         11   -1    0    0    0    0 -0.00000000000E+00 -0.00000000000E+00 -0.45593999997E+02  0.45594000000E+02  0.51100000000E-03 0.  1.
    9900012    2    1    2    0    0  0.15579312194E+02 -0.12481288698E+01  0.40488877605E+02  0.47787285676E+02  0.20000066711E+02 0.  0.
        -12    1    1    2    0    0 -0.15579312194E+02  0.12481288698E+01 -0.40488877605E+02  0.43400714324E+02  0.00000000000E+00 0.  1.
         11    1    3    3    0    0  0.11517170071E+02  0.75620157886E+01  0.23173168468E+02  0.26959692624E+02  0.51100000000E-03 0. -1.
        -11    1    3    3    0    0 -0.11621651242E+01 -0.42221590841E+01  0.47083174395E+01  0.64300473155E+01  0.51100000000E-03 0.  1.
        -12    1    3    3    0    0  0.52243072466E+01 -0.45879855744E+01  0.12607391697E+02  0.14397545737E+02  0.00000000000E+00 0.  1.
</event>
<event>
 7    1  0.7357971E-011  0.4778732E+02  0.7816164E-02  0.1312668E+00
        -11   -1    0    0    0    0  0.00000000000E+00  0.00000000000E+00  0.45593999997E+02  0.45594000000E+02  0.51100000000E-03 0. -1.
         11   -1    0    0    0    0 -0.00000000000E+00 -0.00000000000E+00 -0.45593999997E+02  0.45594000000E+02  0.51100000000E-03 0.  1.
    9900012    2    1    2    0    0  0.12917262460E+02 -0.41426884492E+02 -0.75954694352E+00  0.47787316368E+02  0.20000206648E+02 0.  0.
        -12    1    1    2    0    0 -0.12917262460E+02  0.41426884492E+02  0.75954694352E+00  0.43400683632E+02  0.00000000000E+00 0.  1.
         11    1    3    3    0    0  0.61241936526E+01 -0.24216615980E+02 -0.25950728333E+01  0.25113435461E+02  0.51100000000E-03 0. -1.
        -11    1    3    3    0    0  0.40589791851E+01 -0.39370932143E+01  0.62430786175E+01  0.84233037396E+01  0.51100000000E-03 0.  1.
        -12    1    3    3    0    0  0.27340896225E+01 -0.13273175298E+02 -0.44075527277E+01  0.14250577167E+02  0.00000000000E+00 0.  1.
</event>
<event>
 7    1  0.7357971E-011  0.4778726E+02  0.7816164E-02  0.1312668E+00
        -11   -1    0    0    0    0  0.00000000000E+00  0.00000000000E+00  0.45593999997E+02  0.45594000000E+02  0.51100000000E-03 0. -1.
         11   -1    0    0    0    0 -0.00000000000E+00 -0.00000000000E+00 -0.45593999997E+02  0.45594000000E+02  0.51100000000E-03 0.  1.
    9900012    2    1    2    0    0 -0.25285567038E+02 -0.10219704862E+02 -0.33761254394E+02  0.47787256156E+02  0.19999932118E+02 0.  0.
         12    1    1    2    0    0  0.25285567038E+02  0.10219704862E+02  0.33761254394E+02  0.43400743844E+02  0.00000000000E+00 0. -1.
         11    1    3    3    0    0 -0.32449565637E+01 -0.41854584335E+01  0.12705910122E+01  0.54463021565E+01  0.51100000000E-03 0. -1.
        -11    1    3    3    0    0 -0.16090165913E+02 -0.69462125767E+01 -0.23306291647E+02  0.29160359031E+02  0.51100000000E-03 0.  1.
         12    1    3    3    0    0 -0.59504445621E+01  0.91196614836E+00 -0.11725553760E+02  0.13180594968E+02  0.00000000000E+00 0. -1.
</event>
<event>
 7    1  0.7357971E-011  0.4778727E+02  0.7816164E-02  0.1312668E+00
        -11   -1    0    0    0    0  0.00000000000E+00  0.00000000000E+00  0.45593999997E+02  0.45594000000E+02  0.51100000000E-03 0. -1.
         11   -1    0    0    0    0 -0.00000000000E+00 -0.00000000000E+00 -0.45593999997E+02  0.45594000000E+02  0.51100000000E-03 0.  1.
    9900012    2    1    2    0    0 -0.15027252604E+02  0.17375373840E+02  0.36822565619E+02  0.47787271024E+02  0.19999999905E+02 0.  0.
        -12    1    1    2    0    0  0.15027252604E+02 -0.17375373840E+02 -0.36822565619E+02  0.43400728976E+02  0.00000000000E+00 0.  1.
         11    1    3    3    0    0 -0.69910853717E+01  0.19308944944E+01  0.70235783596E+01  0.10096250862E+02  0.51100000000E-03 0. -1.
        -11    1    3    3    0    0 -0.23107410657E+00  0.13445474119E+02  0.24794123753E+02  0.28206076339E+02  0.51100000000E-03 0.  1.
        -12    1    3    3    0    0 -0.78050931259E+01  0.19990052268E+01  0.50048635066E+01  0.94849438227E+01  0.00000000000E+00 0.  1.
</event>
<event>
 7    1  0.7357971E-011  0.4778727E+02  0.7816164E-02  0.1312668E+00
        -11   -1    0    0    0    0  0.00000000000E+00  0.00000000000E+00  0.45593999997E+02  0.45594000000E+02  0.51100000000E-03 0. -1.
         11   -1    0    0    0    0 -0.00000000000E+00 -0.00000000000E+00 -0.45593999997E+02  0.45594000000E+02  0.51100000000E-03 0.  1.
    9900012    2    1    2    0    0 -0.70060491018E+01 -0.31972287437E+02  0.28501072236E+02  0.47787274124E+02  0.20000014041E+02 0.  0.
        -12    1    1    2    0    0  0.70060491018E+01  0.31972287437E+02 -0.28501072236E+02  0.43400725876E+02  0.00000000000E+00 0.  1.
         11    1    3    3    0    0 -0.28486275485E+01  0.11033513770E+01  0.62324245850E+01  0.69408342179E+01  0.51100000000E-03 0. -1.
        -11    1    3    3    0    0  0.30688725362E+00 -0.13374888997E+02  0.50377488162E+01  0.14295480015E+02  0.51100000000E-03 0.  1.
         12    1    3    3    0    0 -0.44643088068E+01 -0.19700749817E+02  0.17230898835E+02  0.26550959891E+02  0.00000000000E+00 0. -1.
</event>
<event>
 7    1  0.7357971E-011  0.4778727E+02  0.7816164E-02  0.1312668E+00
        -11   -1    0    0    0    0  0.00000000000E+00  0.00000000000E+00  0.45593999997E+02  0.45594000000E+02  0.51100000000E-03 0. -1.
         11   -1    0    0    0    0 -0.00000000000E+00 -0.00000000000E+00 -0.45593999997E+02  0.45594000000E+02  0.51100000000E-03 0.  1.
    9900012    2    1    2    0    0 -0.18206452282E+02  0.27499448306E+02 -0.28212203868E+02  0.47787274097E+02  0.20000013917E+02 0.  0.
         12    1    1    2    0    0  0.18206452282E+02 -0.27499448306E+02  0.28212203868E+02  0.43400725903E+02  0.00000000000E+00 0. -1.
         11    1    3    3    0    0 -0.54651796388E+01  0.10575372776E+02 -0.44830149217E+00  0.11912500674E+02  0.51100000000E-03 0. -1.
        -11    1    3    3    0    0 -0.54839447101E+01  0.90412361067E+01 -0.75383000454E+01  0.12986283832E+02  0.51100000000E-03 0.  1.
         12    1    3    3    0    0 -0.72573279330E+01  0.78828394231E+01 -0.20225602331E+02  0.22888489591E+02  0.00000000000E+00 0. -1.
</event>
<event>
 7    1  0.7357971E-011  0.4778728E+02  0.7816164E-02  0.1312668E+00
        -11   -1    0    0    0    0  0.00000000000E+00  0.00000000000E+00  0.45593999997E+02  0.45594000000E+02  0.51100000000E-03 0. -1.
         11   -1    0    0    0    0 -0.00000000000E+00 -0.00000000000E+00 -0.45593999997E+02  0.45594000000E+02  0.51100000000E-03 0.  1.
    9900012    2    1    2    0    0  0.87966342872E+01 -0.41651945517E+02 -0.84472956165E+01  0.47787284068E+02  0.20000059382E+02 0.  0.
         12    1    1    2    0    0 -0.87966342872E+01  0.41651945517E+02  0.84472956165E+01  0.43400715932E+02  0.00000000000E+00 0. -1.
         11    1    3    3    0    0  0.53732515193E+01 -0.22466120655E+02 -0.10100101191E+02  0.25211315981E+02  0.51100000000E-03 0. -1.
        -11    1    3    3    0    0  0.57276310223E+00  0.10893989256E+01  0.17030819008E+01  0.21012700474E+01  0.51100000000E-03 0.  1.
        -12    1    3    3    0    0  0.28506196657E+01 -0.20275223788E+02 -0.50276326448E-01  0.20474698040E+02  0.00000000000E+00 0.  1.
</event>
<event>
 7    1  0.7357971E-011  0.4778725E+02  0.7816164E-02  0.1312668E+00
        -11   -1    0    0    0    0  0.00000000000E+00  0.00000000000E+00  0.45593999997E+02  0.45594000000E+02  0.51100000000E-03 0. -1.
         11   -1    0    0    0    0 -0.00000000000E+00 -0.00000000000E+00 -0.45593999997E+02  0.45594000000E+02  0.51100000000E-03 0.  1.
    9900012    2    1    2    0    0 -0.27212158343E+02  0.21109365080E+02 -0.26410563637E+02  0.47787254299E+02  0.19999923649E+02 0.  0.
         12    1    1    2    0    0  0.27212158343E+02 -0.21109365080E+02  0.26410563637E+02  0.43400745701E+02  0.00000000000E+00 0. -1.
         11    1    3    3    0    0 -0.12403516865E+01  0.12462899812E+01  0.87838740283E+00  0.19655217409E+01  0.51100000000E-03 0. -1.
        -11    1    3    3    0    0 -0.11719516963E+02  0.18609973286E+02 -0.12738414910E+02  0.25415455892E+02  0.51100000000E-03 0.  1.
        -12    1    3    3    0    0 -0.14252289694E+02  0.12531018134E+01 -0.14550536130E+02  0.20406276666E+02  0.00000000000E+00 0.  1.
</event>
<event>
 7    1  0.7357971E-011  0.4778727E+02  0.7816164E-02  0.1312668E+00
        -11   -1    0    0    0    0  0.00000000000E+00  0.00000000000E+00  0.45593999997E+02  0.45594000000E+02  0.51100000000E-03 0. -1.
         11   -1    0    0    0    0 -0.00000000000E+00 -0.00000000000E+00 -0.45593999997E+02  0.45594000000E+02  0.51100000000E-03 0.  1.
    9900012    2    1    2    0    0  0.15807852786E+02 -0.83319922510E+01  0.39551396720E+02  0.47787270892E+02  0.19999999307E+02 0.  0.
        -12    1    1    2    0    0 -0.15807852786E+02  0.83319922510E+01 -0.39551396720E+02  0.43400729108E+02  0.00000000000E+00 0.  1.
         11    1    3    3    0    0  0.11627076831E+02 -0.81638419078E+01  0.29071814409E+02  0.32357497178E+02  0.51100000000E-03 0. -1.
        -11    1    3    3    0    0  0.66619025294E+01  0.26653757579E+01  0.48654849699E+01  0.86693781493E+01  0.51100000000E-03 0.  1.
        -12    1    3    3    0    0 -0.24811265742E+01 -0.28335261011E+01  0.56140973413E+01  0.67603955653E+01  0.00000000000E+00 0.  1.
</event>
<event>
 7    1  0.7357971E-011  0.4778727E+02  0.7816164E-02  0.1312668E+00
        -11   -1    0    0    0    0  0.00000000000E+00  0.00000000000E+00  0.45593999997E+02  0.45594000000E+02  0.51100000000E-03 0.  1.
         11   -1    0    0    0    0 -0.00000000000E+00 -0.00000000000E+00 -0.45593999997E+02  0.45594000000E+02  0.51100000000E-03 0. -1.
    9900012    2    1    2    0    0  0.57869658146E+01  0.42956149047E+02  0.22143955759E+01  0.47787271181E+02  0.20000000620E+02 0.  0.
        -12    1    1    2    0    0 -0.57869658146E+01 -0.42956149047E+02 -0.22143955759E+01  0.43400728819E+02  0.00000000000E+00 0.  1.
         11    1    3    3    0    0  0.65132133817E+01  0.17883432636E+02  0.45321108210E+01  0.19564742272E+02  0.51100000000E-03 0. -1.
        -11    1    3    3    0    0 -0.28156832541E+01  0.22435684314E+02 -0.58378558958E+01  0.23353127511E+02  0.51100000000E-03 0.  1.
        -12    1    3    3    0    0  0.20894356870E+01  0.26370320969E+01  0.35201406507E+01  0.48694013976E+01  0.00000000000E+00 0.  1.
</event>
<event>
 7    1  0.7357971E-011  0.4778727E+02  0.7816164E-02  0.1312668E+00
        -11   -1    0    0    0    0  0.00000000000E+00  0.00000000000E+00  0.45593999997E+02  0.45594000000E+02  0.51100000000E-03 0. -1.
         11   -1    0    0    0    0 -0.00000000000E+00 -0.00000000000E+00 -0.45593999997E+02  0.45594000000E+02  0.51100000000E-03 0.  1.
    9900012    2    1    2    0    0  0.16948525731E+02 -0.16125741853E+02 -0.36555859633E+02  0.47787274796E+02  0.20000017104E+02 0.  0.
         12    1    1    2    0    0 -0.16948525731E+02  0.16125741853E+02  0.36555859633E+02  0.43400725204E+02  0.00000000000E+00 0. -1.
         11    1    3    3    0    0  0.29175976600E+01  0.23826216923E+01  0.31454126789E+00  0.37799733735E+01  0.51100000000E-03 0. -1.
        -11    1    3    3    0    0  0.13537544055E+02 -0.17466442365E+02 -0.36703282928E+02  0.42842416901E+02  0.51100000000E-03 0.  1.
        -12    1    3    3    0    0  0.49338401514E+00 -0.10419211800E+01 -0.16711797279E+00  0.11648845215E+01  0.00000000000E+00 0.  1.
</event>
<event>
 7    1  0.7357971E-011  0.4778727E+02  0.7816164E-02  0.1312668E+00
        -11   -1    0    0    0    0  0.00000000000E+00  0.00000000000E+00  0.45593999997E+02  0.45594000000E+02  0.51100000000E-03 0. -1.
         11   -1    0    0    0    0 -0.00000000000E+00 -0.00000000000E+00 -0.45593999997E+02  0.45594000000E+02  0.51100000000E-03 0.  1.
    9900012    2    1    2    0    0 -0.11641178917E+02 -0.18745821397E+02 -0.37372459011E+02  0.47787267760E+02  0.19999985025E+02 0.  0.
         12    1    1    2    0    0  0.11641178917E+02  0.18745821397E+02  0.37372459011E+02  0.43400732240E+02  0.00000000000E+00 0. -1.
         11    1    3    3    0    0 -0.17139304844E+01  0.62601561810E+00 -0.20193138800E+01  0.27215955002E+01  0.51100000000E-03 0. -1.
        -11    1    3    3    0    0  0.36724432569E+01  0.66409089228E+00 -0.46737709990E+01  0.59809691356E+01  0.51100000000E-03 0.  1.
        -12    1    3    3    0    0 -0.13599691689E+02 -0.20035927907E+02 -0.30679374132E+02  0.39084703124E+02  0.00000000000E+00 0.  1.
</event>
<event>
 7    1  0.7357971E-011  0.4778722E+02  0.7816164E-02  0.1312668E+00
        -11   -1    0    0    0    0  0.00000000000E+00  0.00000000000E+00  0.45593999997E+02  0.45594000000E+02  0.51100000000E-03 0. -1.
         11   -1    0    0    0    0 -0.00000000000E+00 -0.00000000000E+00 -0.45593999997E+02  0.45594000000E+02  0.51100000000E-03 0.  1.
    9900012    2    1    2    0    0  0.22093130082E+02 -0.14857172562E+02 -0.34275153429E+02  0.47787215261E+02  0.19999745661E+02 0.  0.
         12    1    1    2    0    0 -0.22093130082E+02  0.14857172562E+02  0.34275153429E+02  0.43400784739E+02  0.00000000000E+00 0. -1.
         11    1    3    3    0    0  0.56442382627E+01 -0.55954129852E+01 -0.23793302459E+02  0.25085599738E+02  0.51100000000E-03 0.  1.
        -11    1    3    3    0    0  0.75182031566E+01 -0.22833678361E+01 -0.99243085962E+00  0.79197264253E+01  0.51100000000E-03 0. -1.
         12    1    3    3    0    0  0.89306886631E+01 -0.69783917407E+01 -0.94894201104E+01  0.14781889098E+02  0.00000000000E+00 0. -1.
</event>
<event>
 7    1  0.7357971E-011  0.4778727E+02  0.7816164E-02  0.1312668E+00
        -11   -1    0    0    0    0  0.00000000000E+00  0.00000000000E+00  0.45593999997E+02  0.45594000000E+02  0.51100000000E-03 0. -1.
         11   -1    0    0    0    0 -0.00000000000E+00 -0.00000000000E+00 -0.45593999997E+02  0.45594000000E+02  0.51100000000E-03 0.  1.
    9900012    2    1    2    0    0  0.36855443945E+02  0.82396721881E+00 -0.22904599046E+02  0.47787270423E+02  0.19999997165E+02 0.  0.
         12    1    1    2    0    0 -0.36855443945E+02 -0.82396721881E+00  0.22904599046E+02  0.43400729577E+02  0.00000000000E+00 0. -1.
         11    1    3    3    0    0  0.48336164819E+01  0.58776470935E+01  0.74524816524E+00  0.76463049075E+01  0.51100000000E-03 0. -1.
        -11    1    3    3    0    0  0.27647650988E+02 -0.46244312813E+01 -0.20147824520E+02  0.34521193534E+02  0.51100000000E-03 0.  1.
         12    1    3    3    0    0  0.43741764753E+01 -0.42924859341E+00 -0.35020226911E+01  0.56197719812E+01  0.00000000000E+00 0. -1.
</event>
<event>
 7    1  0.7357971E-011  0.4778727E+02  0.7816164E-02  0.1312668E+00
        -11   -1    0    0    0    0  0.00000000000E+00  0.00000000000E+00  0.45593999997E+02  0.45594000000E+02  0.51100000000E-03 0. -1.
         11   -1    0    0    0    0 -0.00000000000E+00 -0.00000000000E+00 -0.45593999997E+02  0.45594000000E+02  0.51100000000E-03 0.  1.
    9900012    2    1    2    0    0 -0.36855183329E+02  0.20914742532E+01 -0.22824204678E+02  0.47787272795E+02  0.20000007980E+02 0.  0.
         12    1    1    2    0    0  0.36855183329E+02 -0.20914742532E+01  0.22824204678E+02  0.43400727205E+02  0.00000000000E+00 0. -1.
         11    1    3    3    0    0 -0.44065854381E+01  0.27312160381E+01  0.30251192188E+01  0.60024064190E+01  0.51100000000E-03 0. -1.
        -11    1    3    3    0    0 -0.16246494503E+02 -0.13622297964E+00 -0.16078211343E+02  0.22857734371E+02  0.51100000000E-03 0.  1.
         12    1    3    3    0    0 -0.16202103387E+02 -0.50351880525E+00 -0.97711125544E+01  0.18927132004E+02  0.00000000000E+00 0. -1.
</event>
<event>
 7    1  0.7357971E-011  0.4778727E+02  0.7816164E-02  0.1312668E+00
        -11   -1    0    0    0    0  0.00000000000E+00  0.00000000000E+00  0.45593999997E+02  0.45594000000E+02  0.51100000000E-03 0. -1.
         11   -1    0    0    0    0 -0.00000000000E+00 -0.00000000000E+00 -0.45593999997E+02  0.45594000000E+02  0.51100000000E-03 0.  1.
    9900012    2    1    2    0    0  0.19465507602E+02  0.37936803041E+02  0.80942015539E+01  0.47787272933E+02  0.20000008610E+02 0.  0.
        -12    1    1    2    0    0 -0.19465507602E+02 -0.37936803041E+02 -0.80942015539E+01  0.43400727067E+02  0.00000000000E+00 0.  1.
         11    1    3    3    0    0  0.18321726529E+02  0.34394518528E+02  0.90082763990E+01  0.39997720081E+02  0.51100000000E-03 0. -1.
        -11    1    3    3    0    0 -0.24351212623E+01  0.27623641165E+01 -0.16797696734E+01  0.40474803879E+01  0.51100000000E-03 0.  1.
        -12    1    3    3    0    0  0.35789023357E+01  0.77992039660E+00  0.76569482825E+00  0.37420724637E+01  0.00000000000E+00 0.  1.
</event>
<event>
 7    1  0.7357971E-011  0.4778727E+02  0.7816164E-02  0.1312668E+00
        -11   -1    0    0    0    0  0.00000000000E+00  0.00000000000E+00  0.45593999997E+02  0.45594000000E+02  0.51100000000E-03 0.  1.
         11   -1    0    0    0    0 -0.00000000000E+00 -0.00000000000E+00 -0.45593999997E+02  0.45594000000E+02  0.51100000000E-03 0. -1.
    9900012    2    1    2    0    0  0.24559100189E+02 -0.75465801022E+01  0.34978894993E+02  0.47787269957E+02  0.19999995043E+02 0.  0.
        -12    1    1    2    0    0 -0.24559100189E+02  0.75465801022E+01 -0.34978894993E+02  0.43400730043E+02  0.00000000000E+00 0.  1.
         11    1    3    3    0    0  0.23335385842E+02 -0.56511237498E+01  0.24552325306E+02  0.34340822795E+02  0.51100000000E-03 0. -1.
        -11    1    3    3    0    0  0.33829433075E+01  0.20068778506E+01  0.59077037918E+01  0.70973818047E+01  0.51100000000E-03 0.  1.
         12    1    3    3    0    0 -0.21592289610E+01 -0.39023342029E+01  0.45188658951E+01  0.63490653576E+01  0.00000000000E+00 0. -1.
</event>
<event>
 7    1  0.8012681E-011  0.4778727E+02  0.7816164E-02  0.1312668E+00
        -11   -1    0    0    0    0  0.00000000000E+00  0.00000000000E+00  0.45593999997E+02  0.45594000000E+02  0.51100000000E-03 0. -1.
         11   -1    0    0    0    0 -0.00000000000E+00 -0.00000000000E+00 -0.45593999997E+02  0.45594000000E+02  0.51100000000E-03 0.  1.
    9900012    2    1    2    0    0  0.16971615655E+01  0.16454506846E+01  0.43336302423E+02  0.47787274510E+02  0.20000015803E+02 0.  0.
        -12    1    1    2    0    0 -0.16971615655E+01 -0.16454506846E+01 -0.43336302423E+02  0.43400725490E+02  0.00000000000E+00 0.  1.
         11    1    3    3    0    0  0.13627130552E+01  0.66015384493E+01  0.27570711268E+02  0.28382766195E+02  0.51100000000E-03 0. -1.
        -11    1    3    3    0    0  0.50609127604E+01 -0.35925768177E+01  0.70182865876E+01  0.93688736273E+01  0.51100000000E-03 0.  1.
         12    1    3    3    0    0 -0.47264642501E+01 -0.13635109470E+01  0.87473045671E+01  0.10035634688E+02  0.00000000000E+00 0. -1.
</event>
<event>
 7    1  0.8749358E-011  0.4778727E+02  0.7816164E-02  0.1312668E+00
        -11   -1    0    0    0    0  0.00000000000E+00  0.00000000000E+00  0.45593999997E+02  0.45594000000E+02  0.51100000000E-03 0. -1.
         11   -1    0    0    0    0 -0.00000000000E+00 -0.00000000000E+00 -0.45593999997E+02  0.45594000000E+02  0.51100000000E-03 0.  1.
    9900012    2    1    2    0    0  0.30940621068E+02 -0.21774293842E+01 -0.30357209832E+02  0.47787269366E+02  0.19999992347E+02 0.  0.
         12    1    1    2    0    0 -0.30940621068E+02  0.21774293842E+01  0.30357209832E+02  0.43400730634E+02  0.00000000000E+00 0. -1.
         11    1    3    3    0    0  0.95344217740E+00  0.15660812290E+01  0.88914993252E+00  0.20377071097E+01  0.51100000000E-03 0. -1.
        -11    1    3    3    0    0  0.21980628401E+02 -0.66411661278E+01 -0.15059579147E+02  0.27459862286E+02  0.51100000000E-03 0.  1.
        -12    1    3    3    0    0  0.80065504899E+01  0.28976555146E+01 -0.16186780618E+02  0.18289699970E+02  0.00000000000E+00 0.  1.
</event>
<event>
 7    1  0.7357971E-011  0.4778726E+02  0.7816164E-02  0.1312668E+00
        -11   -1    0    0    0    0  0.00000000000E+00  0.00000000000E+00  0.45593999997E+02  0.45594000000E+02  0.51100000000E-03 0. -1.
         11   -1    0    0    0    0 -0.00000000000E+00 -0.00000000000E+00 -0.45593999997E+02  0.45594000000E+02  0.51100000000E-03 0.  1.
    9900012    2    1    2    0    0  0.14045607229E+02 -0.25992387497E+02 -0.31792147130E+02  0.47787263723E+02  0.19999966620E+02 0.  0.
         12    1    1    2    0    0 -0.14045607229E+02  0.25992387497E+02  0.31792147130E+02  0.43400736277E+02  0.00000000000E+00 0. -1.
         11    1    3    3    0    0  0.15390379673E+02 -0.19361933129E+02 -0.27342199633E+02  0.36869284262E+02  0.51100000000E-03 0. -1.
        -11    1    3    3    0    0 -0.11114778011E+01 -0.80638182002E+01 -0.47647290920E+01  0.94320300281E+01  0.51100000000E-03 0.  1.
         12    1    3    3    0    0 -0.23329464284E+00  0.14333638317E+01  0.31478159563E+00  0.14859494329E+01  0.00000000000E+00 0. -1.
</event>
<event>
 7    1  0.8838995E-011  0.4778728E+02  0.7816164E-02  0.1312668E+00
        -11   -1    0    0    0    0  0.00000000000E+00  0.00000000000E+00  0.45593999997E+02  0.45594000000E+02  0.51100000000E-03 0. -1.
         11   -1    0    0    0    0 -0.00000000000E+00 -0.00000000000E+00 -0.45593999997E+02  0.45594000000E+02  0.51100000000E-03 0.  1.
    9900012    2    1    2    0    0 -0.18470753701E+02 -0.43603789156E+01  0.39031278486E+02  0.47787281725E+02  0.20000048696E+02 0.  0.
        -12    1    1    2    0    0  0.18470753701E+02  0.43603789156E+01 -0.39031278486E+02  0.43400718275E+02  0.00000000000E+00 0.  1.
         11    1    3    3    0    0 -0.18970045684E+02 -0.98517996267E+00  0.31270504690E+02  0.36587944417E+02  0.51100000000E-03 0. -1.
        -11    1    3    3    0    0 -0.12794998837E+01 -0.51835840006E+01  0.63517166118E+01  0.82976482946E+01  0.51100000000E-03 0.  1.
         12    1    3    3    0    0  0.17787918662E+01  0.18083850477E+01  0.14090571836E+01  0.29016890134E+01  0.00000000000E+00 0. -1.
</event>
<event>
 7    1  0.7357971E-011  0.4778727E+02  0.7816164E-02  0.1312668E+00
        -11   -1    0    0    0    0  0.00000000000E+00  0.00000000000E+00  0.45593999997E+02  0.45594000000E+02  0.51100000000E-03 0. -1.
         11   -1    0    0    0    0 -0.00000000000E+00 -0.00000000000E+00 -0.45593999997E+02  0.45594000000E+02  0.51100000000E-03 0.  1.
    9900012    2    1    2    0    0 -0.15765019133E+02  0.91276794217E+01 -0.39392546114E+02  0.47787273633E+02  0.20000011800E+02 0.  0.
         12    1    1    2    0    0  0.15765019133E+02 -0.91276794217E+01  0.39392546114E+02  0.43400726367E+02  0.00000000000E+00 0. -1.
         11    1    3    3    0    0  0.18602333166E+01  0.39654312619E+01 -0.74921824632E+01  0.86785892522E+01  0.51100000000E-03 0. -1.
        -11    1    3    3    0    0 -0.13673386262E+02 -0.19786914061E+01 -0.15327184463E+02  0.20634904783E+02  0.51100000000E-03 0.  1.
        -12    1    3    3    0    0 -0.39518661874E+01  0.71409395659E+01 -0.16573179187E+02  0.18473779598E+02  0.00000000000E+00 0.  1.
</event>
<event>
 7    1  0.7357971E-011  0.4778727E+02  0.7816164E-02  0.1312668E+00
        -11   -1    0    0    0    0  0.00000000000E+00  0.00000000000E+00  0.45593999997E+02  0.45594000000E+02  0.51100000000E-03 0. -1.
         11   -1    0    0    0    0 -0.00000000000E+00 -0.00000000000E+00 -0.45593999997E+02  0.45594000000E+02  0.51100000000E-03 0.  1.
    9900012    2    1    2    0    0 -0.13821327721E+02 -0.41546579453E+01 -0.40930830674E+02  0.47787272100E+02  0.20000004811E+02 0.  0.
         12    1    1    2    0    0  0.13821327721E+02  0.41546579453E+01  0.40930830674E+02  0.43400727900E+02  0.00000000000E+00 0. -1.
         11    1    3    3    0    0  0.46735140096E+01  0.12199720926E+00 -0.59716036400E+01  0.75839743414E+01  0.51100000000E-03 0. -1.
        -11    1    3    3    0    0 -0.96205219353E+01 -0.62729274292E-01 -0.13246860306E+02  0.16371856508E+02  0.51100000000E-03 0.  1.
         12    1    3    3    0    0 -0.88743197952E+01 -0.42139258803E+01 -0.21712366728E+02  0.23831441251E+02  0.00000000000E+00 0. -1.
</event>
<event>
 7    1  0.7357971E-011  0.4778727E+02  0.7816164E-02  0.1312668E+00
        -11   -1    0    0    0    0  0.00000000000E+00  0.00000000000E+00  0.45593999997E+02  0.45594000000E+02  0.51100000000E-03 0. -1.
         11   -1    0    0    0    0 -0.00000000000E+00 -0.00000000000E+00 -0.45593999997E+02  0.45594000000E+02  0.51100000000E-03 0.  1.
    9900012    2    1    2    0    0 -0.24083784620E+02 -0.35398250981E+02 -0.71104521851E+01  0.47787269771E+02  0.19999994194E+02 0.  0.
         12    1    1    2    0    0  0.24083784620E+02  0.35398250981E+02  0.71104521851E+01  0.43400730229E+02  0.00000000000E+00 0. -1.
         11    1    3    3    0    0 -0.98265833791E+01 -0.19799495785E+01 -0.23501846845E+01  0.10295887992E+02  0.51100000000E-03 0. -1.
        -11    1    3    3    0    0 -0.13963629376E+02 -0.29532785951E+02 -0.63570112410E+01  0.33280324270E+02  0.51100000000E-03 0.  1.
         12    1    3    3    0    0 -0.29357186496E+00 -0.38855154516E+01  0.15967437404E+01  0.42110575081E+01  0.00000000000E+00 0. -1.
</event>
<event>
 7    1  0.7357971E-011  0.4778726E+02  0.7816164E-02  0.1312668E+00
        -11   -1    0    0    0    0  0.00000000000E+00  0.00000000000E+00  0.45593999997E+02  0.45594000000E+02  0.51100000000E-03 0. -1.
         11   -1    0    0    0    0 -0.00000000000E+00 -0.00000000000E+00 -0.45593999997E+02  0.45594000000E+02  0.51100000000E-03 0.  1.
    9900012    2    1    2    0    0  0.34598057046E+02  0.21170129394E+02 -0.15440982891E+02  0.47787264032E+02  0.19999968030E+02 0.  0.
         12    1    1    2    0    0 -0.34598057046E+02 -0.21170129394E+02  0.15440982891E+02  0.43400735968E+02  0.00000000000E+00 0. -1.
         11    1    3    3    0    0 -0.16618855267E+01 -0.33772972682E-01 -0.23762437780E+01  0.28999204940E+01  0.51100000000E-03 0. -1.
        -11    1    3    3    0    0  0.28364528465E+02  0.12000978593E+02 -0.99801701604E+01  0.32375511717E+02  0.51100000000E-03 0.  1.
        -12    1    3    3    0    0  0.78954141073E+01  0.92029237740E+01 -0.30845689522E+01  0.12511831822E+02  0.00000000000E+00 0.  1.
</event>
<event>
 7    1  0.7357971E-011  0.4778725E+02  0.7816164E-02  0.1312668E+00
        -11   -1    0    0    0    0  0.00000000000E+00  0.00000000000E+00  0.45593999997E+02  0.45594000000E+02  0.51100000000E-03 0. -1.
         11   -1    0    0    0    0 -0.00000000000E+00 -0.00000000000E+00 -0.45593999997E+02  0.45594000000E+02  0.51100000000E-03 0.  1.
    9900012    2    1    2    0    0  0.65577075640E+01 -0.29714328489E+02 -0.30946406307E+02  0.47787252203E+02  0.19999914092E+02 0.  0.
         12    1    1    2    0    0 -0.65577075640E+01  0.29714328489E+02  0.30946406307E+02  0.43400747797E+02  0.00000000000E+00 0. -1.
         11    1    3    3    0    0 -0.58193345518E+01 -0.54009672869E+01 -0.73767965589E+01  0.10837538004E+02  0.51100000000E-03 0. -1.
        -11    1    3    3    0    0  0.72973390923E+01 -0.21301783069E+02 -0.19387241393E+02  0.29713334528E+02  0.51100000000E-03 0.  1.
         12    1    3    3    0    0  0.50797030235E+01 -0.30115781333E+01 -0.41823683560E+01  0.72363796698E+01  0.00000000000E+00 0. -1.
</event>
<event>
 7    1  0.7357971E-011  0.4778728E+02  0.7816164E-02  0.1312668E+00
        -11   -1    0    0    0    0  0.00000000000E+00  0.00000000000E+00  0.45593999997E+02  0.45594000000E+02  0.51100000000E-03 0. -1.
         11   -1    0    0    0    0 -0.00000000000E+00 -0.00000000000E+00 -0.45593999997E+02  0.45594000000E+02  0.51100000000E-03 0.  1.
    9900012    2    1    2    0    0  0.42501459214E+02 -0.31741245382E+01  0.81959529099E+01  0.47787277126E+02  0.20000027728E+02 0.  0.
        -12    1    1    2    0    0 -0.42501459214E+02  0.31741245382E+01 -0.81959529099E+01  0.43400722874E+02  0.00000000000E+00 0.  1.
         11    1    3    3    0    0  0.32851407771E+02  0.53925763112E+01  0.56461591415E+01  0.33766462431E+02  0.51100000000E-03 0. -1.
        -11    1    3    3    0    0  0.33127389152E+01 -0.61855968635E+01  0.13451895612E+01  0.71446051602E+01  0.51100000000E-03 0.  1.
         12    1    3    3    0    0  0.63373125280E+01 -0.23811039859E+01  0.12046042071E+01  0.68762095347E+01  0.00000000000E+00 0. -1.
</event>
<event>
 7    1  0.7357971E-011  0.4778727E+02  0.7816164E-02  0.1312668E+00
        -11   -1    0    0    0    0  0.00000000000E+00  0.00000000000E+00  0.45593999997E+02  0.45594000000E+02  0.51100000000E-03 0. -1.
         11   -1    0    0    0    0 -0.00000000000E+00 -0.00000000000E+00 -0.45593999997E+02  0.45594000000E+02  0.51100000000E-03 0.  1.
    9900012    2    1    2    0    0 -0.86721756887E+01  0.17223941616E+02 -0.38881259108E+02  0.47787272981E+02  0.20000008829E+02 0.  0.
         12    1    1    2    0    0  0.86721756887E+01 -0.17223941616E+02  0.38881259108E+02  0.43400727019E+02  0.00000000000E+00 0. -1.
         11    1    3    3    0    0 -0.25764170885E+01  0.13693693118E+01 -0.65580834868E+00  0.29905153699E+01  0.51100000000E-03 0. -1.
        -11    1    3    3    0    0 -0.98307422944E+01  0.56441950670E+01 -0.12534957697E+02  0.16900461436E+02  0.51100000000E-03 0.  1.
        -12    1    3    3    0    0  0.37349836942E+01  0.10210377237E+02 -0.25690493062E+02  0.27896296175E+02  0.00000000000E+00 0.  1.
</event>
<event>
 7    1  0.9330036E-011  0.4778728E+02  0.7816164E-02  0.1312668E+00
        -11   -1    0    0    0    0  0.00000000000E+00  0.00000000000E+00  0.45593999997E+02  0.45594000000E+02  0.51100000000E-03 0. -1.
         11   -1    0    0    0    0 -0.00000000000E+00 -0.00000000000E+00 -0.45593999997E+02  0.45594000000E+02  0.51100000000E-03 0.  1.
    9900012    2    1    2    0    0 -0.29880768225E+02  0.99541442914E+01 -0.29860966953E+02  0.47787278282E+02  0.20000032997E+02 0.  0.
         12    1    1    2    0    0  0.29880768225E+02 -0.99541442914E+01  0.29860966953E+02  0.43400721718E+02  0.00000000000E+00 0. -1.
         11    1    3    3    0    0  0.19361122103E+01  0.18870503662E+01 -0.21804522711E+01  0.34733070615E+01  0.51100000000E-03 0. -1.
        -11    1    3    3    0    0 -0.27422043944E+02  0.25441556745E+01 -0.21665790965E+02  0.35040658107E+02  0.51100000000E-03 0.  1.
        -12    1    3    3    0    0 -0.43948364914E+01  0.55229382507E+01 -0.60147237173E+01  0.92733131135E+01  0.00000000000E+00 0.  1.
</event>
<event>
 7    1  0.7357971E-011  0.4778727E+02  0.7816164E-02  0.1312668E+00
        -11   -1    0    0    0    0  0.00000000000E+00  0.00000000000E+00  0.45593999997E+02  0.45594000000E+02  0.51100000000E-03 0. -1.
         11   -1    0    0    0    0 -0.00000000000E+00 -0.00000000000E+00 -0.45593999997E+02  0.45594000000E+02  0.51100000000E-03 0.  1.
    9900012    2    1    2    0    0 -0.37213586227E+02 -0.20704234081E+02  0.83730034363E+01  0.47787268494E+02  0.19999988371E+02 0.  0.
        -12    1    1    2    0    0  0.37213586227E+02  0.20704234081E+02 -0.83730034363E+01  0.43400731506E+02  0.00000000000E+00 0.  1.
         11    1    3    3    0    0 -0.85095332594E+01 -0.26129487409E+01  0.90628661264E+00  0.89476819959E+01  0.51100000000E-03 0. -1.
        -11    1    3    3    0    0 -0.26362431483E+02 -0.21162264633E+02  0.47958551241E+01  0.34144098534E+02  0.51100000000E-03 0.  1.
        -12    1    3    3    0    0 -0.23416214848E+01  0.30709792933E+01  0.26708616996E+01  0.46954879636E+01  0.00000000000E+00 0.  1.
</event>
<event>
 7    1  0.7357971E-011  0.4778727E+02  0.7816164E-02  0.1312668E+00
        -11   -1    0    0    0    0  0.00000000000E+00  0.00000000000E+00  0.45593999997E+02  0.45594000000E+02  0.51100000000E-03 0. -1.
         11   -1    0    0    0    0 -0.00000000000E+00 -0.00000000000E+00 -0.45593999997E+02  0.45594000000E+02  0.51100000000E-03 0.  1.
    9900012    2    1    2    0    0  0.30450367824E+02  0.10406612379E+02  0.29122175980E+02  0.47787267107E+02  0.19999982047E+02 0.  0.
        -12    1    1    2    0    0 -0.30450367824E+02 -0.10406612379E+02 -0.29122175980E+02  0.43400732893E+02  0.00000000000E+00 0.  1.
         11    1    3    3    0    0  0.46084694318E+01  0.95299312997E+00 -0.24685060322E+00  0.47124433038E+01  0.51100000000E-03 0. -1.
        -11    1    3    3    0    0  0.23504782887E+02  0.10514533848E+02  0.30792512509E+02  0.40139868802E+02  0.51100000000E-03 0.  1.
        -12    1    3    3    0    0  0.23371155060E+01 -0.10609145984E+01 -0.14234859262E+01  0.29349550007E+01  0.00000000000E+00 0.  1.
</event>
<event>
 7    1  0.7357971E-011  0.4778729E+02  0.7816164E-02  0.1312668E+00
        -11   -1    0    0    0    0  0.00000000000E+00  0.00000000000E+00  0.45593999997E+02  0.45594000000E+02  0.51100000000E-03 0.  1.
         11   -1    0    0    0    0 -0.00000000000E+00 -0.00000000000E+00 -0.45593999997E+02  0.45594000000E+02  0.51100000000E-03 0. -1.
    9900012    2    1    2    0    0 -0.35733621181E+02 -0.80972598123E+01  0.23262946374E+02  0.47787286029E+02  0.20000068320E+02 0.  0.
        -12    1    1    2    0    0  0.35733621181E+02  0.80972598123E+01 -0.23262946374E+02  0.43400713971E+02  0.00000000000E+00 0.  1.
         11    1    3    3    0    0 -0.52009361266E+01 -0.75562539894E+01  0.48923634125E+01  0.10396246004E+02  0.51100000000E-03 0.  1.
        -11    1    3    3    0    0 -0.18163919394E+02  0.44062553616E+01  0.72846019331E+01  0.20060121626E+02  0.51100000000E-03 0. -1.
         12    1    3    3    0    0 -0.12368765661E+02 -0.49472611845E+01  0.11085981028E+02  0.17330918399E+02  0.00000000000E+00 0. -1.
</event>
<event>
 7    1  0.7357971E-011  0.4778727E+02  0.7816164E-02  0.1312668E+00
        -11   -1    0    0    0    0  0.00000000000E+00  0.00000000000E+00  0.45593999997E+02  0.45594000000E+02  0.51100000000E-03 0.  1.
         11   -1    0    0    0    0 -0.00000000000E+00 -0.00000000000E+00 -0.45593999997E+02  0.45594000000E+02  0.51100000000E-03 0. -1.
    9900012    2    1    2    0    0  0.14884893721E+02 -0.28377929718E+02 -0.29270397556E+02  0.47787272711E+02  0.20000007597E+02 0.  0.
        -12    1    1    2    0    0 -0.14884893721E+02  0.28377929718E+02  0.29270397556E+02  0.43400727289E+02  0.00000000000E+00 0.  1.
         11    1    3    3    0    0  0.97778389775E+01 -0.21657112959E+02 -0.25668698122E+02  0.34978832747E+02  0.51100000000E-03 0. -1.
        -11    1    3    3    0    0  0.24670908247E+01 -0.86611607154E+01 -0.24155996510E+01  0.93240208071E+01  0.51100000000E-03 0.  1.
         12    1    3    3    0    0  0.26399639192E+01  0.19403439568E+01 -0.11860997833E+01  0.34844191569E+01  0.00000000000E+00 0. -1.
</event>
<event>
 7    1  0.7357971E-011  0.4778728E+02  0.7816164E-02  0.1312668E+00
        -11   -1    0    0    0    0  0.00000000000E+00  0.00000000000E+00  0.45593999997E+02  0.45594000000E+02  0.51100000000E-03 0. -1.
         11   -1    0    0    0    0 -0.00000000000E+00 -0.00000000000E+00 -0.45593999997E+02  0.45594000000E+02  0.51100000000E-03 0.  1.
    9900012    2    1    2    0    0  0.33831845697E+02 -0.16300084780E+02 -0.21756284717E+02  0.47787280285E+02  0.20000042131E+02 0.  0.
         12    1    1    2    0    0 -0.33831845697E+02  0.16300084780E+02  0.21756284717E+02  0.43400719715E+02  0.00000000000E+00 0. -1.
         11    1    3    3    0    0  0.10172260526E+01  0.14944185752E+01  0.26801792645E+00  0.18275310093E+01  0.51100000000E-03 0. -1.
        -11    1    3    3    0    0  0.46644101088E+00 -0.29472333272E+01  0.14555374103E+01  0.33199911017E+01  0.51100000000E-03 0.  1.
        -12    1    3    3    0    0  0.32348178634E+02 -0.14847270028E+02 -0.23479840053E+02  0.42639758174E+02  0.00000000000E+00 0.  1.
</event>
<event>
 7    1  0.7357971E-011  0.4778727E+02  0.7816164E-02  0.1312668E+00
        -11   -1    0    0    0    0  0.00000000000E+00  0.00000000000E+00  0.45593999997E+02  0.45594000000E+02  0.51100000000E-03 0. -1.
         11   -1    0    0    0    0 -0.00000000000E+00 -0.00000000000E+00 -0.45593999997E+02  0.45594000000E+02  0.51100000000E-03 0.  1.
    9900012    2    1    2    0    0  0.31293252096E+02  0.10810005959E+02  0.28062415106E+02  0.47787274232E+02  0.20000014535E+02 0.  0.
        -12    1    1    2    0    0 -0.31293252096E+02 -0.10810005959E+02 -0.28062415106E+02  0.43400725768E+02  0.00000000000E+00 0.  1.
         11    1    3    3    0    0  0.83201787505E+01 -0.35298697816E+01  0.99901023848E+01  0.13471729697E+02  0.51100000000E-03 0. -1.
        -11    1    3    3    0    0  0.20425045062E+02  0.16153198617E+02  0.16288114832E+02  0.30714995952E+02  0.51100000000E-03 0.  1.
        -12    1    3    3    0    0  0.25480282837E+01 -0.18133228761E+01  0.17841978896E+01  0.36005485828E+01  0.00000000000E+00 0.  1.
</event>
<event>
 7    1  0.7357971E-011  0.4778727E+02  0.7816164E-02  0.1312668E+00
        -11   -1    0    0    0    0  0.00000000000E+00  0.00000000000E+00  0.45593999997E+02  0.45594000000E+02  0.51100000000E-03 0. -1.
         11   -1    0    0    0    0 -0.00000000000E+00 -0.00000000000E+00 -0.45593999997E+02  0.45594000000E+02  0.51100000000E-03 0.  1.
    9900012    2    1    2    0    0 -0.33354022499E+02  0.18056230092E+02  0.21097510057E+02  0.47787271981E+02  0.20000004268E+02 0.  0.
        -12    1    1    2    0    0  0.33354022499E+02 -0.18056230092E+02 -0.21097510057E+02  0.43400728019E+02  0.00000000000E+00 0.  1.
         11    1    3    3    0    0  0.39623921673E+00 -0.19721158937E+01 -0.33457351220E+00  0.20391631399E+01  0.51100000000E-03 0.  1.
        -11    1    3    3    0    0 -0.27317933031E+02  0.11553951503E+02  0.14207730576E+02  0.32888035344E+02  0.51100000000E-03 0. -1.
        -12    1    3    3    0    0 -0.64323286851E+01  0.84743944831E+01  0.72243529932E+01  0.12860073497E+02  0.00000000000E+00 0.  1.
</event>
<event>
 7    1  0.7357971E-011  0.4778728E+02  0.7816164E-02  0.1312668E+00
        -11   -1    0    0    0    0  0.00000000000E+00  0.00000000000E+00  0.45593999997E+02  0.45594000000E+02  0.51100000000E-03 0. -1.
         11   -1    0    0    0    0 -0.00000000000E+00 -0.00000000000E+00 -0.45593999997E+02  0.45594000000E+02  0.51100000000E-03 0.  1.
    9900012    2    1    2    0    0  0.12090621107E+02  0.23666514175E+02 -0.34312328025E+02  0.47787275738E+02  0.20000021398E+02 0.  0.
         12    1    1    2    0    0 -0.12090621107E+02 -0.23666514175E+02  0.34312328025E+02  0.43400724262E+02  0.00000000000E+00 0. -1.
         11    1    3    3    0    0 -0.17388281642E+01  0.56600329671E+01  0.29650014208E+00  0.59285250415E+01  0.51100000000E-03 0. -1.
        -11    1    3    3    0    0  0.59326211571E+01  0.12734602367E+02 -0.20398153802E+02  0.24767938348E+02  0.51100000000E-03 0.  1.
         12    1    3    3    0    0  0.78968281144E+01  0.52718788415E+01 -0.14210674366E+02  0.17090812348E+02  0.00000000000E+00 0. -1.
</event>
<event>
 7    1  0.7357971E-011  0.4778728E+02  0.7816164E-02  0.1312668E+00
        -11   -1    0    0    0    0  0.00000000000E+00  0.00000000000E+00  0.45593999997E+02  0.45594000000E+02  0.51100000000E-03 0. -1.
         11   -1    0    0    0    0 -0.00000000000E+00 -0.00000000000E+00 -0.45593999997E+02  0.45594000000E+02  0.51100000000E-03 0.  1.
    9900012    2    1    2    0    0 -0.17995801678E+02 -0.57452011612E+01 -0.39073857234E+02  0.47787279573E+02  0.20000038887E+02 0.  0.
         12    1    1    2    0    0  0.17995801678E+02  0.57452011612E+01  0.39073857234E+02  0.43400720427E+02  0.00000000000E+00 0. -1.
         11    1    3    3    0    0 -0.16756046762E+02 -0.28953064591E+01 -0.37120722567E+02  0.40830086294E+02  0.51100000000E-03 0.  1.
        -11    1    3    3    0    0 -0.19047046927E+01  0.65336589147E+00 -0.26456162875E+01  0.33247665717E+01  0.51100000000E-03 0. -1.
         12    1    3    3    0    0  0.66494977682E+00 -0.35032605935E+01  0.69248162092E+00  0.36324267077E+01  0.00000000000E+00 0. -1.
</event>
<event>
 7    1  0.7357971E-011  0.4778726E+02  0.7816164E-02  0.1312668E+00
        -11   -1    0    0    0    0  0.00000000000E+00  0.00000000000E+00  0.45593999997E+02  0.45594000000E+02  0.51100000000E-03 0. -1.
         11   -1    0    0    0    0 -0.00000000000E+00 -0.00000000000E+00 -0.45593999997E+02  0.45594000000E+02  0.51100000000E-03 0.  1.
    9900012    2    1    2    0    0 -0.34247470734E+02  0.19457714929E+01  0.26588507869E+02  0.47787262344E+02  0.19999960332E+02 0.  0.
        -12    1    1    2    0    0  0.34247470734E+02 -0.19457714929E+01 -0.26588507869E+02  0.43400737656E+02  0.00000000000E+00 0.  1.
         11    1    3    3    0    0 -0.99835945129E+01  0.49310411225E+01  0.16229069526E+02  0.19681718012E+02  0.51100000000E-03 0. -1.
        -11    1    3    3    0    0 -0.21243850462E+02 -0.26648790840E+00  0.58518268416E+01  0.22036698389E+02  0.51100000000E-03 0.  1.
         12    1    3    3    0    0 -0.30200257588E+01 -0.27187817213E+01  0.45076115018E+01  0.60688459433E+01  0.00000000000E+00 0. -1.
</event>
<event>
 7    1  0.7357971E-011  0.4778727E+02  0.7816164E-02  0.1312668E+00
        -11   -1    0    0    0    0  0.00000000000E+00  0.00000000000E+00  0.45593999997E+02  0.45594000000E+02  0.51100000000E-03 0.  1.
         11   -1    0    0    0    0 -0.00000000000E+00 -0.00000000000E+00 -0.45593999997E+02  0.45594000000E+02  0.51100000000E-03 0. -1.
    9900012    2    1    2    0    0  0.51823905272E+01  0.34455546457E+02 -0.25876271323E+02  0.47787271080E+02  0.20000000162E+02 0.  0.
         12    1    1    2    0    0 -0.51823905272E+01 -0.34455546457E+02  0.25876271323E+02  0.43400728920E+02  0.00000000000E+00 0. -1.
         11    1    3    3    0    0 -0.19450550337E+01 -0.53247339153E+00 -0.60663750050E+01  0.63927828807E+01  0.51100000000E-03 0. -1.
        -11    1    3    3    0    0  0.72197909369E+01  0.24219918189E+02 -0.16277668897E+02  0.30061475733E+02  0.51100000000E-03 0.  1.
         12    1    3    3    0    0 -0.92345376084E-01  0.10768101659E+02 -0.35322274212E+01  0.11333012466E+02  0.00000000000E+00 0. -1.
</event>
<event>
 7    1  0.7357971E-011  0.4778732E+02  0.7816164E-02  0.1312668E+00
        -11   -1    0    0    0    0  0.00000000000E+00  0.00000000000E+00  0.45593999997E+02  0.45594000000E+02  0.51100000000E-03 0. -1.
         11   -1    0    0    0    0 -0.00000000000E+00 -0.00000000000E+00 -0.45593999997E+02  0.45594000000E+02  0.51100000000E-03 0.  1.
    9900012    2    1    2    0    0 -0.22436478012E+02  0.30629588421E+02 -0.21025030472E+02  0.47787318683E+02  0.20000217203E+02 0.  0.
         12    1    1    2    0    0  0.22436478012E+02 -0.30629588421E+02  0.21025030472E+02  0.43400681317E+02  0.00000000000E+00 0. -1.
         11    1    3    3    0    0 -0.63548083921E+01  0.20509131139E+02 -0.10334306519E+02  0.23828678966E+02  0.51100000000E-03 0. -1.
        -11    1    3    3    0    0 -0.74020093572E+01  0.99800408791E+01 -0.83411715000E+01  0.14965497009E+02  0.51100000000E-03 0.  1.
         12    1    3    3    0    0 -0.86796602623E+01  0.14041640267E+00 -0.23495524531E+01  0.89931427079E+01  0.00000000000E+00 0. -1.
</event>
<event>
 7    1  0.7357971E-011  0.4778729E+02  0.7816164E-02  0.1312668E+00
        -11   -1    0    0    0    0  0.00000000000E+00  0.00000000000E+00  0.45593999997E+02  0.45594000000E+02  0.51100000000E-03 0. -1.
         11   -1    0    0    0    0 -0.00000000000E+00 -0.00000000000E+00 -0.45593999997E+02  0.45594000000E+02  0.51100000000E-03 0.  1.
    9900012    2    1    2    0    0  0.35945742064E+01 -0.15597525700E+02  0.40341267824E+02  0.47787289622E+02  0.20000084701E+02 0.  0.
        -12    1    1    2    0    0 -0.35945742064E+01  0.15597525700E+02 -0.40341267824E+02  0.43400710378E+02  0.00000000000E+00 0.  1.
         11    1    3    3    0    0  0.41632827425E+01 -0.22546119296E+01  0.16747545018E+02  0.17403920896E+02  0.51100000000E-03 0. -1.
        -11    1    3    3    0    0 -0.12689621203E+01 -0.14356221750E+02  0.24784444380E+02  0.28670194476E+02  0.51100000000E-03 0.  1.
        -12    1    3    3    0    0  0.70025358420E+00  0.10133079794E+01 -0.11907215741E+01  0.17131742499E+01  0.00000000000E+00 0.  1.
</event>
<event>
 7    1  0.7357971E-011  0.4778727E+02  0.7816164E-02  0.1312668E+00
        -11   -1    0    0    0    0  0.00000000000E+00  0.00000000000E+00  0.45593999997E+02  0.45594000000E+02  0.51100000000E-03 0. -1.
         11   -1    0    0    0    0 -0.00000000000E+00 -0.00000000000E+00 -0.45593999997E+02  0.45594000000E+02  0.51100000000E-03 0.  1.
    9900012    2    1    2    0    0  0.55830207909E+01  0.19613798904E+02  0.38311255616E+02  0.47787268031E+02  0.19999986259E+02 0.  0.
        -12    1    1    2    0    0 -0.55830207909E+01 -0.19613798904E+02 -0.38311255616E+02  0.43400731969E+02  0.00000000000E+00 0.  1.
         11    1    3    3    0    0  0.81952113038E+00  0.19660305355E+02  0.26088175361E+02  0.32677088540E+02  0.51100000000E-03 0. -1.
        -11    1    3    3    0    0  0.46646502571E+00  0.19708217295E+01  0.93382121649E+01  0.95553092366E+01  0.51100000000E-03 0.  1.
         12    1    3    3    0    0  0.42970346348E+01 -0.20173281807E+01  0.28848680903E+01  0.55548702541E+01  0.00000000000E+00 0. -1.
</event>
<event>
 7    1  0.7357971E-011  0.4778725E+02  0.7816164E-02  0.1312668E+00
        -11   -1    0    0    0    0  0.00000000000E+00  0.00000000000E+00  0.45593999997E+02  0.45594000000E+02  0.51100000000E-03 0. -1.
         11   -1    0    0    0    0 -0.00000000000E+00 -0.00000000000E+00 -0.45593999997E+02  0.45594000000E+02  0.51100000000E-03 0.  1.
    9900012    2    1    2    0    0 -0.19592240253E+02 -0.95927153836E+01  0.37519977244E+02  0.47787253936E+02  0.19999921994E+02 0.  0.
        -12    1    1    2    0    0  0.19592240253E+02  0.95927153836E+01 -0.37519977244E+02  0.43400746064E+02  0.00000000000E+00 0.  1.
         11    1    3    3    0    0 -0.12980064982E+02 -0.13419839163E+02  0.28056051320E+02  0.33700388515E+02  0.51100000000E-03 0. -1.
        -11    1    3    3    0    0 -0.63310140166E+01  0.36598240324E+01  0.10615063754E+02  0.12890136896E+02  0.51100000000E-03 0.  1.
        -12    1    3    3    0    0 -0.28116125448E+00  0.16729974723E+00 -0.11511378308E+01  0.11967285247E+01  0.00000000000E+00 0.  1.
</event>
<event>
 7    1  0.7357971E-011  0.4778727E+02  0.7816164E-02  0.1312668E+00
        -11   -1    0    0    0    0  0.00000000000E+00  0.00000000000E+00  0.45593999997E+02  0.45594000000E+02  0.51100000000E-03 0. -1.
         11   -1    0    0    0    0 -0.00000000000E+00 -0.00000000000E+00 -0.45593999997E+02  0.45594000000E+02  0.51100000000E-03 0.  1.
    9900012    2    1    2    0    0 -0.11143913346E+02 -0.19381487819E+02  0.37199388031E+02  0.47787270229E+02  0.19999996284E+02 0.  0.
        -12    1    1    2    0    0  0.11143913346E+02  0.19381487819E+02 -0.37199388031E+02  0.43400729771E+02  0.00000000000E+00 0.  1.
         11    1    3    3    0    0 -0.10423231807E+02 -0.15281640014E+02  0.19595864345E+02  0.26947545018E+02  0.51100000000E-03 0. -1.
        -11    1    3    3    0    0  0.32053330663E+01  0.15653491962E+01  0.28869113351E+01  0.45889797875E+01  0.51100000000E-03 0.  1.
        -12    1    3    3    0    0 -0.39260146060E+01 -0.56651970015E+01  0.14716612351E+02  0.16250745424E+02  0.00000000000E+00 0.  1.
</event>
<event>
 7    1  0.7357971E-011  0.4778727E+02  0.7816164E-02  0.1312668E+00
        -11   -1    0    0    0    0  0.00000000000E+00  0.00000000000E+00  0.45593999997E+02  0.45594000000E+02  0.51100000000E-03 0. -1.
         11   -1    0    0    0    0 -0.00000000000E+00 -0.00000000000E+00 -0.45593999997E+02  0.45594000000E+02  0.51100000000E-03 0.  1.
    9900012    2    1    2    0    0 -0.33868674992E+01  0.48807250856E+00  0.43265621753E+02  0.47787272911E+02  0.20000008510E+02 0.  0.
        -12    1    1    2    0    0  0.33868674992E+01 -0.48807250856E+00 -0.43265621753E+02  0.43400727089E+02  0.00000000000E+00 0.  1.
         11    1    3    3    0    0  0.16665025042E+00  0.46024552582E+01  0.17639595721E+01  0.49317258990E+01  0.51100000000E-03 0. -1.
        -11    1    3    3    0    0 -0.32572857339E+01 -0.97686908279E+00  0.41238830798E+01  0.53451469086E+01  0.51100000000E-03 0.  1.
         12    1    3    3    0    0 -0.29623201573E+00 -0.31375136668E+01  0.37377779101E+02  0.37510400103E+02  0.00000000000E+00 0. -1.
</event>
<event>
 7    1  0.7357971E-011  0.4778727E+02  0.7816164E-02  0.1312668E+00
        -11   -1    0    0    0    0  0.00000000000E+00  0.00000000000E+00  0.45593999997E+02  0.45594000000E+02  0.51100000000E-03 0. -1.
         11   -1    0    0    0    0 -0.00000000000E+00 -0.00000000000E+00 -0.45593999997E+02  0.45594000000E+02  0.51100000000E-03 0.  1.
    9900012    2    1    2    0    0  0.22822860332E+02  0.18829624531E+02 -0.31751942029E+02  0.47787268020E+02  0.19999986212E+02 0.  0.
         12    1    1    2    0    0 -0.22822860332E+02 -0.18829624531E+02  0.31751942029E+02  0.43400731980E+02  0.00000000000E+00 0. -1.
         11    1    3    3    0    0  0.86738777888E+00  0.65009280211E-01 -0.10467966871E+00  0.87609694648E+00  0.51100000000E-03 0. -1.
        -11    1    3    3    0    0  0.14419563428E+02  0.21915529362E+02 -0.21741562482E+02  0.34072126087E+02  0.51100000000E-03 0.  1.
        -12    1    3    3    0    0  0.75359091254E+01 -0.31509141113E+01 -0.99056998786E+01  0.12839044987E+02  0.00000000000E+00 0.  1.
</event>
<event>
 7    1  0.7357971E-011  0.4778727E+02  0.7816164E-02  0.1312668E+00
        -11   -1    0    0    0    0  0.00000000000E+00  0.00000000000E+00  0.45593999997E+02  0.45594000000E+02  0.51100000000E-03 0. -1.
         11   -1    0    0    0    0 -0.00000000000E+00 -0.00000000000E+00 -0.45593999997E+02  0.45594000000E+02  0.51100000000E-03 0.  1.
    9900012    2    1    2    0    0  0.32611927593E+02 -0.21418197448E+02  0.19009113395E+02  0.47787269646E+02  0.19999993623E+02 0.  0.
        -12    1    1    2    0    0 -0.32611927593E+02  0.21418197448E+02 -0.19009113395E+02  0.43400730354E+02  0.00000000000E+00 0.  1.
         11    1    3    3    0    0  0.17240188811E+02 -0.21116692422E+02  0.71660393582E+01  0.28186715478E+02  0.51100000000E-03 0. -1.
        -11    1    3    3    0    0  0.11024729887E+02  0.71796905122E+00  0.94295560451E+01  0.14525036182E+02  0.51100000000E-03 0.  1.
         12    1    3    3    0    0  0.43470088948E+01 -0.10194740767E+01  0.24135179912E+01  0.50755179852E+01  0.00000000000E+00 0. -1.
</event>
<event>
 7    1  0.7357971E-011  0.4778728E+02  0.7816164E-02  0.1312668E+00
        -11   -1    0    0    0    0  0.00000000000E+00  0.00000000000E+00  0.45593999997E+02  0.45594000000E+02  0.51100000000E-03 0. -1.
         11   -1    0    0    0    0 -0.00000000000E+00 -0.00000000000E+00 -0.45593999997E+02  0.45594000000E+02  0.51100000000E-03 0.  1.
    9900012    2    1    2    0    0 -0.29186873281E+02 -0.15307422400E+02  0.28238841318E+02  0.47787275220E+02  0.20000019039E+02 0.  0.
        -12    1    1    2    0    0  0.29186873281E+02  0.15307422400E+02 -0.28238841318E+02  0.43400724780E+02  0.00000000000E+00 0.  1.
         11    1    3    3    0    0 -0.57183617585E+01 -0.65089031579E+01  0.11691158438E+02  0.14551586423E+02  0.51100000000E-03 0. -1.
        -11    1    3    3    0    0 -0.24357584253E+02 -0.10791437043E+02  0.15282817273E+02  0.30713377023E+02  0.51100000000E-03 0.  1.
        -12    1    3    3    0    0  0.88907273093E+00  0.19929178017E+01  0.12648656073E+01  0.25223117749E+01  0.00000000000E+00 0.  1.
</event>
<event>
 7    1  0.7357971E-011  0.4778728E+02  0.7816164E-02  0.1312668E+00
        -11   -1    0    0    0    0  0.00000000000E+00  0.00000000000E+00  0.45593999997E+02  0.45594000000E+02  0.51100000000E-03 0. -1.
         11   -1    0    0    0    0 -0.00000000000E+00 -0.00000000000E+00 -0.45593999997E+02  0.45594000000E+02  0.51100000000E-03 0.  1.
    9900012    2    1    2    0    0  0.34269845485E+02 -0.23778071465E+02  0.11991817173E+02  0.47787277987E+02  0.20000031652E+02 0.  0.
        -12    1    1    2    0    0 -0.34269845485E+02  0.23778071465E+02 -0.11991817173E+02  0.43400722013E+02  0.00000000000E+00 0.  1.
         11    1    3    3    0    0  0.37440118785E+01 -0.34118936150E+01 -0.49408572063E+01  0.70760662222E+01  0.51100000000E-03 0.  1.
        -11    1    3    3    0    0  0.20834722515E+02 -0.15192480199E+02  0.96565091549E+01  0.27534438186E+02  0.51100000000E-03 0. -1.
        -12    1    3    3    0    0  0.96911110908E+01 -0.51736976515E+01  0.72761652249E+01  0.13176773579E+02  0.00000000000E+00 0.  1.
</event>
<event>
 7    1  0.7357971E-011  0.4778727E+02  0.7816164E-02  0.1312668E+00
        -11   -1    0    0    0    0  0.00000000000E+00  0.00000000000E+00  0.45593999997E+02  0.45594000000E+02  0.51100000000E-03 0. -1.
         11   -1    0    0    0    0 -0.00000000000E+00 -0.00000000000E+00 -0.45593999997E+02  0.45594000000E+02  0.51100000000E-03 0.  1.
    9900012    2    1    2    0    0  0.22434481268E+02 -0.20865520247E+02 -0.30739994843E+02  0.47787272266E+02  0.20000005568E+02 0.  0.
         12    1    1    2    0    0 -0.22434481268E+02  0.20865520247E+02  0.30739994843E+02  0.43400727734E+02  0.00000000000E+00 0. -1.
         11    1    3    3    0    0  0.71336403627E+01  0.26450079430E+01 -0.45927799094E+01  0.88869859570E+01  0.51100000000E-03 0. -1.
        -11    1    3    3    0    0  0.13810926038E+02 -0.23405977792E+02 -0.25518782415E+02  0.37279883726E+02  0.51100000000E-03 0.  1.
        -12    1    3    3    0    0  0.14899148676E+01 -0.10455039782E+00 -0.62843251796E+00  0.16204025821E+01  0.00000000000E+00 0.  1.
</event>
<event>
 7    1  0.7357971E-011  0.4778727E+02  0.7816164E-02  0.1312668E+00
        -11   -1    0    0    0    0  0.00000000000E+00  0.00000000000E+00  0.45593999997E+02  0.45594000000E+02  0.51100000000E-03 0. -1.
         11   -1    0    0    0    0 -0.00000000000E+00 -0.00000000000E+00 -0.45593999997E+02  0.45594000000E+02  0.51100000000E-03 0.  1.
    9900012    2    1    2    0    0  0.37014613632E+02  0.34226945640E+01  0.22401492435E+02  0.47787270470E+02  0.19999997381E+02 0.  0.
        -12    1    1    2    0    0 -0.37014613632E+02 -0.34226945640E+01 -0.22401492435E+02  0.43400729530E+02  0.00000000000E+00 0.  1.
         11    1    3    3    0    0  0.20276875959E+02 -0.23074277369E+01  0.10301342686E+02  0.22860305834E+02  0.51100000000E-03 0. -1.
        -11    1    3    3    0    0  0.98999455944E+01  0.80951748164E+01  0.27093204799E+01  0.13072153449E+02  0.51100000000E-03 0.  1.
        -12    1    3    3    0    0  0.68377920786E+01 -0.23650525155E+01  0.93908292691E+01  0.11854811187E+02  0.00000000000E+00 0.  1.
</event>
<event>
 7    1  0.7357971E-011  0.4778727E+02  0.7816164E-02  0.1312668E+00
        -11   -1    0    0    0    0  0.00000000000E+00  0.00000000000E+00  0.45593999997E+02  0.45594000000E+02  0.51100000000E-03 0. -1.
         11   -1    0    0    0    0 -0.00000000000E+00 -0.00000000000E+00 -0.45593999997E+02  0.45594000000E+02  0.51100000000E-03 0.  1.
    9900012    2    1    2    0    0  0.74950063442E+01  0.30529498389E+02 -0.29923200511E+02  0.47787270504E+02  0.19999997536E+02 0.  0.
         12    1    1    2    0    0 -0.74950063442E+01 -0.30529498389E+02  0.29923200511E+02  0.43400729496E+02  0.00000000000E+00 0. -1.
         11    1    3    3    0    0 -0.43250689550E+01 -0.79518689135E-01 -0.42975712052E+01  0.60976768701E+01  0.51100000000E-03 0. -1.
        -11    1    3    3    0    0  0.91679200558E+01  0.25591520719E+02 -0.21794986113E+02  0.34842475670E+02  0.51100000000E-03 0.  1.
         12    1    3    3    0    0  0.26521552434E+01  0.50174963585E+01 -0.38306431930E+01  0.68471179641E+01  0.00000000000E+00 0. -1.
</event>
<event>
 7    1  0.7357971E-011  0.4778727E+02  0.7816164E-02  0.1312668E+00
        -11   -1    0    0    0    0  0.00000000000E+00  0.00000000000E+00  0.45593999997E+02  0.45594000000E+02  0.51100000000E-03 0. -1.
         11   -1    0    0    0    0 -0.00000000000E+00 -0.00000000000E+00 -0.45593999997E+02  0.45594000000E+02  0.51100000000E-03 0.  1.
    9900012    2    1    2    0    0  0.56594375117E+00 -0.43226012456E+02 -0.38490166484E+01  0.47787269887E+02  0.19999994724E+02 0.  0.
        -12    1    1    2    0    0 -0.56594375117E+00  0.43226012456E+02  0.38490166484E+01  0.43400730113E+02  0.00000000000E+00 0.  1.
         11    1    3    3    0    0  0.22838720767E+01 -0.20526202363E+02 -0.11566093365E+02  0.23670985849E+02  0.51100000000E-03 0. -1.
        -11    1    3    3    0    0 -0.13749048681E+01 -0.11005629232E+02  0.28989205846E+01  0.11463768098E+02  0.51100000000E-03 0.  1.
         12    1    3    3    0    0 -0.34302345746E+00 -0.11694180861E+02  0.48181561317E+01  0.12652515940E+02  0.00000000000E+00 0. -1.
</event>
<event>
 7    1  0.7357971E-011  0.4778727E+02  0.7816164E-02  0.1312668E+00
        -11   -1    0    0    0    0  0.00000000000E+00  0.00000000000E+00  0.45593999997E+02  0.45594000000E+02  0.51100000000E-03 0. -1.
         11   -1    0    0    0    0 -0.00000000000E+00 -0.00000000000E+00 -0.45593999997E+02  0.45594000000E+02  0.51100000000E-03 0.  1.
    9900012    2    1    2    0    0  0.22841670768E+02  0.27265292929E+02 -0.24869358165E+02  0.47787273076E+02  0.20000009264E+02 0.  0.
         12    1    1    2    0    0 -0.22841670768E+02 -0.27265292929E+02  0.24869358165E+02  0.43400726924E+02  0.00000000000E+00 0. -1.
         11    1    3    3    0    0  0.39847878460E+01 -0.33141214378E+00 -0.15924142207E+00  0.40017154170E+01  0.51100000000E-03 0. -1.
        -11    1    3    3    0    0  0.11831923362E+02  0.23988274168E+02 -0.13202107957E+02  0.29828298020E+02  0.51100000000E-03 0.  1.
        -12    1    3    3    0    0  0.70249595602E+01  0.36084309043E+01 -0.11508008786E+02  0.13957259639E+02  0.00000000000E+00 0.  1.
</event>
<event>
 7    1  0.7357971E-011  0.4778727E+02  0.7816164E-02  0.1312668E+00
        -11   -1    0    0    0    0  0.00000000000E+00  0.00000000000E+00  0.45593999997E+02  0.45594000000E+02  0.51100000000E-03 0. -1.
         11   -1    0    0    0    0 -0.00000000000E+00 -0.00000000000E+00 -0.45593999997E+02  0.45594000000E+02  0.51100000000E-03 0.  1.
    9900012    2    1    2    0    0  0.54517572621E+00 -0.28324402416E+02 -0.32879392079E+02  0.47787269450E+02  0.19999992730E+02 0.  0.
         12    1    1    2    0    0 -0.54517572621E+00  0.28324402416E+02  0.32879392079E+02  0.43400730550E+02  0.00000000000E+00 0. -1.
         11    1    3    3    0    0  0.48580392069E+01 -0.32168014175E+01 -0.93952419530E+01  0.11055266976E+02  0.51100000000E-03 0. -1.
        -11    1    3    3    0    0 -0.35047709881E+01 -0.25500423815E+02 -0.18577977881E+02  0.31744232497E+02  0.51100000000E-03 0.  1.
        -12    1    3    3    0    0 -0.80809249255E+00  0.39282281650E+00 -0.49061722455E+01  0.49877699770E+01  0.00000000000E+00 0.  1.
</event>
<event>
 7    1  0.7357971E-011  0.4778727E+02  0.7816164E-02  0.1312668E+00
        -11   -1    0    0    0    0  0.00000000000E+00  0.00000000000E+00  0.45593999997E+02  0.45594000000E+02  0.51100000000E-03 0. -1.
         11   -1    0    0    0    0 -0.00000000000E+00 -0.00000000000E+00 -0.45593999997E+02  0.45594000000E+02  0.51100000000E-03 0.  1.
    9900012    2    1    2    0    0 -0.83584997600E+01  0.15860673955E+02 -0.39524649537E+02  0.47787269389E+02  0.19999992453E+02 0.  0.
         12    1    1    2    0    0  0.83584997600E+01 -0.15860673955E+02  0.39524649537E+02  0.43400730611E+02  0.00000000000E+00 0. -1.
         11    1    3    3    0    0  0.24755975245E+01 -0.11649736301E+00 -0.41631901843E+01  0.48450291548E+01  0.51100000000E-03 0. -1.
        -11    1    3    3    0    0 -0.33020308462E+01  0.12346238400E+02 -0.30957558170E+02  0.33491841073E+02  0.51100000000E-03 0.  1.
        -12    1    3    3    0    0 -0.75320664383E+01  0.36309329188E+01 -0.44039011823E+01  0.94503991617E+01  0.00000000000E+00 0.  1.
</event>
<event>
 7    1  0.7357971E-011  0.4778727E+02  0.7816164E-02  0.1312668E+00
        -11   -1    0    0    0    0  0.00000000000E+00  0.00000000000E+00  0.45593999997E+02  0.45594000000E+02  0.51100000000E-03 0. -1.
         11   -1    0    0    0    0 -0.00000000000E+00 -0.00000000000E+00 -0.45593999997E+02  0.45594000000E+02  0.51100000000E-03 0.  1.
    9900012    2    1    2    0    0 -0.26645510562E+02  0.27686855796E+02  0.20176179500E+02  0.47787269175E+02  0.19999991475E+02 0.  0.
        -12    1    1    2    0    0  0.26645510562E+02 -0.27686855796E+02 -0.20176179500E+02  0.43400730825E+02  0.00000000000E+00 0.  1.
         11    1    3    3    0    0 -0.99962165182E+01  0.12479879498E+01  0.90039172007E+01  0.13511193279E+02  0.51100000000E-03 0. -1.
        -11    1    3    3    0    0 -0.25370611297E+01  0.10377805089E+02  0.14223120562E+01  0.10777684792E+02  0.51100000000E-03 0.  1.
         12    1    3    3    0    0 -0.14112232914E+02  0.16061062757E+02  0.97499502430E+01  0.23498391103E+02  0.00000000000E+00 0. -1.
</event>
<event>
 7    1  0.7357971E-011  0.4778727E+02  0.7816164E-02  0.1312668E+00
        -11   -1    0    0    0    0  0.00000000000E+00  0.00000000000E+00  0.45593999997E+02  0.45594000000E+02  0.51100000000E-03 0. -1.
         11   -1    0    0    0    0 -0.00000000000E+00 -0.00000000000E+00 -0.45593999997E+02  0.45594000000E+02  0.51100000000E-03 0.  1.
    9900012    2    1    2    0    0 -0.17166302353E+02 -0.59469482915E+01  0.39415416412E+02  0.47787272110E+02  0.20000004857E+02 0.  0.
        -12    1    1    2    0    0  0.17166302353E+02  0.59469482915E+01 -0.39415416412E+02  0.43400727890E+02  0.00000000000E+00 0.  1.
         11    1    3    3    0    0 -0.41422015863E+01  0.28672250870E+01  0.45555748148E+01  0.67920597638E+01  0.51100000000E-03 0. -1.
        -11    1    3    3    0    0 -0.12356905263E+02 -0.91077047325E+01  0.16187723727E+02  0.22308872515E+02  0.51100000000E-03 0.  1.
        -12    1    3    3    0    0 -0.66719550307E+00  0.29353135397E+00  0.18672117871E+02  0.18686339831E+02  0.00000000000E+00 0.  1.
</event>
<event>
 7    1  0.7357971E-011  0.4778727E+02  0.7816164E-02  0.1312668E+00
        -11   -1    0    0    0    0  0.00000000000E+00  0.00000000000E+00  0.45593999997E+02  0.45594000000E+02  0.51100000000E-03 0. -1.
         11   -1    0    0    0    0 -0.00000000000E+00 -0.00000000000E+00 -0.45593999997E+02  0.45594000000E+02  0.51100000000E-03 0.  1.
    9900012    2    1    2    0    0 -0.29407615379E+02 -0.12934800162E+02  0.29180582070E+02  0.47787271118E+02  0.20000000337E+02 0.  0.
        -12    1    1    2    0    0  0.29407615379E+02  0.12934800162E+02 -0.29180582070E+02  0.43400728882E+02  0.00000000000E+00 0.  1.
         11    1    3    3    0    0 -0.10964268032E+02 -0.42348706949E+01  0.90499814526E+01  0.14834131853E+02  0.51100000000E-03 0. -1.
        -11    1    3    3    0    0 -0.12331959766E+02  0.15726524406E+01  0.43807127634E+01  0.13181089179E+02  0.51100000000E-03 0.  1.
        -12    1    3    3    0    0 -0.61113875817E+01 -0.10272581908E+02  0.15749887853E+02  0.19772050087E+02  0.00000000000E+00 0.  1.
</event>
<event>
 7    1  0.7357971E-011  0.4778727E+02  0.7816164E-02  0.1312668E+00
        -11   -1    0    0    0    0  0.00000000000E+00  0.00000000000E+00  0.45593999997E+02  0.45594000000E+02  0.51100000000E-03 0. -1.
         11   -1    0    0    0    0 -0.00000000000E+00 -0.00000000000E+00 -0.45593999997E+02  0.45594000000E+02  0.51100000000E-03 0.  1.
    9900012    2    1    2    0    0 -0.37497789998E+01  0.34626220807E+02  0.25895700596E+02  0.47787270521E+02  0.19999997614E+02 0.  0.
        -12    1    1    2    0    0  0.37497789998E+01 -0.34626220807E+02 -0.25895700596E+02  0.43400729479E+02  0.00000000000E+00 0.  1.
         11    1    3    3    0    0 -0.69063702214E+01  0.88964066711E+01  0.79348219568E+00  0.11290421407E+02  0.51100000000E-03 0. -1.
        -11    1    3    3    0    0  0.22977168958E+00  0.15320596599E+02  0.17605473739E+02  0.23339369764E+02  0.51100000000E-03 0.  1.
        -12    1    3    3    0    0  0.29268195319E+01  0.10409217537E+02  0.74967446621E+01  0.13157479350E+02  0.00000000000E+00 0.  1.
</event>
<event>
 7    1  0.7357971E-011  0.4778727E+02  0.7816164E-02  0.1312668E+00
        -11   -1    0    0    0    0  0.00000000000E+00  0.00000000000E+00  0.45593999997E+02  0.45594000000E+02  0.51100000000E-03 0. -1.
         11   -1    0    0    0    0 -0.00000000000E+00 -0.00000000000E+00 -0.45593999997E+02  0.45594000000E+02  0.51100000000E-03 0.  1.
    9900012    2    1    2    0    0 -0.30855779061E+01 -0.39264668999E+02  0.18231512752E+02  0.47787273280E+02  0.20000010193E+02 0.  0.
        -12    1    1    2    0    0  0.30855779061E+01  0.39264668999E+02 -0.18231512752E+02  0.43400726720E+02  0.00000000000E+00 0.  1.
         11    1    3    3    0    0  0.58004990623E-01 -0.29935462078E+02  0.10768236226E+02  0.31813364583E+02  0.51100000000E-03 0. -1.
        -11    1    3    3    0    0 -0.29983177761E+01 -0.11518872546E+02  0.59399565285E+01  0.13302534272E+02  0.51100000000E-03 0.  1.
         12    1    3    3    0    0 -0.14526512061E+00  0.21896656256E+01  0.15233199974E+01  0.26713744256E+01  0.00000000000E+00 0. -1.
</event>
<event>
 7    1  0.8112406E-011  0.4778727E+02  0.7816164E-02  0.1312668E+00
        -11   -1    0    0    0    0  0.00000000000E+00  0.00000000000E+00  0.45593999997E+02  0.45594000000E+02  0.51100000000E-03 0. -1.
         11   -1    0    0    0    0 -0.00000000000E+00 -0.00000000000E+00 -0.45593999997E+02  0.45594000000E+02  0.51100000000E-03 0.  1.
    9900012    2    1    2    0    0  0.50769686369E+01 -0.14237577917E+02  0.40683399140E+02  0.47787271883E+02  0.20000003822E+02 0.  0.
        -12    1    1    2    0    0 -0.50769686369E+01  0.14237577917E+02 -0.40683399140E+02  0.43400728117E+02  0.00000000000E+00 0.  1.
         11    1    3    3    0    0  0.50096128201E+01  0.25533937751E+01  0.48722381058E+01  0.74400769350E+01  0.51100000000E-03 0. -1.
        -11    1    3    3    0    0 -0.92925958687E+00 -0.14696123370E+00  0.11372031637E+00  0.94765687644E+00  0.51100000000E-03 0.  1.
         12    1    3    3    0    0  0.99661540372E+00 -0.16644010459E+02  0.35697440718E+02  0.39399538071E+02  0.00000000000E+00 0. -1.
</event>
<event>
 7    1  0.7357971E-011  0.4778727E+02  0.7816164E-02  0.1312668E+00
        -11   -1    0    0    0    0  0.00000000000E+00  0.00000000000E+00  0.45593999997E+02  0.45594000000E+02  0.51100000000E-03 0. -1.
         11   -1    0    0    0    0 -0.00000000000E+00 -0.00000000000E+00 -0.45593999997E+02  0.45594000000E+02  0.51100000000E-03 0.  1.
    9900012    2    1    2    0    0  0.19094424022E+02  0.15050718355E+01  0.38945611866E+02  0.47787274734E+02  0.20000016823E+02 0.  0.
        -12    1    1    2    0    0 -0.19094424022E+02 -0.15050718355E+01 -0.38945611866E+02  0.43400725266E+02  0.00000000000E+00 0.  1.
         11    1    3    3    0    0  0.94909576705E+01 -0.33715718403E+01  0.31703460727E+02  0.33264924418E+02  0.51100000000E-03 0. -1.
        -11    1    3    3    0    0  0.16635674940E+01  0.24024421059E+01 -0.71926788791E+00  0.30094071567E+01  0.51100000000E-03 0.  1.
        -12    1    3    3    0    0  0.79398988574E+01  0.24742015699E+01  0.79614190267E+01  0.11512943159E+02  0.00000000000E+00 0.  1.
</event>
<event>
 7    1  0.7357971E-011  0.4778727E+02  0.7816164E-02  0.1312668E+00
        -11   -1    0    0    0    0  0.00000000000E+00  0.00000000000E+00  0.45593999997E+02  0.45594000000E+02  0.51100000000E-03 0. -1.
         11   -1    0    0    0    0 -0.00000000000E+00 -0.00000000000E+00 -0.45593999997E+02  0.45594000000E+02  0.51100000000E-03 0.  1.
    9900012    2    1    2    0    0 -0.24899367897E+01  0.20549962754E+02 -0.38146064373E+02  0.47787274412E+02  0.20000015354E+02 0.  0.
         12    1    1    2    0    0  0.24899367897E+01 -0.20549962754E+02  0.38146064373E+02  0.43400725588E+02  0.00000000000E+00 0. -1.
         11    1    3    3    0    0 -0.10832412489E+02  0.88067284492E+01 -0.18822304668E+02  0.23434563781E+02  0.51100000000E-03 0. -1.
        -11    1    3    3    0    0  0.54703676316E+01  0.93678130052E+01 -0.16162077470E+02  0.19465189209E+02  0.51100000000E-03 0.  1.
         12    1    3    3    0    0  0.28721080674E+01  0.23754212999E+01 -0.31616822351E+01  0.48875214228E+01  0.00000000000E+00 0. -1.
</event>
<event>
 7    1  0.7357971E-011  0.4778727E+02  0.7816164E-02  0.1312668E+00
        -11   -1    0    0    0    0  0.00000000000E+00  0.00000000000E+00  0.45593999997E+02  0.45594000000E+02  0.51100000000E-03 0. -1.
         11   -1    0    0    0    0 -0.00000000000E+00 -0.00000000000E+00 -0.45593999997E+02  0.45594000000E+02  0.51100000000E-03 0.  1.
    9900012    2    1    2    0    0  0.29901175718E+02 -0.12933545835E+02 -0.28675190528E+02  0.47787268797E+02  0.19999989751E+02 0.  0.
         12    1    1    2    0    0 -0.29901175718E+02  0.12933545835E+02  0.28675190528E+02  0.43400731203E+02  0.00000000000E+00 0. -1.
         11    1    3    3    0    0  0.53628120688E+01  0.35627743463E+01 -0.25595917891E+01  0.69285369824E+01  0.51100000000E-03 0. -1.
        -11    1    3    3    0    0  0.29028950568E+01  0.12918992638E+01 -0.43498448799E+01  0.53867387313E+01  0.51100000000E-03 0.  1.
         12    1    3    3    0    0  0.21635468592E+02 -0.17788219445E+02 -0.21765753859E+02  0.35471993083E+02  0.00000000000E+00 0. -1.
</event>
<event>
 7    1  0.7357971E-011  0.4778727E+02  0.7816164E-02  0.1312668E+00
        -11   -1    0    0    0    0  0.00000000000E+00  0.00000000000E+00  0.45593999997E+02  0.45594000000E+02  0.51100000000E-03 0. -1.
         11   -1    0    0    0    0 -0.00000000000E+00 -0.00000000000E+00 -0.45593999997E+02  0.45594000000E+02  0.51100000000E-03 0.  1.
    9900012    2    1    2    0    0  0.40637265911E+02 -0.96054563729E+01 -0.11830942500E+02  0.47787269899E+02  0.19999994779E+02 0.  0.
         12    1    1    2    0    0 -0.40637265911E+02  0.96054563729E+01  0.11830942500E+02  0.43400730101E+02  0.00000000000E+00 0. -1.
         11    1    3    3    0    0  0.23272779437E+01  0.53580348062E+00 -0.47344215897E+01  0.53026461363E+01  0.51100000000E-03 0.  1.
        -11    1    3    3    0    0  0.12976882632E+02 -0.41916984578E+01  0.39754765151E+01  0.14204725714E+02  0.51100000000E-03 0. -1.
        -12    1    3    3    0    0  0.25333105335E+02 -0.59495613957E+01 -0.11071997425E+02  0.28279898049E+02  0.00000000000E+00 0.  1.
</event>
<event>
 7    1  0.7357971E-011  0.4778728E+02  0.7816164E-02  0.1312668E+00
        -11   -1    0    0    0    0  0.00000000000E+00  0.00000000000E+00  0.45593999997E+02  0.45594000000E+02  0.51100000000E-03 0. -1.
         11   -1    0    0    0    0 -0.00000000000E+00 -0.00000000000E+00 -0.45593999997E+02  0.45594000000E+02  0.51100000000E-03 0.  1.
    9900012    2    1    2    0    0  0.11345960202E+02  0.27025091639E+02 -0.32008378264E+02  0.47787278000E+02  0.20000031713E+02 0.  0.
         12    1    1    2    0    0 -0.11345960202E+02 -0.27025091639E+02  0.32008378264E+02  0.43400722000E+02  0.00000000000E+00 0. -1.
         11    1    3    3    0    0  0.51896993986E+01  0.20551845994E+02 -0.20827448840E+02  0.29716897197E+02  0.51100000000E-03 0.  1.
        -11    1    3    3    0    0  0.71366697492E+00 -0.11848975831E+00  0.21308226971E+01  0.22502813161E+01  0.51100000000E-03 0. -1.
        -12    1    3    3    0    0  0.54425938288E+01  0.65917354036E+01 -0.13311752122E+02  0.15820099487E+02  0.00000000000E+00 0.  1.
</event>
<event>
 7    1  0.7357971E-011  0.4778725E+02  0.7816164E-02  0.1312668E+00
        -11   -1    0    0    0    0  0.00000000000E+00  0.00000000000E+00  0.45593999997E+02  0.45594000000E+02  0.51100000000E-03 0. -1.
         11   -1    0    0    0    0 -0.00000000000E+00 -0.00000000000E+00 -0.45593999997E+02  0.45594000000E+02  0.51100000000E-03 0.  1.
    9900012    2    1    2    0    0  0.17248272950E+01  0.10907122959E+02  0.41972425914E+02  0.47787252339E+02  0.19999914713E+02 0.  0.
        -12    1    1    2    0    0 -0.17248272950E+01 -0.10907122959E+02 -0.41972425914E+02  0.43400747661E+02  0.00000000000E+00 0.  1.
         11    1    3    3    0    0  0.33965717327E+01 -0.32898804403E+01  0.25465091989E+02  0.25900403918E+02  0.51100000000E-03 0. -1.
        -11    1    3    3    0    0 -0.58774038282E+00  0.91130499842E+01  0.11304233878E+02  0.14531993071E+02  0.51100000000E-03 0.  1.
         12    1    3    3    0    0 -0.10840040549E+01  0.50839534153E+01  0.52031000465E+01  0.73548553496E+01  0.00000000000E+00 0. -1.
</event>
<event>
 7    1  0.7357971E-011  0.4778726E+02  0.7816164E-02  0.1312668E+00
        -11   -1    0    0    0    0  0.00000000000E+00  0.00000000000E+00  0.45593999997E+02  0.45594000000E+02  0.51100000000E-03 0. -1.
         11   -1    0    0    0    0 -0.00000000000E+00 -0.00000000000E+00 -0.45593999997E+02  0.45594000000E+02  0.51100000000E-03 0.  1.
    9900012    2    1    2    0    0  0.21285173836E+02 -0.25088443867E+02 -0.28304338043E+02  0.47787260456E+02  0.19999951724E+02 0.  0.
         12    1    1    2    0    0 -0.21285173836E+02  0.25088443867E+02  0.28304338043E+02  0.43400739544E+02  0.00000000000E+00 0. -1.
         11    1    3    3    0    0  0.14402268174E+02 -0.56999200664E+01 -0.12147490177E+02  0.19684408428E+02  0.51100000000E-03 0. -1.
        -11    1    3    3    0    0  0.32201669774E+01 -0.10202266279E+02 -0.14586718885E+02  0.18089446666E+02  0.51100000000E-03 0.  1.
         12    1    3    3    0    0  0.36627386852E+01 -0.91862575218E+01 -0.15701289809E+01  0.10013405362E+02  0.00000000000E+00 0. -1.
</event>
<event>
 7    1  0.7357971E-011  0.4778727E+02  0.7816164E-02  0.1312668E+00
        -11   -1    0    0    0    0  0.00000000000E+00  0.00000000000E+00  0.45593999997E+02  0.45594000000E+02  0.51100000000E-03 0. -1.
         11   -1    0    0    0    0 -0.00000000000E+00 -0.00000000000E+00 -0.45593999997E+02  0.45594000000E+02  0.51100000000E-03 0.  1.
    9900012    2    1    2    0    0  0.25084772975E+02 -0.12845993516E+02  0.33005420171E+02  0.47787272526E+02  0.20000006755E+02 0.  0.
        -12    1    1    2    0    0 -0.25084772975E+02  0.12845993516E+02 -0.33005420171E+02  0.43400727474E+02  0.00000000000E+00 0.  1.
         11    1    3    3    0    0  0.19457801262E+02 -0.45314643826E+01  0.22266078460E+02  0.29915187608E+02  0.51100000000E-03 0. -1.
        -11    1    3    3    0    0 -0.28156344279E+01 -0.28017602540E+01  0.45545631760E+01  0.60433189340E+01  0.51100000000E-03 0.  1.
         12    1    3    3    0    0  0.84426061410E+01 -0.55127688794E+01  0.61847785351E+01  0.11828765984E+02  0.00000000000E+00 0. -1.
</event>
<event>
 7    1  0.7357971E-011  0.4778727E+02  0.7816164E-02  0.1312668E+00
        -11   -1    0    0    0    0  0.00000000000E+00  0.00000000000E+00  0.45593999997E+02  0.45594000000E+02  0.51100000000E-03 0. -1.
         11   -1    0    0    0    0 -0.00000000000E+00 -0.00000000000E+00 -0.45593999997E+02  0.45594000000E+02  0.51100000000E-03 0.  1.
    9900012    2    1    2    0    0  0.38438415024E+02 -0.19546215992E+02  0.49048004283E+01  0.47787269863E+02  0.19999994616E+02 0.  0.
        -12    1    1    2    0    0 -0.38438415024E+02  0.19546215992E+02 -0.49048004283E+01  0.43400730137E+02  0.00000000000E+00 0.  1.
         11    1    3    3    0    0  0.20912384124E+01 -0.47839517901E+00  0.37835897715E+01  0.43494473057E+01  0.51100000000E-03 0. -1.
        -11    1    3    3    0    0  0.20532240085E+02 -0.17949860868E+02 -0.17387822367E+01  0.27327527368E+02  0.51100000000E-03 0.  1.
        -12    1    3    3    0    0  0.15814936526E+02 -0.11179599449E+01  0.28599928935E+01  0.16110295190E+02  0.00000000000E+00 0.  1.
</event>
<event>
 7    1  0.7357971E-011  0.4778726E+02  0.7816164E-02  0.1312668E+00
        -11   -1    0    0    0    0  0.00000000000E+00  0.00000000000E+00  0.45593999997E+02  0.45594000000E+02  0.51100000000E-03 0. -1.
         11   -1    0    0    0    0 -0.00000000000E+00 -0.00000000000E+00 -0.45593999997E+02  0.45594000000E+02  0.51100000000E-03 0.  1.
    9900012    2    1    2    0    0  0.10552723516E+02  0.98233866113E+01  0.40936113872E+02  0.47787259026E+02  0.19999945204E+02 0.  0.
        -12    1    1    2    0    0 -0.10552723516E+02 -0.98233866113E+01 -0.40936113872E+02  0.43400740974E+02  0.00000000000E+00 0.  1.
         11    1    3    3    0    0  0.35926598992E+01  0.75907417817E+01  0.27123859433E+02  0.28394195124E+02  0.51100000000E-03 0. -1.
        -11    1    3    3    0    0  0.20438011615E+00 -0.37444076173E+01  0.13011292640E+01  0.39692943024E+01  0.51100000000E-03 0.  1.
        -12    1    3    3    0    0  0.67556835012E+01  0.59770524468E+01  0.12511125175E+02  0.15423769599E+02  0.00000000000E+00 0.  1.
</event>
<event>
 7    1  0.7357971E-011  0.4778727E+02  0.7816164E-02  0.1312668E+00
        -11   -1    0    0    0    0  0.00000000000E+00  0.00000000000E+00  0.45593999997E+02  0.45594000000E+02  0.51100000000E-03 0. -1.
         11   -1    0    0    0    0 -0.00000000000E+00 -0.00000000000E+00 -0.45593999997E+02  0.45594000000E+02  0.51100000000E-03 0.  1.
    9900012    2    1    2    0    0  0.34105635139E+02  0.66100097620E+01 -0.26014160867E+02  0.47787272553E+02  0.20000006879E+02 0.  0.
         12    1    1    2    0    0 -0.34105635139E+02 -0.66100097620E+01  0.26014160867E+02  0.43400727447E+02  0.00000000000E+00 0. -1.
         11    1    3    3    0    0  0.29323761833E+01 -0.44000511261E+01 -0.93771747958E+01  0.10765253708E+02  0.51100000000E-03 0. -1.
        -11    1    3    3    0    0  0.24297025890E+02  0.85947142243E+01 -0.13392733648E+02  0.29044446879E+02  0.51100000000E-03 0.  1.
         12    1    3    3    0    0  0.68762330664E+01  0.24153466638E+01 -0.32442524229E+01  0.79775719660E+01  0.00000000000E+00 0. -1.
</event>
<event>
 7    1  0.7357971E-011  0.4778727E+02  0.7816164E-02  0.1312668E+00
        -11   -1    0    0    0    0  0.00000000000E+00  0.00000000000E+00  0.45593999997E+02  0.45594000000E+02  0.51100000000E-03 0. -1.
         11   -1    0    0    0    0 -0.00000000000E+00 -0.00000000000E+00 -0.45593999997E+02  0.45594000000E+02  0.51100000000E-03 0.  1.
    9900012    2    1    2    0    0 -0.84999251525E+01 -0.24224996554E+02  0.34993203464E+02  0.47787268736E+02  0.19999989473E+02 0.  0.
        -12    1    1    2    0    0  0.84999251525E+01  0.24224996554E+02 -0.34993203464E+02  0.43400731264E+02  0.00000000000E+00 0.  1.
         11    1    3    3    0    0 -0.53984191734E+01 -0.69869974809E+01  0.84017549713E+01  0.12188131531E+02  0.51100000000E-03 0. -1.
        -11    1    3    3    0    0 -0.85036737803E+01 -0.16000358450E+02  0.20714406095E+02  0.27521092972E+02  0.51100000000E-03 0.  1.
        -12    1    3    3    0    0  0.54021678012E+01 -0.12376406232E+01  0.58770423977E+01  0.80780442317E+01  0.00000000000E+00 0.  1.
</event>
<event>
 7    1  0.7357971E-011  0.4778727E+02  0.7816164E-02  0.1312668E+00
        -11   -1    0    0    0    0  0.00000000000E+00  0.00000000000E+00  0.45593999997E+02  0.45594000000E+02  0.51100000000E-03 0. -1.
         11   -1    0    0    0    0 -0.00000000000E+00 -0.00000000000E+00 -0.45593999997E+02  0.45594000000E+02  0.51100000000E-03 0.  1.
    9900012    2    1    2    0    0 -0.27454562109E+02 -0.56183785479E+01  0.33140670285E+02  0.47787272068E+02  0.20000004668E+02 0.  0.
        -12    1    1    2    0    0  0.27454562109E+02  0.56183785479E+01 -0.33140670285E+02  0.43400727932E+02  0.00000000000E+00 0.  1.
         11    1    3    3    0    0 -0.18744778891E+02 -0.37504811268E+01  0.33792431833E+02  0.38824751046E+02  0.51100000000E-03 0. -1.
        -11    1    3    3    0    0 -0.64811203858E+01 -0.10619600980E+01 -0.54723666290E+00  0.65903071955E+01  0.51100000000E-03 0.  1.
         12    1    3    3    0    0 -0.22286628322E+01 -0.80593732314E+00 -0.10452488504E+00  0.23722138268E+01  0.00000000000E+00 0. -1.
</event>
<event>
 7    1  0.7357971E-011  0.4778728E+02  0.7816164E-02  0.1312668E+00
        -11   -1    0    0    0    0  0.00000000000E+00  0.00000000000E+00  0.45593999997E+02  0.45594000000E+02  0.51100000000E-03 0. -1.
         11   -1    0    0    0    0 -0.00000000000E+00 -0.00000000000E+00 -0.45593999997E+02  0.45594000000E+02  0.51100000000E-03 0.  1.
    9900012    2    1    2    0    0  0.35617063975E+02  0.13682737693E+02  0.20684059969E+02  0.47787275423E+02  0.20000019965E+02 0.  0.
        -12    1    1    2    0    0 -0.35617063975E+02 -0.13682737693E+02 -0.20684059969E+02  0.43400724577E+02  0.00000000000E+00 0.  1.
         11    1    3    3    0    0  0.12596559825E+02  0.77477534855E+01  0.10180128624E+02  0.17953718906E+02  0.51100000000E-03 0. -1.
        -11    1    3    3    0    0  0.22498004923E+02  0.74763150974E+00  0.98784349099E+01  0.24582568111E+02  0.51100000000E-03 0.  1.
        -12    1    3    3    0    0  0.52249922681E+00  0.51873526976E+01  0.62549643489E+00  0.52509884062E+01  0.00000000000E+00 0.  1.
</event>
<event>
 7    1  0.7357971E-011  0.4778727E+02  0.7816164E-02  0.1312668E+00
        -11   -1    0    0    0    0  0.00000000000E+00  0.00000000000E+00  0.45593999997E+02  0.45594000000E+02  0.51100000000E-03 0. -1.
         11   -1    0    0    0    0 -0.00000000000E+00 -0.00000000000E+00 -0.45593999997E+02  0.45594000000E+02  0.51100000000E-03 0.  1.
    9900012    2    1    2    0    0 -0.27385040153E+01  0.10693539777E+02 -0.41973468514E+02  0.47787271247E+02  0.20000000925E+02 0.  0.
         12    1    1    2    0    0  0.27385040153E+01 -0.10693539777E+02  0.41973468514E+02  0.43400728753E+02  0.00000000000E+00 0. -1.
         11    1    3    3    0    0  0.55983409980E+01  0.18550323155E+01 -0.48672225067E+01  0.76467262284E+01  0.51100000000E-03 0. -1.
        -11    1    3    3    0    0 -0.68057871238E+01  0.84296379883E+01 -0.36998552374E+02  0.38552177799E+02  0.51100000000E-03 0.  1.
        -12    1    3    3    0    0 -0.15310578895E+01  0.40886947284E+00 -0.10769363257E+00  0.15883672200E+01  0.00000000000E+00 0.  1.
</event>
<event>
 7    1  0.7357971E-011  0.4778727E+02  0.7816164E-02  0.1312668E+00
        -11   -1    0    0    0    0  0.00000000000E+00  0.00000000000E+00  0.45593999997E+02  0.45594000000E+02  0.51100000000E-03 0. -1.
         11   -1    0    0    0    0 -0.00000000000E+00 -0.00000000000E+00 -0.45593999997E+02  0.45594000000E+02  0.51100000000E-03 0.  1.
    9900012    2    1    2    0    0  0.38518934941E+02 -0.68908291225E+01 -0.18773159027E+02  0.47787269881E+02  0.19999994696E+02 0.  0.
         12    1    1    2    0    0 -0.38518934941E+02  0.68908291225E+01  0.18773159027E+02  0.43400730119E+02  0.00000000000E+00 0. -1.
         11    1    3    3    0    0  0.49868615974E+01  0.57810796847E+01 -0.30429881090E+01  0.82188471093E+01  0.51100000000E-03 0. -1.
        -11    1    3    3    0    0  0.13973084700E+02 -0.50043477588E+01 -0.96295480706E+01  0.17692337009E+02  0.51100000000E-03 0.  1.
         12    1    3    3    0    0  0.19558988644E+02 -0.76675610483E+01 -0.61006228470E+01  0.21876085763E+02  0.00000000000E+00 0. -1.
</event>
<event>
 7    1  0.7357971E-011  0.4778727E+02  0.7816164E-02  0.1312668E+00
        -11   -1    0    0    0    0  0.00000000000E+00  0.00000000000E+00  0.45593999997E+02  0.45594000000E+02  0.51100000000E-03 0. -1.
         11   -1    0    0    0    0 -0.00000000000E+00 -0.00000000000E+00 -0.45593999997E+02  0.45594000000E+02  0.51100000000E-03 0.  1.
    9900012    2    1    2    0    0  0.32048278600E+02 -0.14328923973E+02 -0.25518875702E+02  0.47787271429E+02  0.20000001751E+02 0.  0.
         12    1    1    2    0    0 -0.32048278600E+02  0.14328923973E+02  0.25518875702E+02  0.43400728571E+02  0.00000000000E+00 0. -1.
         11    1    3    3    0    0  0.12924196192E+02 -0.64846463468E+01 -0.94278460718E+00  0.14490490969E+02  0.51100000000E-03 0. -1.
        -11    1    3    3    0    0  0.13453764430E+02 -0.21925276733E+01 -0.10915553271E+02  0.17463111361E+02  0.51100000000E-03 0.  1.
         12    1    3    3    0    0  0.56703179789E+01 -0.56517499524E+01 -0.13660537823E+02  0.15833669098E+02  0.00000000000E+00 0. -1.
</event>
<event>
 7    1  0.7357971E-011  0.4778728E+02  0.7816164E-02  0.1312668E+00
        -11   -1    0    0    0    0  0.00000000000E+00  0.00000000000E+00  0.45593999997E+02  0.45594000000E+02  0.51100000000E-03 0. -1.
         11   -1    0    0    0    0 -0.00000000000E+00 -0.00000000000E+00 -0.45593999997E+02  0.45594000000E+02  0.51100000000E-03 0.  1.
    9900012    2    1    2    0    0 -0.31345114319E+02 -0.22380604717E+02  0.20005373674E+02  0.47787278405E+02  0.20000033558E+02 0.  0.
        -12    1    1    2    0    0  0.31345114319E+02  0.22380604717E+02 -0.20005373674E+02  0.43400721595E+02  0.00000000000E+00 0.  1.
         11    1    3    3    0    0 -0.18072868717E+02 -0.11023583172E+02  0.19947731277E+02  0.29087109739E+02  0.51100000000E-03 0. -1.
        -11    1    3    3    0    0 -0.99726887157E+01 -0.11074321172E+02 -0.16149573273E+01  0.14990103305E+02  0.51100000000E-03 0.  1.
        -12    1    3    3    0    0 -0.32995568860E+01 -0.28270037263E+00  0.16725997244E+01  0.37100653609E+01  0.00000000000E+00 0.  1.
</event>
<event>
 7    1  0.7357971E-011  0.4778727E+02  0.7816164E-02  0.1312668E+00
        -11   -1    0    0    0    0  0.00000000000E+00  0.00000000000E+00  0.45593999997E+02  0.45594000000E+02  0.51100000000E-03 0. -1.
         11   -1    0    0    0    0 -0.00000000000E+00 -0.00000000000E+00 -0.45593999997E+02  0.45594000000E+02  0.51100000000E-03 0.  1.
    9900012    2    1    2    0    0  0.13853835323E+02 -0.15449506974E+02 -0.38118331078E+02  0.47787272090E+02  0.20000004769E+02 0.  0.
         12    1    1    2    0    0 -0.13853835323E+02  0.15449506974E+02  0.38118331078E+02  0.43400727910E+02  0.00000000000E+00 0. -1.
         11    1    3    3    0    0  0.57186838916E+01 -0.44649861771E+01 -0.24646868102E+02  0.25692558349E+02  0.51100000000E-03 0. -1.
        -11    1    3    3    0    0  0.64355810563E+01 -0.23187943507E+01 -0.10949808399E+02  0.12910918442E+02  0.51100000000E-03 0.  1.
         12    1    3    3    0    0  0.16995703746E+01 -0.86657264464E+01 -0.25216545773E+01  0.91837952999E+01  0.00000000000E+00 0. -1.
</event>
<event>
 7    1  0.7357971E-011  0.4778727E+02  0.7816164E-02  0.1312668E+00
        -11   -1    0    0    0    0  0.00000000000E+00  0.00000000000E+00  0.45593999997E+02  0.45594000000E+02  0.51100000000E-03 0.  1.
         11   -1    0    0    0    0 -0.00000000000E+00 -0.00000000000E+00 -0.45593999997E+02  0.45594000000E+02  0.51100000000E-03 0. -1.
    9900012    2    1    2    0    0 -0.31829554179E+02  0.29481722695E+02 -0.11535776423E+01  0.47787271508E+02  0.20000002111E+02 0.  0.
         12    1    1    2    0    0  0.31829554179E+02 -0.29481722695E+02  0.11535776423E+01  0.43400728492E+02  0.00000000000E+00 0. -1.
         11    1    3    3    0    0 -0.17675215433E+02  0.14991099586E+02 -0.51303330265E+01  0.23737451941E+02  0.51100000000E-03 0. -1.
        -11    1    3    3    0    0 -0.12165818327E+02  0.89178016066E+01  0.78234471784E+01  0.16992370260E+02  0.51100000000E-03 0.  1.
         12    1    3    3    0    0 -0.19885204191E+01  0.55728215022E+01 -0.38466917942E+01  0.70574493064E+01  0.00000000000E+00 0. -1.
</event>
<event>
 7    1  0.7357971E-011  0.4778726E+02  0.7816164E-02  0.1312668E+00
        -11   -1    0    0    0    0  0.00000000000E+00  0.00000000000E+00  0.45593999997E+02  0.45594000000E+02  0.51100000000E-03 0. -1.
         11   -1    0    0    0    0 -0.00000000000E+00 -0.00000000000E+00 -0.45593999997E+02  0.45594000000E+02  0.51100000000E-03 0.  1.
    9900012    2    1    2    0    0 -0.78278900912E+01 -0.15720661397E+02 -0.39688900791E+02  0.47787263785E+02  0.19999966901E+02 0.  0.
         12    1    1    2    0    0  0.78278900912E+01  0.15720661397E+02  0.39688900791E+02  0.43400736215E+02  0.00000000000E+00 0. -1.
         11    1    3    3    0    0 -0.91030247642E+00 -0.77304441758E+00 -0.82280371212E+01  0.83142554326E+01  0.51100000000E-03 0. -1.
        -11    1    3    3    0    0  0.53564508907E+01 -0.82857090017E+01 -0.12523965902E+02  0.15943470826E+02  0.51100000000E-03 0.  1.
        -12    1    3    3    0    0 -0.12274038505E+02 -0.66619079779E+01 -0.18936897768E+02  0.23529537526E+02  0.00000000000E+00 0.  1.
</event>
<event>
 7    1  0.7357971E-011  0.4778727E+02  0.7816164E-02  0.1312668E+00
        -11   -1    0    0    0    0  0.00000000000E+00  0.00000000000E+00  0.45593999997E+02  0.45594000000E+02  0.51100000000E-03 0. -1.
         11   -1    0    0    0    0 -0.00000000000E+00 -0.00000000000E+00 -0.45593999997E+02  0.45594000000E+02  0.51100000000E-03 0.  1.
    9900012    2    1    2    0    0 -0.82036340233E+01 -0.11606645740E+02 -0.41007434073E+02  0.47787268603E+02  0.19999988870E+02 0.  0.
         12    1    1    2    0    0  0.82036340233E+01  0.11606645740E+02  0.41007434073E+02  0.43400731397E+02  0.00000000000E+00 0. -1.
         11    1    3    3    0    0 -0.77528771190E+01 -0.12302907296E+02 -0.16908978420E+02  0.22302066788E+02  0.51100000000E-03 0. -1.
        -11    1    3    3    0    0  0.31302374968E+01 -0.15159326146E+01 -0.15823542966E+02  0.16201263862E+02  0.51100000000E-03 0.  1.
         12    1    3    3    0    0 -0.35809944010E+01  0.22121941698E+01 -0.82749126870E+01  0.92839379534E+01  0.00000000000E+00 0. -1.
</event>
<event>
 7    1  0.7357971E-011  0.4778727E+02  0.7816164E-02  0.1312668E+00
        -11   -1    0    0    0    0  0.00000000000E+00  0.00000000000E+00  0.45593999997E+02  0.45594000000E+02  0.51100000000E-03 0. -1.
         11   -1    0    0    0    0 -0.00000000000E+00 -0.00000000000E+00 -0.45593999997E+02  0.45594000000E+02  0.51100000000E-03 0.  1.
    9900012    2    1    2    0    0 -0.53461380368E+01 -0.37103183484E+02  0.21872268815E+02  0.47787267752E+02  0.19999984988E+02 0.  0.
        -12    1    1    2    0    0  0.53461380368E+01  0.37103183484E+02 -0.21872268815E+02  0.43400732248E+02  0.00000000000E+00 0.  1.
         11    1    3    3    0    0 -0.12583415014E+02 -0.21260344593E+02  0.12251088903E+02  0.27575963541E+02  0.51100000000E-03 0. -1.
        -11    1    3    3    0    0  0.54086386847E+01 -0.14190647036E+02  0.90603153396E+01  0.17683810394E+02  0.51100000000E-03 0.  1.
         12    1    3    3    0    0  0.18286382922E+01 -0.16521918548E+01  0.56086457240E+00  0.25274938174E+01  0.00000000000E+00 0. -1.
</event>
<event>
 7    1  0.7357971E-011  0.4778727E+02  0.7816164E-02  0.1312668E+00
        -11   -1    0    0    0    0  0.00000000000E+00  0.00000000000E+00  0.45593999997E+02  0.45594000000E+02  0.51100000000E-03 0. -1.
         11   -1    0    0    0    0 -0.00000000000E+00 -0.00000000000E+00 -0.45593999997E+02  0.45594000000E+02  0.51100000000E-03 0.  1.
    9900012    2    1    2    0    0  0.83636155059E+01 -0.32262171121E+02  0.27799737687E+02  0.47787272296E+02  0.20000005706E+02 0.  0.
        -12    1    1    2    0    0 -0.83636155059E+01  0.32262171121E+02 -0.27799737687E+02  0.43400727704E+02  0.00000000000E+00 0.  1.
         11    1    3    3    0    0  0.11767966501E+01 -0.49408457976E+01  0.83513304355E+01  0.97745346618E+01  0.51100000000E-03 0. -1.
        -11    1    3    3    0    0  0.28555781492E+01 -0.26532149057E+02  0.20299372262E+02  0.33528700760E+02  0.51100000000E-03 0.  1.
        -12    1    3    3    0    0  0.43312407066E+01 -0.78917626609E+00 -0.85096501035E+00  0.44840368739E+01  0.00000000000E+00 0.  1.
</event>
<event>
 7    1  0.7357971E-011  0.4778727E+02  0.7816164E-02  0.1312668E+00
        -11   -1    0    0    0    0  0.00000000000E+00  0.00000000000E+00  0.45593999997E+02  0.45594000000E+02  0.51100000000E-03 0. -1.
         11   -1    0    0    0    0 -0.00000000000E+00 -0.00000000000E+00 -0.45593999997E+02  0.45594000000E+02  0.51100000000E-03 0.  1.
    9900012    2    1    2    0    0 -0.18590823407E+02  0.57373473231E+01  0.38795456417E+02  0.47787270653E+02  0.19999998215E+02 0.  0.
        -12    1    1    2    0    0  0.18590823407E+02 -0.57373473231E+01 -0.38795456417E+02  0.43400729347E+02  0.00000000000E+00 0.  1.
         11    1    3    3    0    0 -0.99954037016E+01  0.90614340915E+01  0.29039671153E+02  0.32020621229E+02  0.51100000000E-03 0. -1.
        -11    1    3    3    0    0 -0.95171073764E+01 -0.28938075310E+01  0.54502752552E+01  0.11342616782E+02  0.51100000000E-03 0.  1.
        -12    1    3    3    0    0  0.92168767058E+00 -0.43027923746E+00  0.43055100084E+01  0.44240326419E+01  0.00000000000E+00 0.  1.
</event>
<event>
 7    1  0.7357971E-011  0.4778727E+02  0.7816164E-02  0.1312668E+00
        -11   -1    0    0    0    0  0.00000000000E+00  0.00000000000E+00  0.45593999997E+02  0.45594000000E+02  0.51100000000E-03 0.  1.
         11   -1    0    0    0    0 -0.00000000000E+00 -0.00000000000E+00 -0.45593999997E+02  0.45594000000E+02  0.51100000000E-03 0. -1.
    9900012    2    1    2    0    0  0.24552532011E+02  0.35499714646E+02  0.45350446856E+01  0.47787271914E+02  0.20000003964E+02 0.  0.
         12    1    1    2    0    0 -0.24552532011E+02 -0.35499714646E+02 -0.45350446856E+01  0.43400728086E+02  0.00000000000E+00 0. -1.
         11    1    3    3    0    0  0.14291094036E+02  0.25990545461E+02 -0.59681984827E+01  0.30254970095E+02  0.51100000000E-03 0. -1.
        -11    1    3    3    0    0  0.50702346163E+01  0.39128151096E+01  0.47566272496E+01  0.79776502931E+01  0.51100000000E-03 0.  1.
         12    1    3    3    0    0  0.51912033596E+01  0.55963540756E+01  0.57466159186E+01  0.95546515257E+01  0.00000000000E+00 0. -1.
</event>
<event>
 7    1  0.7357971E-011  0.4778727E+02  0.7816164E-02  0.1312668E+00
        -11   -1    0    0    0    0  0.00000000000E+00  0.00000000000E+00  0.45593999997E+02  0.45594000000E+02  0.51100000000E-03 0. -1.
         11   -1    0    0    0    0 -0.00000000000E+00 -0.00000000000E+00 -0.45593999997E+02  0.45594000000E+02  0.51100000000E-03 0.  1.
    9900012    2    1    2    0    0 -0.18157050417E+02 -0.17404780230E+02  0.35369737036E+02  0.47787272441E+02  0.20000006366E+02 0.  0.
        -12    1    1    2    0    0  0.18157050417E+02  0.17404780230E+02 -0.35369737036E+02  0.43400727559E+02  0.00000000000E+00 0.  1.
         11    1    3    3    0    0 -0.13919035210E+02 -0.41809904001E+01  0.11354391509E+02  0.18442950650E+02  0.51100000000E-03 0. -1.
        -11    1    3    3    0    0  0.23827684487E+01 -0.78021303895E+01  0.97899678151E+01  0.12743401986E+02  0.51100000000E-03 0.  1.
        -12    1    3    3    0    0 -0.66207836564E+01 -0.54216594402E+01  0.14225377712E+02  0.16600919804E+02  0.00000000000E+00 0.  1.
</event>
<event>
 7    1  0.7357971E-011  0.4778727E+02  0.7816164E-02  0.1312668E+00
        -11   -1    0    0    0    0  0.00000000000E+00  0.00000000000E+00  0.45593999997E+02  0.45594000000E+02  0.51100000000E-03 0. -1.
         11   -1    0    0    0    0 -0.00000000000E+00 -0.00000000000E+00 -0.45593999997E+02  0.45594000000E+02  0.51100000000E-03 0.  1.
    9900012    2    1    2    0    0 -0.27859252752E+02  0.28308445537E+01 -0.33158284949E+02  0.47787268376E+02  0.19999987832E+02 0.  0.
         12    1    1    2    0    0  0.27859252752E+02 -0.28308445537E+01  0.33158284949E+02  0.43400731624E+02  0.00000000000E+00 0. -1.
         11    1    3    3    0    0 -0.86308333686E+00  0.25161129805E+00  0.26856299854E+01  0.28321069491E+01  0.51100000000E-03 0. -1.
        -11    1    3    3    0    0 -0.24481127199E+02  0.22893872063E+01 -0.32889191518E+02  0.41064166882E+02  0.51100000000E-03 0.  1.
         12    1    3    3    0    0 -0.25150422157E+01  0.28984604942E+00 -0.29547234164E+01  0.38909945447E+01  0.00000000000E+00 0. -1.
</event>
<event>
 7    1  0.7357971E-011  0.4778726E+02  0.7816164E-02  0.1312668E+00
        -11   -1    0    0    0    0  0.00000000000E+00  0.00000000000E+00  0.45593999997E+02  0.45594000000E+02  0.51100000000E-03 0. -1.
         11   -1    0    0    0    0 -0.00000000000E+00 -0.00000000000E+00 -0.45593999997E+02  0.45594000000E+02  0.51100000000E-03 0.  1.
    9900012    2    1    2    0    0 -0.22375224572E+02 -0.33845149583E+02  0.15410359253E+02  0.47787262710E+02  0.19999962002E+02 0.  0.
        -12    1    1    2    0    0  0.22375224572E+02  0.33845149583E+02 -0.15410359253E+02  0.43400737290E+02  0.00000000000E+00 0.  1.
         11    1    3    3    0    0  0.61739194926E-01 -0.75581916727E+01 -0.17625196988E+01  0.77612208472E+01  0.51100000000E-03 0. -1.
        -11    1    3    3    0    0 -0.71344074339E+00  0.20582594736E+00 -0.99893497368E+00  0.12446820308E+01  0.51100000000E-03 0.  1.
         12    1    3    3    0    0 -0.21723523024E+02 -0.26492783858E+02  0.18171813926E+02  0.38781359832E+02  0.00000000000E+00 0. -1.
</event>
<event>
 7    1  0.7357971E-011  0.4778727E+02  0.7816164E-02  0.1312668E+00
        -11   -1    0    0    0    0  0.00000000000E+00  0.00000000000E+00  0.45593999997E+02  0.45594000000E+02  0.51100000000E-03 0. -1.
         11   -1    0    0    0    0 -0.00000000000E+00 -0.00000000000E+00 -0.45593999997E+02  0.45594000000E+02  0.51100000000E-03 0.  1.
    9900012    2    1    2    0    0 -0.17419582403E+02  0.26820961603E+02  0.29339691276E+02  0.47787270553E+02  0.19999997758E+02 0.  0.
        -12    1    1    2    0    0  0.17419582403E+02 -0.26820961603E+02 -0.29339691276E+02  0.43400729447E+02  0.00000000000E+00 0.  1.
         11    1    3    3    0    0 -0.50576842824E+01  0.22820712252E+02  0.17268099941E+02  0.29061182939E+02  0.51100000000E-03 0. -1.
        -11    1    3    3    0    0 -0.56802191932E+01 -0.62314048698E+00  0.74137964652E+01  0.93604258684E+01  0.51100000000E-03 0.  1.
         12    1    3    3    0    0 -0.66816789270E+01  0.46233898382E+01  0.46577948698E+01  0.93656617454E+01  0.00000000000E+00 0. -1.
</event>
<event>
 7    1  0.7357971E-011  0.4778727E+02  0.7816164E-02  0.1312668E+00
        -11   -1    0    0    0    0  0.00000000000E+00  0.00000000000E+00  0.45593999997E+02  0.45594000000E+02  0.51100000000E-03 0. -1.
         11   -1    0    0    0    0 -0.00000000000E+00 -0.00000000000E+00 -0.45593999997E+02  0.45594000000E+02  0.51100000000E-03 0.  1.
    9900012    2    1    2    0    0  0.20957305010E+02  0.36000541159E+02 -0.12180946109E+02  0.47787273680E+02  0.20000012015E+02 0.  0.
         12    1    1    2    0    0 -0.20957305010E+02 -0.36000541159E+02  0.12180946109E+02  0.43400726320E+02  0.00000000000E+00 0. -1.
         11    1    3    3    0    0  0.79390626744E+01  0.67036422015E+01  0.10042477431E+01  0.10439159387E+02  0.51100000000E-03 0. -1.
        -11    1    3    3    0    0  0.16159200170E+01  0.19432376736E+02 -0.10094494964E+02  0.21957397203E+02  0.51100000000E-03 0.  1.
        -12    1    3    3    0    0  0.11402322318E+02  0.98645222220E+01 -0.30906988875E+01  0.15390717090E+02  0.00000000000E+00 0.  1.
</event>
<event>
 7    1  0.7357971E-011  0.4778727E+02  0.7816164E-02  0.1312668E+00
        -11   -1    0    0    0    0  0.00000000000E+00  0.00000000000E+00  0.45593999997E+02  0.45594000000E+02  0.51100000000E-03 0. -1.
         11   -1    0    0    0    0 -0.00000000000E+00 -0.00000000000E+00 -0.45593999997E+02  0.45594000000E+02  0.51100000000E-03 0.  1.
    9900012    2    1    2    0    0 -0.88978113950E+01  0.95095462384E+01 -0.41400737056E+02  0.47787267909E+02  0.19999985705E+02 0.  0.
         12    1    1    2    0    0  0.88978113950E+01 -0.95095462384E+01  0.41400737056E+02  0.43400732091E+02  0.00000000000E+00 0. -1.
         11    1    3    3    0    0 -0.81699321046E+01 -0.39049950269E+01 -0.11090383175E+02  0.14317589740E+02  0.51100000000E-03 0. -1.
        -11    1    3    3    0    0  0.17325842087E+01  0.86742827087E+01 -0.19463444951E+02  0.21379212291E+02  0.51100000000E-03 0.  1.
         12    1    3    3    0    0 -0.24604634991E+01  0.47402585566E+01 -0.10846908930E+02  0.12090465878E+02  0.00000000000E+00 0. -1.
</event>
<event>
 7    1  0.7357971E-011  0.4778725E+02  0.7816164E-02  0.1312668E+00
        -11   -1    0    0    0    0  0.00000000000E+00  0.00000000000E+00  0.45593999997E+02  0.45594000000E+02  0.51100000000E-03 0. -1.
         11   -1    0    0    0    0 -0.00000000000E+00 -0.00000000000E+00 -0.45593999997E+02  0.45594000000E+02  0.51100000000E-03 0.  1.
    9900012    2    1    2    0    0  0.22623731083E+02 -0.16437222040E+02 -0.33190508180E+02  0.47787247590E+02  0.19999893062E+02 0.  0.
         12    1    1    2    0    0 -0.22623731083E+02  0.16437222040E+02  0.33190508180E+02  0.43400752410E+02  0.00000000000E+00 0. -1.
         11    1    3    3    0    0 -0.39655794886E-01  0.38597611688E+00 -0.85199225958E+01  0.85287532174E+01  0.51100000000E-03 0. -1.
        -11    1    3    3    0    0  0.40512731105E+01 -0.24209743930E+01 -0.11172827748E+02  0.12128726684E+02  0.51100000000E-03 0.  1.
         12    1    3    3    0    0  0.18612113768E+02 -0.14402223764E+02 -0.13497757836E+02  0.27129767689E+02  0.00000000000E+00 0. -1.
</event>
<event>
 7    1  0.7357971E-011  0.4778727E+02  0.7816164E-02  0.1312668E+00
        -11   -1    0    0    0    0  0.00000000000E+00  0.00000000000E+00  0.45593999997E+02  0.45594000000E+02  0.51100000000E-03 0. -1.
         11   -1    0    0    0    0 -0.00000000000E+00 -0.00000000000E+00 -0.45593999997E+02  0.45594000000E+02  0.51100000000E-03 0.  1.
    9900012    2    1    2    0    0  0.57954358952E+01  0.25744242277E+02  0.34456790143E+02  0.47787268733E+02  0.19999989459E+02 0.  0.
        -12    1    1    2    0    0 -0.57954358952E+01 -0.25744242277E+02 -0.34456790143E+02  0.43400731267E+02  0.00000000000E+00 0.  1.
         11    1    3    3    0    0  0.84336273939E+01  0.60557632322E+01  0.21925211717E+02  0.24259292002E+02  0.51100000000E-03 0. -1.
        -11    1    3    3    0    0 -0.23428874014E+01  0.13032911924E+02  0.80014007811E+01  0.15471532869E+02  0.51100000000E-03 0.  1.
         12    1    3    3    0    0 -0.29530409732E+00  0.66555671205E+01  0.45301776449E+01  0.80564438619E+01  0.00000000000E+00 0. -1.
</event>
<event>
 7    1  0.7357971E-011  0.4778727E+02  0.7816164E-02  0.1312668E+00
        -11   -1    0    0    0    0  0.00000000000E+00  0.00000000000E+00  0.45593999997E+02  0.45594000000E+02  0.51100000000E-03 0. -1.
         11   -1    0    0    0    0 -0.00000000000E+00 -0.00000000000E+00 -0.45593999997E+02  0.45594000000E+02  0.51100000000E-03 0.  1.
    9900012    2    1    2    0    0  0.26482980575E+02 -0.24201013711E+02 -0.24425108997E+02  0.47787271040E+02  0.19999999978E+02 0.  0.
         12    1    1    2    0    0 -0.26482980575E+02  0.24201013711E+02  0.24425108997E+02  0.43400728960E+02  0.00000000000E+00 0. -1.
         11    1    3    3    0    0  0.16398169165E+02 -0.23807447621E+02 -0.19151441912E+02  0.34676681527E+02  0.51100000000E-03 0. -1.
        -11    1    3    3    0    0  0.11584146091E+01 -0.23652463400E+01 -0.16604192323E+00  0.26389173608E+01  0.51100000000E-03 0.  1.
         12    1    3    3    0    0  0.89263968011E+01  0.19716802497E+01 -0.51076251618E+01  0.10471672152E+02  0.00000000000E+00 0. -1.
</event>
<event>
 7    1  0.7357971E-011  0.4778728E+02  0.7816164E-02  0.1312668E+00
        -11   -1    0    0    0    0  0.00000000000E+00  0.00000000000E+00  0.45593999997E+02  0.45594000000E+02  0.51100000000E-03 0. -1.
         11   -1    0    0    0    0 -0.00000000000E+00 -0.00000000000E+00 -0.45593999997E+02  0.45594000000E+02  0.51100000000E-03 0.  1.
    9900012    2    1    2    0    0  0.22738334298E+01 -0.79065998271E+01  0.42613827258E+02  0.47787275204E+02  0.20000018964E+02 0.  0.
        -12    1    1    2    0    0 -0.22738334298E+01  0.79065998271E+01 -0.42613827258E+02  0.43400724796E+02  0.00000000000E+00 0.  1.
         11    1    3    3    0    0  0.10544995524E+02 -0.54848414851E+01  0.23211980921E+02  0.26078275926E+02  0.51100000000E-03 0. -1.
        -11    1    3    3    0    0 -0.49642302426E+01 -0.33616056735E+01  0.14772408632E+02  0.15942648201E+02  0.51100000000E-03 0.  1.
         12    1    3    3    0    0 -0.33069318519E+01  0.93984733148E+00  0.46294377045E+01  0.57663510767E+01  0.00000000000E+00 0. -1.
</event>
<event>
 7    1  0.7357971E-011  0.4778724E+02  0.7816164E-02  0.1312668E+00
        -11   -1    0    0    0    0  0.00000000000E+00  0.00000000000E+00  0.45593999997E+02  0.45594000000E+02  0.51100000000E-03 0. -1.
         11   -1    0    0    0    0 -0.00000000000E+00 -0.00000000000E+00 -0.45593999997E+02  0.45594000000E+02  0.51100000000E-03 0.  1.
    9900012    2    1    2    0    0 -0.39609857179E+02 -0.14553474635E+02 -0.10143038816E+02  0.47787243715E+02  0.19999875393E+02 0.  0.
         12    1    1    2    0    0  0.39609857179E+02  0.14553474635E+02  0.10143038816E+02  0.43400756285E+02  0.00000000000E+00 0. -1.
         11    1    3    3    0    0 -0.63945786013E+00 -0.14802085636E+01  0.22365272147E+01  0.27571684732E+01  0.51100000000E-03 0. -1.
        -11    1    3    3    0    0 -0.37689152455E+02 -0.13338353384E+02 -0.14508747497E+02  0.42531019714E+02  0.51100000000E-03 0.  1.
        -12    1    3    3    0    0 -0.12812468646E+01  0.26508731268E+00  0.21291814665E+01  0.24990555274E+01  0.00000000000E+00 0.  1.
</event>
<event>
 7    1  0.7357971E-011  0.4778727E+02  0.7816164E-02  0.1312668E+00
        -11   -1    0    0    0    0  0.00000000000E+00  0.00000000000E+00  0.45593999997E+02  0.45594000000E+02  0.51100000000E-03 0.  1.
         11   -1    0    0    0    0 -0.00000000000E+00 -0.00000000000E+00 -0.45593999997E+02  0.45594000000E+02  0.51100000000E-03 0. -1.
    9900012    2    1    2    0    0  0.38101083294E+02  0.20754604514E+02 -0.10849105860E+01  0.47787272037E+02  0.20000004527E+02 0.  0.
         12    1    1    2    0    0 -0.38101083294E+02 -0.20754604514E+02  0.10849105860E+01  0.43400727963E+02  0.00000000000E+00 0. -1.
         11    1    3    3    0    0  0.34949977036E+01  0.67173586296E+01 -0.47156148548E+01  0.89204786658E+01  0.51100000000E-03 0. -1.
        -11    1    3    3    0    0  0.18973485194E+02  0.41388212266E+01  0.57244986792E+01  0.20245811096E+02  0.51100000000E-03 0.  1.
        -12    1    3    3    0    0  0.15632600397E+02  0.98984246583E+01 -0.20937944104E+01  0.18620982276E+02  0.00000000000E+00 0.  1.
</event>
<event>
 7    1  0.7357971E-011  0.4778727E+02  0.7816164E-02  0.1312668E+00
        -11   -1    0    0    0    0  0.00000000000E+00  0.00000000000E+00  0.45593999997E+02  0.45594000000E+02  0.51100000000E-03 0. -1.
         11   -1    0    0    0    0 -0.00000000000E+00 -0.00000000000E+00 -0.45593999997E+02  0.45594000000E+02  0.51100000000E-03 0.  1.
    9900012    2    1    2    0    0  0.42079994496E+02  0.21092678612E+01 -0.10413843578E+02  0.47787273212E+02  0.20000009881E+02 0.  0.
         12    1    1    2    0    0 -0.42079994496E+02 -0.21092678612E+01  0.10413843578E+02  0.43400726788E+02  0.00000000000E+00 0. -1.
         11    1    3    3    0    0  0.38730557816E+01  0.98060035904E+00 -0.44338129498E+01  0.59683193352E+01  0.51100000000E-03 0. -1.
        -11    1    3    3    0    0  0.15433577495E+02 -0.72547982851E+01 -0.12892930349E+01  0.17102329936E+02  0.51100000000E-03 0.  1.
        -12    1    3    3    0    0  0.22773361219E+02  0.83834657873E+01 -0.46907375932E+01  0.24716623940E+02  0.00000000000E+00 0.  1.
</event>
<event>
 7    1  0.7357971E-011  0.4778728E+02  0.7816164E-02  0.1312668E+00
        -11   -1    0    0    0    0  0.00000000000E+00  0.00000000000E+00  0.45593999997E+02  0.45594000000E+02  0.51100000000E-03 0. -1.
         11   -1    0    0    0    0 -0.00000000000E+00 -0.00000000000E+00 -0.45593999997E+02  0.45594000000E+02  0.51100000000E-03 0.  1.
    9900012    2    1    2    0    0 -0.26314910538E+02 -0.14517802188E+02  0.31311038356E+02  0.47787283187E+02  0.20000055361E+02 0.  0.
        -12    1    1    2    0    0  0.26314910538E+02  0.14517802188E+02 -0.31311038356E+02  0.43400716813E+02  0.00000000000E+00 0.  1.
         11    1    3    3    0    0 -0.11042816408E+02 -0.83498866270E+01  0.21449158519E+02  0.25529018828E+02  0.51100000000E-03 0. -1.
        -11    1    3    3    0    0 -0.32961615688E+01  0.17369997618E+00 -0.23215014792E+01  0.40353713768E+01  0.51100000000E-03 0.  1.
        -12    1    3    3    0    0 -0.11975932560E+02 -0.63416155368E+01  0.12183381317E+02  0.18222892982E+02  0.00000000000E+00 0.  1.
</event>
<event>
 7    1  0.7357971E-011  0.4778727E+02  0.7816164E-02  0.1312668E+00
        -11   -1    0    0    0    0  0.00000000000E+00  0.00000000000E+00  0.45593999997E+02  0.45594000000E+02  0.51100000000E-03 0. -1.
         11   -1    0    0    0    0 -0.00000000000E+00 -0.00000000000E+00 -0.45593999997E+02  0.45594000000E+02  0.51100000000E-03 0.  1.
    9900012    2    1    2    0    0  0.24064525685E+02 -0.34905541982E+02  0.92803656813E+01  0.47787269077E+02  0.19999991028E+02 0.  0.
        -12    1    1    2    0    0 -0.24064525685E+02  0.34905541982E+02 -0.92803656813E+01  0.43400730923E+02  0.00000000000E+00 0.  1.
         11    1    3    3    0    0  0.11798181025E+02 -0.18074080388E+02  0.50607664564E+01  0.22169366585E+02  0.51100000000E-03 0. -1.
        -11    1    3    3    0    0 -0.12179333648E+01  0.15555665112E-01 -0.26956488976E+01  0.29580613415E+01  0.51100000000E-03 0.  1.
        -12    1    3    3    0    0  0.13484278024E+02 -0.16847017260E+02  0.69152481224E+01  0.22659841151E+02  0.00000000000E+00 0.  1.
</event>
<event>
 7    1  0.7357971E-011  0.4778727E+02  0.7816164E-02  0.1312668E+00
        -11   -1    0    0    0    0  0.00000000000E+00  0.00000000000E+00  0.45593999997E+02  0.45594000000E+02  0.51100000000E-03 0. -1.
         11   -1    0    0    0    0 -0.00000000000E+00 -0.00000000000E+00 -0.45593999997E+02  0.45594000000E+02  0.51100000000E-03 0.  1.
    9900012    2    1    2    0    0  0.95853280033E+00  0.25583657554E+02 -0.35045414273E+02  0.47787269816E+02  0.19999994398E+02 0.  0.
         12    1    1    2    0    0 -0.95853280033E+00 -0.25583657554E+02  0.35045414273E+02  0.43400730184E+02  0.00000000000E+00 0. -1.
         11    1    3    3    0    0 -0.47031923827E+01  0.23625357365E+01 -0.11961889306E+02  0.13068603205E+02  0.51100000000E-03 0. -1.
        -11    1    3    3    0    0  0.74384996602E+01  0.21491212926E+02 -0.22832490830E+02  0.32226171786E+02  0.51100000000E-03 0.  1.
        -12    1    3    3    0    0 -0.17767744772E+01  0.17299088910E+01 -0.25103413747E+00  0.24924948248E+01  0.00000000000E+00 0.  1.
</event>
<event>
 7    1  0.7357971E-011  0.4778727E+02  0.7816164E-02  0.1312668E+00
        -11   -1    0    0    0    0  0.00000000000E+00  0.00000000000E+00  0.45593999997E+02  0.45594000000E+02  0.51100000000E-03 0. -1.
         11   -1    0    0    0    0 -0.00000000000E+00 -0.00000000000E+00 -0.45593999997E+02  0.45594000000E+02  0.51100000000E-03 0.  1.
    9900012    2    1    2    0    0 -0.16134027326E+02 -0.37882427145E+02  0.13720008563E+02  0.47787265454E+02  0.19999974512E+02 0.  0.
        -12    1    1    2    0    0  0.16134027326E+02  0.37882427145E+02 -0.13720008563E+02  0.43400734546E+02  0.00000000000E+00 0.  1.
         11    1    3    3    0    0  0.87739207891E+00 -0.21897767896E+02  0.70699666612E+01  0.23027515814E+02  0.51100000000E-03 0. -1.
        -11    1    3    3    0    0 -0.14900027532E+02 -0.14931872068E+02  0.45027356735E+01  0.21569567745E+02  0.51100000000E-03 0.  1.
         12    1    3    3    0    0 -0.21113918730E+01 -0.10527871813E+01  0.21473062281E+01  0.31901818957E+01  0.00000000000E+00 0. -1.
</event>
<event>
 7    1  0.7357971E-011  0.4778727E+02  0.7816164E-02  0.1312668E+00
        -11   -1    0    0    0    0  0.00000000000E+00  0.00000000000E+00  0.45593999997E+02  0.45594000000E+02  0.51100000000E-03 0. -1.
         11   -1    0    0    0    0 -0.00000000000E+00 -0.00000000000E+00 -0.45593999997E+02  0.45594000000E+02  0.51100000000E-03 0.  1.
    9900012    2    1    2    0    0  0.10043262306E+02  0.14959993879E+02  0.39483600093E+02  0.47787271770E+02  0.20000003307E+02 0.  0.
        -12    1    1    2    0    0 -0.10043262306E+02 -0.14959993879E+02 -0.39483600093E+02  0.43400728230E+02  0.00000000000E+00 0.  1.
         11    1    3    3    0    0  0.81620327635E+01 -0.17949283649E+01  0.76958080325E+01  0.11360722169E+02  0.51100000000E-03 0.  1.
        -11    1    3    3    0    0 -0.19109111296E+01  0.83317518102E+01  0.14945918590E+02  0.17217727850E+02  0.51100000000E-03 0. -1.
         12    1    3    3    0    0  0.37921406724E+01  0.84231704337E+01  0.16841873471E+02  0.19208821750E+02  0.00000000000E+00 0. -1.
</event>
<event>
 7    1  0.7357971E-011  0.4778727E+02  0.7816164E-02  0.1312668E+00
        -11   -1    0    0    0    0  0.00000000000E+00  0.00000000000E+00  0.45593999997E+02  0.45594000000E+02  0.51100000000E-03 0. -1.
         11   -1    0    0    0    0 -0.00000000000E+00 -0.00000000000E+00 -0.45593999997E+02  0.45594000000E+02  0.51100000000E-03 0.  1.
    9900012    2    1    2    0    0  0.13786266172E+02 -0.13858294202E+02 -0.38749321717E+02  0.47787269745E+02  0.19999994077E+02 0.  0.
         12    1    1    2    0    0 -0.13786266172E+02  0.13858294202E+02  0.38749321717E+02  0.43400730255E+02  0.00000000000E+00 0. -1.
         11    1    3    3    0    0 -0.39166477846E+00  0.14045404645E+01  0.10989447471E+01  0.18258737726E+01  0.51100000000E-03 0. -1.
        -11    1    3    3    0    0  0.11639501705E+02 -0.16380536379E+02 -0.34138030883E+02  0.39613193823E+02  0.51100000000E-03 0.  1.
         12    1    3    3    0    0  0.25384292453E+01  0.11177017126E+01 -0.57102355806E+01  0.63482021500E+01  0.00000000000E+00 0. -1.
</event>
<event>
 7    1  0.7357971E-011  0.4778725E+02  0.7816164E-02  0.1312668E+00
        -11   -1    0    0    0    0  0.00000000000E+00  0.00000000000E+00  0.45593999997E+02  0.45594000000E+02  0.51100000000E-03 0. -1.
         11   -1    0    0    0    0 -0.00000000000E+00 -0.00000000000E+00 -0.45593999997E+02  0.45594000000E+02  0.51100000000E-03 0.  1.
    9900012    2    1    2    0    0 -0.23149712847E+02  0.83449374728E+01  0.35750212188E+02  0.47787252797E+02  0.19999916803E+02 0.  0.
        -12    1    1    2    0    0  0.23149712847E+02 -0.83449374728E+01 -0.35750212188E+02  0.43400747203E+02  0.00000000000E+00 0.  1.
         11    1    3    3    0    0 -0.52904896127E+01 -0.66584547668E+00 -0.11673533712E+01  0.54585112160E+01  0.51100000000E-03 0.  1.
        -11    1    3    3    0    0 -0.99092977143E+01  0.77387403403E+01  0.20617855204E+02  0.24149083559E+02  0.51100000000E-03 0. -1.
         12    1    3    3    0    0 -0.79499255196E+01  0.12720426092E+01  0.16299710355E+02  0.18179658022E+02  0.00000000000E+00 0. -1.
</event>
<event>
 7    1  0.7357971E-011  0.4778727E+02  0.7816164E-02  0.1312668E+00
        -11   -1    0    0    0    0  0.00000000000E+00  0.00000000000E+00  0.45593999997E+02  0.45594000000E+02  0.51100000000E-03 0.  1.
         11   -1    0    0    0    0 -0.00000000000E+00 -0.00000000000E+00 -0.45593999997E+02  0.45594000000E+02  0.51100000000E-03 0. -1.
    9900012    2    1    2    0    0 -0.13434789108E+02  0.29485035085E+02 -0.28874940130E+02  0.47787273971E+02  0.20000013344E+02 0.  0.
         12    1    1    2    0    0  0.13434789108E+02 -0.29485035085E+02  0.28874940130E+02  0.43400726029E+02  0.00000000000E+00 0. -1.
         11    1    3    3    0    0 -0.59964328231E+01  0.71436456586E+01 -0.89790746912E+01  0.12946530905E+02  0.51100000000E-03 0. -1.
        -11    1    3    3    0    0 -0.43307097850E+01 -0.73948185976E+00 -0.29896297879E+00  0.44035508158E+01  0.51100000000E-03 0.  1.
        -12    1    3    3    0    0 -0.31076464997E+01  0.23080871286E+02 -0.19596902460E+02  0.30437192251E+02  0.00000000000E+00 0.  1.
</event>
<event>
 7    1  0.7357971E-011  0.4778725E+02  0.7816164E-02  0.1312668E+00
        -11   -1    0    0    0    0  0.00000000000E+00  0.00000000000E+00  0.45593999997E+02  0.45594000000E+02  0.51100000000E-03 0. -1.
         11   -1    0    0    0    0 -0.00000000000E+00 -0.00000000000E+00 -0.45593999997E+02  0.45594000000E+02  0.51100000000E-03 0.  1.
    9900012    2    1    2    0    0 -0.16034839978E+02 -0.21071355096E+02  0.34387594527E+02  0.47787253969E+02  0.19999922145E+02 0.  0.
        -12    1    1    2    0    0  0.16034839978E+02  0.21071355096E+02 -0.34387594527E+02  0.43400746031E+02  0.00000000000E+00 0.  1.
         11    1    3    3    0    0 -0.18923803762E+02 -0.17552212288E+02  0.30614782217E+02  0.40043169149E+02  0.51100000000E-03 0. -1.
        -11    1    3    3    0    0  0.39293257653E+01 -0.33980915249E+01  0.41309976688E+01  0.66371506674E+01  0.51100000000E-03 0.  1.
         12    1    3    3    0    0 -0.10403619819E+01 -0.12105128306E+00 -0.35818535891E+00  0.11069341525E+01  0.00000000000E+00 0. -1.
</event>
<event>
 7    1  0.7357971E-011  0.4778727E+02  0.7816164E-02  0.1312668E+00
        -11   -1    0    0    0    0  0.00000000000E+00  0.00000000000E+00  0.45593999997E+02  0.45594000000E+02  0.51100000000E-03 0. -1.
         11   -1    0    0    0    0 -0.00000000000E+00 -0.00000000000E+00 -0.45593999997E+02  0.45594000000E+02  0.51100000000E-03 0.  1.
    9900012    2    1    2    0    0  0.81259583100E+00 -0.26504547505E+02  0.34358000871E+02  0.47787267583E+02  0.19999984218E+02 0.  0.
        -12    1    1    2    0    0 -0.81259583100E+00  0.26504547505E+02 -0.34358000871E+02  0.43400732417E+02  0.00000000000E+00 0.  1.
         11    1    3    3    0    0  0.23287744651E+01 -0.10104585900E+02  0.25163253905E+02  0.27216083371E+02  0.51100000000E-03 0. -1.
        -11    1    3    3    0    0 -0.16930239967E+01 -0.15680036644E+02  0.10586131165E+02  0.18994632208E+02  0.51100000000E-03 0.  1.
         12    1    3    3    0    0  0.17684536256E+00 -0.71992496200E+00 -0.13913841989E+01  0.15765520043E+01  0.00000000000E+00 0. -1.
</event>
<event>
 7    1  0.7357971E-011  0.4778727E+02  0.7816164E-02  0.1312668E+00
        -11   -1    0    0    0    0  0.00000000000E+00  0.00000000000E+00  0.45593999997E+02  0.45594000000E+02  0.51100000000E-03 0. -1.
         11   -1    0    0    0    0 -0.00000000000E+00 -0.00000000000E+00 -0.45593999997E+02  0.45594000000E+02  0.51100000000E-03 0.  1.
    9900012    2    1    2    0    0 -0.35366122186E+01  0.14324044181E+02  0.40815894241E+02  0.47787273158E+02  0.20000009639E+02 0.  0.
        -12    1    1    2    0    0  0.35366122186E+01 -0.14324044181E+02 -0.40815894241E+02  0.43400726842E+02  0.00000000000E+00 0.  1.
         11    1    3    3    0    0  0.17600730148E+01  0.68461073318E+01  0.37195377223E+02  0.37861103122E+02  0.51100000000E-03 0. -1.
        -11    1    3    3    0    0 -0.28052592289E+01  0.44334224924E+01  0.14977602957E+01  0.54560059111E+01  0.51100000000E-03 0.  1.
        -12    1    3    3    0    0 -0.24914260045E+01  0.30445143565E+01  0.21227567224E+01  0.44701641252E+01  0.00000000000E+00 0.  1.
</event>
<event>
 7    1  0.7357971E-011  0.4778727E+02  0.7816164E-02  0.1312668E+00
        -11   -1    0    0    0    0  0.00000000000E+00  0.00000000000E+00  0.45593999997E+02  0.45594000000E+02  0.51100000000E-03 0. -1.
         11   -1    0    0    0    0 -0.00000000000E+00 -0.00000000000E+00 -0.45593999997E+02  0.45594000000E+02  0.51100000000E-03 0.  1.
    9900012    2    1    2    0    0 -0.14403696364E+02 -0.37217438023E+02  0.17059284534E+02  0.47787270159E+02  0.19999995961E+02 0.  0.
        -12    1    1    2    0    0  0.14403696364E+02  0.37217438023E+02 -0.17059284534E+02  0.43400729841E+02  0.00000000000E+00 0.  1.
         11    1    3    3    0    0 -0.33397243095E+00 -0.22535399992E+02  0.15212927652E+02  0.27191707530E+02  0.51100000000E-03 0. -1.
        -11    1    3    3    0    0 -0.67015736865E+01 -0.57099344220E+01 -0.20132604621E+00  0.88065301577E+01  0.51100000000E-03 0.  1.
         12    1    3    3    0    0 -0.73681502465E+01 -0.89721036088E+01  0.20476829279E+01  0.11789032471E+02  0.00000000000E+00 0. -1.
</event>
<event>
 7    1  0.7357971E-011  0.4778727E+02  0.7816164E-02  0.1312668E+00
        -11   -1    0    0    0    0  0.00000000000E+00  0.00000000000E+00  0.45593999997E+02  0.45594000000E+02  0.51100000000E-03 0. -1.
         11   -1    0    0    0    0 -0.00000000000E+00 -0.00000000000E+00 -0.45593999997E+02  0.45594000000E+02  0.51100000000E-03 0.  1.
    9900012    2    1    2    0    0 -0.28544891160E+02  0.19377424479E+02 -0.26331121437E+02  0.47787270203E+02  0.19999996163E+02 0.  0.
         12    1    1    2    0    0  0.28544891160E+02 -0.19377424479E+02  0.26331121437E+02  0.43400729797E+02  0.00000000000E+00 0. -1.
         11    1    3    3    0    0  0.25003874512E+01  0.47835000351E+00 -0.72834784240E+00  0.26478759361E+01  0.51100000000E-03 0. -1.
        -11    1    3    3    0    0 -0.20883324084E+02  0.83250202751E+01 -0.16363708917E+02  0.27806297078E+02  0.51100000000E-03 0.  1.
         12    1    3    3    0    0 -0.10161954528E+02  0.10574054201E+02 -0.92390646770E+01  0.17333097189E+02  0.00000000000E+00 0. -1.
</event>
<event>
 7    1  0.7357971E-011  0.4778726E+02  0.7816164E-02  0.1312668E+00
        -11   -1    0    0    0    0  0.00000000000E+00  0.00000000000E+00  0.45593999997E+02  0.45594000000E+02  0.51100000000E-03 0. -1.
         11   -1    0    0    0    0 -0.00000000000E+00 -0.00000000000E+00 -0.45593999997E+02  0.45594000000E+02  0.51100000000E-03 0.  1.
    9900012    2    1    2    0    0  0.10760759950E+02 -0.76112359254E+01  0.41350932473E+02  0.47787257110E+02  0.19999936468E+02 0.  0.
        -12    1    1    2    0    0 -0.10760759950E+02  0.76112359254E+01 -0.41350932473E+02  0.43400742890E+02  0.00000000000E+00 0.  1.
         11    1    3    3    0    0 -0.38237397567E+00 -0.15259131393E+00  0.14939986123E+02  0.14945657549E+02  0.51100000000E-03 0. -1.
        -11    1    3    3    0    0  0.12399260230E+02 -0.70431640069E+01  0.27597789866E+02  0.31064220885E+02  0.51100000000E-03 0.  1.
        -12    1    3    3    0    0 -0.12561263043E+01 -0.41548060465E+00 -0.11868435159E+01  0.17773786755E+01  0.00000000000E+00 0.  1.
</event>
<event>
 7    1  0.7553825E-011  0.4778727E+02  0.7816164E-02  0.1312668E+00
        -11   -1    0    0    0    0  0.00000000000E+00  0.00000000000E+00  0.45593999997E+02  0.45594000000E+02  0.51100000000E-03 0. -1.
         11   -1    0    0    0    0 -0.00000000000E+00 -0.00000000000E+00 -0.45593999997E+02  0.45594000000E+02  0.51100000000E-03 0.  1.
    9900012    2    1    2    0    0  0.15497972903E+02 -0.18123680899E+02 -0.36262491387E+02  0.47787271262E+02  0.20000000991E+02 0.  0.
         12    1    1    2    0    0 -0.15497972903E+02  0.18123680899E+02  0.36262491387E+02  0.43400728738E+02  0.00000000000E+00 0. -1.
         11    1    3    3    0    0  0.62547870955E-01  0.10325736101E+01 -0.12343377852E+01  0.16105000855E+01  0.51100000000E-03 0. -1.
        -11    1    3    3    0    0  0.48459677693E+01 -0.13774696426E+01  0.49868888422E+00  0.50625603307E+01  0.51100000000E-03 0.  1.
        -12    1    3    3    0    0  0.10589457263E+02 -0.17778784866E+02 -0.35526842486E+02  0.41114210846E+02  0.00000000000E+00 0.  1.
</event>
<event>
 7    1  0.7357971E-011  0.4778727E+02  0.7816164E-02  0.1312668E+00
        -11   -1    0    0    0    0  0.00000000000E+00  0.00000000000E+00  0.45593999997E+02  0.45594000000E+02  0.51100000000E-03 0.  1.
         11   -1    0    0    0    0 -0.00000000000E+00 -0.00000000000E+00 -0.45593999997E+02  0.45594000000E+02  0.51100000000E-03 0. -1.
    9900012    2    1    2    0    0  0.15396131368E+02  0.39046504065E+02 -0.11043228169E+02  0.47787271559E+02  0.20000002346E+02 0.  0.
        -12    1    1    2    0    0 -0.15396131368E+02 -0.39046504065E+02  0.11043228169E+02  0.43400728441E+02  0.00000000000E+00 0.  1.
         11    1    3    3    0    0  0.26233218189E+01  0.13954411584E+02 -0.49262334218E+01  0.15029144886E+02  0.51100000000E-03 0. -1.
        -11    1    3    3    0    0  0.14584121342E+02  0.24766803147E+02 -0.26889010467E+01  0.28867305426E+02  0.51100000000E-03 0.  1.
        -12    1    3    3    0    0 -0.18113117921E+01  0.32528933449E+00 -0.34280937008E+01  0.38908212476E+01  0.00000000000E+00 0.  1.
</event>
<event>
 7    1  0.7357971E-011  0.4778727E+02  0.7816164E-02  0.1312668E+00
        -11   -1    0    0    0    0  0.00000000000E+00  0.00000000000E+00  0.45593999997E+02  0.45594000000E+02  0.51100000000E-03 0. -1.
         11   -1    0    0    0    0 -0.00000000000E+00 -0.00000000000E+00 -0.45593999997E+02  0.45594000000E+02  0.51100000000E-03 0.  1.
    9900012    2    1    2    0    0  0.26195549404E+02  0.19184462298E+02  0.28798832863E+02  0.47787272166E+02  0.20000005112E+02 0.  0.
        -12    1    1    2    0    0 -0.26195549404E+02 -0.19184462298E+02 -0.28798832863E+02  0.43400727834E+02  0.00000000000E+00 0.  1.
         11    1    3    3    0    0  0.13611639968E+02  0.13202277556E+02  0.13143841301E+02  0.23072438963E+02  0.51100000000E-03 0. -1.
        -11    1    3    3    0    0  0.47940532912E+01 -0.41513633089E+01  0.50659742908E+01  0.81167025360E+01  0.51100000000E-03 0.  1.
        -12    1    3    3    0    0  0.77898561449E+01  0.10133548051E+02  0.10589017272E+02  0.16598130667E+02  0.00000000000E+00 0.  1.
</event>
<event>
 7    1  0.7357971E-011  0.4778733E+02  0.7816164E-02  0.1312667E+00
        -11   -1    0    0    0    0  0.00000000000E+00  0.00000000000E+00  0.45593999997E+02  0.45594000000E+02  0.51100000000E-03 0. -1.
         11   -1    0    0    0    0 -0.00000000000E+00 -0.00000000000E+00 -0.45593999997E+02  0.45594000000E+02  0.51100000000E-03 0.  1.
    9900012    2    1    2    0    0 -0.97631756146E+01 -0.37992286698E+02 -0.18571063810E+02  0.47787333443E+02  0.20000284496E+02 0.  0.
         12    1    1    2    0    0  0.97631756146E+01  0.37992286698E+02  0.18571063810E+02  0.43400666557E+02  0.00000000000E+00 0. -1.
         11    1    3    3    0    0 -0.38617542256E+01 -0.93580734104E+00 -0.18647161370E+01  0.43893106077E+01  0.51100000000E-03 0. -1.
        -11    1    3    3    0    0 -0.14290374386E+01 -0.33147610651E+02 -0.17319073832E+02  0.37426682440E+02  0.51100000000E-03 0.  1.
        -12    1    3    3    0    0 -0.44723839505E+01 -0.39088687058E+01  0.61272615882E+00  0.59713403944E+01  0.00000000000E+00 0.  1.
</event>
<event>
 7    1  0.7357971E-011  0.4778727E+02  0.7816164E-02  0.1312668E+00
        -11   -1    0    0    0    0  0.00000000000E+00  0.00000000000E+00  0.45593999997E+02  0.45594000000E+02  0.51100000000E-03 0. -1.
         11   -1    0    0    0    0 -0.00000000000E+00 -0.00000000000E+00 -0.45593999997E+02  0.45594000000E+02  0.51100000000E-03 0.  1.
    9900012    2    1    2    0    0 -0.32925055400E+02 -0.71497791712E+01 -0.27357723138E+02  0.47787266935E+02  0.19999981265E+02 0.  0.
         12    1    1    2    0    0  0.32925055400E+02  0.71497791712E+01  0.27357723138E+02  0.43400733065E+02  0.00000000000E+00 0. -1.
         11    1    3    3    0    0 -0.14296741698E+02 -0.49465270477E+01 -0.20981100716E+01  0.15273081521E+02  0.51100000000E-03 0. -1.
        -11    1    3    3    0    0 -0.12183484988E+02  0.85937881542E+00 -0.10445810275E+02  0.16071427782E+02  0.51100000000E-03 0.  1.
         12    1    3    3    0    0 -0.64448287145E+01 -0.30626309389E+01 -0.14813802791E+02  0.16442757632E+02  0.00000000000E+00 0. -1.
</event>
<event>
 7    1  0.7357971E-011  0.4778728E+02  0.7816164E-02  0.1312668E+00
        -11   -1    0    0    0    0  0.00000000000E+00  0.00000000000E+00  0.45593999997E+02  0.45594000000E+02  0.51100000000E-03 0.  1.
         11   -1    0    0    0    0 -0.00000000000E+00 -0.00000000000E+00 -0.45593999997E+02  0.45594000000E+02  0.51100000000E-03 0. -1.
    9900012    2    1    2    0    0 -0.36630691185E+02  0.19846043987E+02  0.12163448913E+02  0.47787280097E+02  0.20000041275E+02 0.  0.
        -12    1    1    2    0    0  0.36630691185E+02 -0.19846043987E+02 -0.12163448913E+02  0.43400719903E+02  0.00000000000E+00 0.  1.
         11    1    3    3    0    0 -0.17359848180E+02  0.10774633682E+02  0.14288354923E+02  0.24932190969E+02  0.51100000000E-03 0. -1.
        -11    1    3    3    0    0 -0.13027481883E+01 -0.13385405903E+00 -0.23213595612E+01  0.26652917710E+01  0.51100000000E-03 0.  1.
         12    1    3    3    0    0 -0.17968094816E+02  0.92052643641E+01  0.19645355156E+00  0.20189797358E+02  0.00000000000E+00 0. -1.
</event>
<event>
 7    1  0.7357971E-011  0.4778727E+02  0.7816164E-02  0.1312668E+00
        -11   -1    0    0    0    0  0.00000000000E+00  0.00000000000E+00  0.45593999997E+02  0.45594000000E+02  0.51100000000E-03 0. -1.
         11   -1    0    0    0    0 -0.00000000000E+00 -0.00000000000E+00 -0.45593999997E+02  0.45594000000E+02  0.51100000000E-03 0.  1.
    9900012    2    1    2    0    0  0.19425788116E+02 -0.22393646901E+02  0.31698368299E+02  0.47787271685E+02  0.20000002921E+02 0.  0.
        -12    1    1    2    0    0 -0.19425788116E+02  0.22393646901E+02 -0.31698368299E+02  0.43400728315E+02  0.00000000000E+00 0.  1.
         11    1    3    3    0    0  0.36889817384E+01 -0.81096469475E+01  0.19975521351E+02  0.21872274993E+02  0.51100000000E-03 0. -1.
        -11    1    3    3    0    0  0.75794166599E+00  0.12551047273E+01  0.12427457118E+01  0.19220251327E+01  0.51100000000E-03 0.  1.
         12    1    3    3    0    0  0.14978864712E+02 -0.15539104680E+02  0.10480101237E+02  0.23992971560E+02  0.00000000000E+00 0. -1.
</event>
<event>
 7    1  0.7357971E-011  0.4778727E+02  0.7816164E-02  0.1312668E+00
        -11   -1    0    0    0    0  0.00000000000E+00  0.00000000000E+00  0.45593999997E+02  0.45594000000E+02  0.51100000000E-03 0. -1.
         11   -1    0    0    0    0 -0.00000000000E+00 -0.00000000000E+00 -0.45593999997E+02  0.45594000000E+02  0.51100000000E-03 0.  1.
    9900012    2    1    2    0    0 -0.47878392162E+01  0.87472443411E+01  0.42239618838E+02  0.47787273192E+02  0.20000009792E+02 0.  0.
        -12    1    1    2    0    0  0.47878392162E+01 -0.87472443411E+01 -0.42239618838E+02  0.43400726808E+02  0.00000000000E+00 0.  1.
         11    1    3    3    0    0 -0.11055863512E+02  0.10897311269E+02  0.29016531235E+02  0.32908093169E+02  0.51100000000E-03 0. -1.
        -11    1    3    3    0    0  0.23001279890E+01 -0.86573238064E+00  0.32944286742E+01  0.41101510764E+01  0.51100000000E-03 0.  1.
         12    1    3    3    0    0  0.39678963065E+01 -0.12843345469E+01  0.99286589287E+01  0.10769028946E+02  0.00000000000E+00 0. -1.
</event>
<event>
 7    1  0.7357971E-011  0.4778727E+02  0.7816164E-02  0.1312668E+00
        -11   -1    0    0    0    0  0.00000000000E+00  0.00000000000E+00  0.45593999997E+02  0.45594000000E+02  0.51100000000E-03 0. -1.
         11   -1    0    0    0    0 -0.00000000000E+00 -0.00000000000E+00 -0.45593999997E+02  0.45594000000E+02  0.51100000000E-03 0.  1.
    9900012    2    1    2    0    0 -0.20184992068E+02 -0.23627674563E+02 -0.30297233180E+02  0.47787271338E+02  0.20000001337E+02 0.  0.
         12    1    1    2    0    0  0.20184992068E+02  0.23627674563E+02  0.30297233180E+02  0.43400728662E+02  0.00000000000E+00 0. -1.
         11    1    3    3    0    0  0.10536910424E+01 -0.43127734788E+01 -0.26780860955E+01  0.51848264473E+01  0.51100000000E-03 0. -1.
        -11    1    3    3    0    0 -0.20367034743E+02 -0.16779144924E+02 -0.29304901220E+02  0.39435175217E+02  0.51100000000E-03 0.  1.
        -12    1    3    3    0    0 -0.87164836653E+00 -0.25357561605E+01  0.16857541352E+01  0.31672696735E+01  0.00000000000E+00 0.  1.
</event>
<event>
 7    1  0.7357971E-011  0.4778727E+02  0.7816164E-02  0.1312668E+00
        -11   -1    0    0    0    0  0.00000000000E+00  0.00000000000E+00  0.45593999997E+02  0.45594000000E+02  0.51100000000E-03 0. -1.
         11   -1    0    0    0    0 -0.00000000000E+00 -0.00000000000E+00 -0.45593999997E+02  0.45594000000E+02  0.51100000000E-03 0.  1.
    9900012    2    1    2    0    0 -0.77351807735E+01 -0.28196985001E+02 -0.32073671111E+02  0.47787270014E+02  0.19999995303E+02 0.  0.
         12    1    1    2    0    0  0.77351807735E+01  0.28196985001E+02  0.32073671111E+02  0.43400729986E+02  0.00000000000E+00 0. -1.
         11    1    3    3    0    0 -0.13033123855E+02 -0.22466044841E+02 -0.18149828410E+02  0.31685986805E+02  0.51100000000E-03 0. -1.
        -11    1    3    3    0    0  0.33027109907E+01 -0.20223511946E+01 -0.68362433200E+01  0.78569731598E+01  0.51100000000E-03 0.  1.
         12    1    3    3    0    0  0.19952320909E+01 -0.37085889655E+01 -0.70875993809E+01  0.82443100497E+01  0.00000000000E+00 0. -1.
</event>
<event>
 7    1  0.7357971E-011  0.4778727E+02  0.7816164E-02  0.1312668E+00
        -11   -1    0    0    0    0  0.00000000000E+00  0.00000000000E+00  0.45593999997E+02  0.45594000000E+02  0.51100000000E-03 0. -1.
         11   -1    0    0    0    0 -0.00000000000E+00 -0.00000000000E+00 -0.45593999997E+02  0.45594000000E+02  0.51100000000E-03 0.  1.
    9900012    2    1    2    0    0 -0.58271850607E+01  0.13978753259E+02  0.40672614440E+02  0.47787271967E+02  0.20000004205E+02 0.  0.
        -12    1    1    2    0    0  0.58271850607E+01 -0.13978753259E+02 -0.40672614440E+02  0.43400728033E+02  0.00000000000E+00 0.  1.
         11    1    3    3    0    0  0.66520026570E+01  0.76440134822E+01  0.11982804861E+02  0.15692918596E+02  0.51100000000E-03 0. -1.
        -11    1    3    3    0    0 -0.75813077114E+00  0.17629477185E+00  0.43638914009E+00  0.89234402303E+00  0.51100000000E-03 0.  1.
         12    1    3    3    0    0 -0.11721056947E+02  0.61584450051E+01  0.28253420439E+02  0.31202009347E+02  0.00000000000E+00 0. -1.
</event>
<event>
 7    1  0.7357971E-011  0.4778727E+02  0.7816164E-02  0.1312668E+00
        -11   -1    0    0    0    0  0.00000000000E+00  0.00000000000E+00  0.45593999997E+02  0.45594000000E+02  0.51100000000E-03 0. -1.
         11   -1    0    0    0    0 -0.00000000000E+00 -0.00000000000E+00 -0.45593999997E+02  0.45594000000E+02  0.51100000000E-03 0.  1.
    9900012    2    1    2    0    0 -0.10705391493E+02 -0.12491535430E+02 -0.40161914733E+02  0.47787271210E+02  0.20000000756E+02 0.  0.
         12    1    1    2    0    0  0.10705391493E+02  0.12491535430E+02  0.40161914733E+02  0.43400728790E+02  0.00000000000E+00 0. -1.
         11    1    3    3    0    0 -0.12830591839E+01  0.93098474123E+00 -0.15926135753E+01  0.22470851607E+01  0.51100000000E-03 0. -1.
        -11    1    3    3    0    0 -0.80490905209E+01 -0.12399740462E+02 -0.12344355179E+02  0.19259400997E+02  0.51100000000E-03 0.  1.
        -12    1    3    3    0    0 -0.13732417883E+01 -0.10227797098E+01 -0.26224945979E+02  0.26280785052E+02  0.00000000000E+00 0.  1.
</event>
<event>
 7    1  0.7357971E-011  0.4778725E+02  0.7816164E-02  0.1312668E+00
        -11   -1    0    0    0    0  0.00000000000E+00  0.00000000000E+00  0.45593999997E+02  0.45594000000E+02  0.51100000000E-03 0. -1.
         11   -1    0    0    0    0 -0.00000000000E+00 -0.00000000000E+00 -0.45593999997E+02  0.45594000000E+02  0.51100000000E-03 0.  1.
    9900012    2    1    2    0    0 -0.31785495609E+01  0.42240357917E+02 -0.94484766715E+01  0.47787254319E+02  0.19999923743E+02 0.  0.
         12    1    1    2    0    0  0.31785495609E+01 -0.42240357917E+02  0.94484766715E+01  0.43400745681E+02  0.00000000000E+00 0. -1.
         11    1    3    3    0    0  0.29076843999E+01  0.91140617594E+01  0.53295353550E+01  0.10951013546E+02  0.51100000000E-03 0. -1.
        -11    1    3    3    0    0 -0.53339345399E+01  0.29938848357E+02 -0.13955275812E+02  0.33459456389E+02  0.51100000000E-03 0.  1.
        -12    1    3    3    0    0 -0.75229942094E+00  0.31874478002E+01 -0.82273621457E+00  0.33767843841E+01  0.00000000000E+00 0.  1.
</event>
<event>
 7    1  0.7357971E-011  0.4778729E+02  0.7816164E-02  0.1312668E+00
        -11   -1    0    0    0    0  0.00000000000E+00  0.00000000000E+00  0.45593999997E+02  0.45594000000E+02  0.51100000000E-03 0.  1.
         11   -1    0    0    0    0 -0.00000000000E+00 -0.00000000000E+00 -0.45593999997E+02  0.45594000000E+02  0.51100000000E-03 0. -1.
    9900012    2    1    2    0    0 -0.12295226501E+02  0.41622115226E+02 -0.22007951993E+00  0.47787291416E+02  0.20000092882E+02 0.  0.
        -12    1    1    2    0    0  0.12295226501E+02 -0.41622115226E+02  0.22007951993E+00  0.43400708584E+02  0.00000000000E+00 0.  1.
         11    1    3    3    0    0 -0.77029912538E+01  0.25886362532E+02  0.54668018957E+01  0.27555866211E+02  0.51100000000E-03 0. -1.
        -11    1    3    3    0    0 -0.15715459571E+01 -0.32561179674E+00 -0.33600442096E+01  0.37236644706E+01  0.51100000000E-03 0.  1.
         12    1    3    3    0    0 -0.30206892896E+01  0.16061364490E+02 -0.23268372060E+01  0.16507760734E+02  0.00000000000E+00 0. -1.
</event>
<event>
 7    1  0.7357971E-011  0.4778726E+02  0.7816164E-02  0.1312668E+00
        -11   -1    0    0    0    0  0.00000000000E+00  0.00000000000E+00  0.45593999997E+02  0.45594000000E+02  0.51100000000E-03 0. -1.
         11   -1    0    0    0    0 -0.00000000000E+00 -0.00000000000E+00 -0.45593999997E+02  0.45594000000E+02  0.51100000000E-03 0.  1.
    9900012    2    1    2    0    0 -0.17109320782E+02 -0.29726103491E+02  0.26594254180E+02  0.47787257590E+02  0.19999938654E+02 0.  0.
        -12    1    1    2    0    0  0.17109320782E+02  0.29726103491E+02 -0.26594254180E+02  0.43400742410E+02  0.00000000000E+00 0.  1.
         11    1    3    3    0    0 -0.41259881206E+00 -0.14370984252E+02  0.17681219333E+02  0.22788614340E+02  0.51100000000E-03 0. -1.
        -11    1    3    3    0    0 -0.47918272888E+01 -0.35440054547E+01  0.49969230506E+01  0.77775846934E+01  0.51100000000E-03 0.  1.
         12    1    3    3    0    0 -0.11904894682E+02 -0.11811113785E+02  0.39161117957E+01  0.17221058557E+02  0.00000000000E+00 0. -1.
</event>
<event>
 7    1  0.7357971E-011  0.4778727E+02  0.7816164E-02  0.1312668E+00
        -11   -1    0    0    0    0  0.00000000000E+00  0.00000000000E+00  0.45593999997E+02  0.45594000000E+02  0.51100000000E-03 0. -1.
         11   -1    0    0    0    0 -0.00000000000E+00 -0.00000000000E+00 -0.45593999997E+02  0.45594000000E+02  0.51100000000E-03 0.  1.
    9900012    2    1    2    0    0 -0.13133980820E+02 -0.32969458547E+02  0.24982722187E+02  0.47787273544E+02  0.20000011395E+02 0.  0.
        -12    1    1    2    0    0  0.13133980820E+02  0.32969458547E+02 -0.24982722187E+02  0.43400726456E+02  0.00000000000E+00 0.  1.
         11    1    3    3    0    0 -0.84452857847E+01 -0.28106412715E+02  0.24916181281E+02  0.38498173691E+02  0.51100000000E-03 0. -1.
        -11    1    3    3    0    0 -0.21182741768E+01  0.13729838119E+01  0.28639322698E+00  0.25405100625E+01  0.51100000000E-03 0.  1.
         12    1    3    3    0    0 -0.25704208588E+01 -0.62360296440E+01 -0.21985232093E+00  0.67485897901E+01  0.00000000000E+00 0. -1.
</event>
<event>
 7    1  0.7357971E-011  0.4778726E+02  0.7816164E-02  0.1312668E+00
        -11   -1    0    0    0    0  0.00000000000E+00  0.00000000000E+00  0.45593999997E+02  0.45594000000E+02  0.51100000000E-03 0. -1.
         11   -1    0    0    0    0 -0.00000000000E+00 -0.00000000000E+00 -0.45593999997E+02  0.45594000000E+02  0.51100000000E-03 0.  1.
    9900012    2    1    2    0    0 -0.26462813594E+02  0.66397315051E+01 -0.33752887641E+02  0.47787263118E+02  0.19999963862E+02 0.  0.
         12    1    1    2    0    0  0.26462813594E+02 -0.66397315051E+01  0.33752887641E+02  0.43400736882E+02  0.00000000000E+00 0. -1.
         11    1    3    3    0    0 -0.14979190547E+02  0.45334312474E+01 -0.30308901824E+02  0.34110961264E+02  0.51100000000E-03 0. -1.
        -11    1    3    3    0    0 -0.11835751049E+02  0.80989272633E+00 -0.28143153930E+01  0.12192674051E+02  0.51100000000E-03 0.  1.
         12    1    3    3    0    0  0.35212800180E+00  0.12964075314E+01 -0.62967042436E+00  0.14836278039E+01  0.00000000000E+00 0. -1.
</event>
<event>
 7    1  0.7357971E-011  0.4778727E+02  0.7816164E-02  0.1312668E+00
        -11   -1    0    0    0    0  0.00000000000E+00  0.00000000000E+00  0.45593999997E+02  0.45594000000E+02  0.51100000000E-03 0.  1.
         11   -1    0    0    0    0 -0.00000000000E+00 -0.00000000000E+00 -0.45593999997E+02  0.45594000000E+02  0.51100000000E-03 0. -1.
    9900012    2    1    2    0    0 -0.28224270152E+02  0.27269093216E+02  0.18531339443E+02  0.47787269453E+02  0.19999992744E+02 0.  0.
        -12    1    1    2    0    0  0.28224270152E+02 -0.27269093216E+02 -0.18531339443E+02  0.43400730547E+02  0.00000000000E+00 0.  1.
         11    1    3    3    0    0 -0.49014670282E+01  0.15862088057E+02  0.11272574654E+02  0.20067415284E+02  0.51100000000E-03 0. -1.
        -11    1    3    3    0    0 -0.13669875685E+02  0.35055437738E+01  0.53885251673E+01  0.15105977033E+02  0.51100000000E-03 0.  1.
         12    1    3    3    0    0 -0.96529274395E+01  0.79014613849E+01  0.18702396212E+01  0.12613877136E+02  0.00000000000E+00 0. -1.
</event>
<event>
 7    1  0.9351646E-011  0.4778731E+02  0.7816164E-02  0.1312668E+00
        -11   -1    0    0    0    0  0.00000000000E+00  0.00000000000E+00  0.45593999997E+02  0.45594000000E+02  0.51100000000E-03 0. -1.
         11   -1    0    0    0    0 -0.00000000000E+00 -0.00000000000E+00 -0.45593999997E+02  0.45594000000E+02  0.51100000000E-03 0.  1.
    9900012    2    1    2    0    0  0.12087859904E+02  0.32904445934E+02 -0.25589074971E+02  0.47787312481E+02  0.20000188923E+02 0.  0.
         12    1    1    2    0    0 -0.12087859904E+02 -0.32904445934E+02  0.25589074971E+02  0.43400687519E+02  0.00000000000E+00 0. -1.
         11    1    3    3    0    0  0.20698911002E+01  0.22925706149E+01  0.25980960627E+01  0.40361408057E+01  0.51100000000E-03 0. -1.
        -11    1    3    3    0    0  0.19879668948E+01  0.12745369694E+02 -0.16491178584E+02  0.20936939422E+02  0.51100000000E-03 0.  1.
        -12    1    3    3    0    0  0.80300019089E+01  0.17866505625E+02 -0.11695992450E+02  0.22814232253E+02  0.00000000000E+00 0.  1.
</event>
<event>
 7    1  0.7357971E-011  0.4778727E+02  0.7816164E-02  0.1312668E+00
        -11   -1    0    0    0    0  0.00000000000E+00  0.00000000000E+00  0.45593999997E+02  0.45594000000E+02  0.51100000000E-03 0. -1.
         11   -1    0    0    0    0 -0.00000000000E+00 -0.00000000000E+00 -0.45593999997E+02  0.45594000000E+02  0.51100000000E-03 0.  1.
    9900012    2    1    2    0    0  0.17041820596E+02 -0.22408886080E+02 -0.33030916290E+02  0.47787271256E+02  0.20000000964E+02 0.  0.
         12    1    1    2    0    0 -0.17041820596E+02  0.22408886080E+02  0.33030916290E+02  0.43400728744E+02  0.00000000000E+00 0. -1.
         11    1    3    3    0    0  0.69508503110E+01 -0.10295337776E+02 -0.19167882519E+01  0.12569104082E+02  0.51100000000E-03 0. -1.
        -11    1    3    3    0    0  0.94240403758E+01 -0.12338791026E+02 -0.30696639125E+02  0.34399737715E+02  0.51100000000E-03 0.  1.
         12    1    3    3    0    0  0.66692990912E+00  0.22524272179E+00 -0.41748891281E+00  0.81842945922E+00  0.00000000000E+00 0. -1.
</event>
<event>
 7    1  0.7357971E-011  0.4778728E+02  0.7816164E-02  0.1312668E+00
        -11   -1    0    0    0    0  0.00000000000E+00  0.00000000000E+00  0.45593999997E+02  0.45594000000E+02  0.51100000000E-03 0. -1.
         11   -1    0    0    0    0 -0.00000000000E+00 -0.00000000000E+00 -0.45593999997E+02  0.45594000000E+02  0.51100000000E-03 0.  1.
    9900012    2    1    2    0    0  0.77887589221E+01 -0.10756696018E+02 -0.41318899479E+02  0.47787277323E+02  0.20000028625E+02 0.  0.
         12    1    1    2    0    0 -0.77887589221E+01  0.10756696018E+02  0.41318899479E+02  0.43400722677E+02  0.00000000000E+00 0. -1.
         11    1    3    3    0    0  0.57520155805E+01 -0.37960398281E+01 -0.31037216788E+01  0.75583523426E+01  0.51100000000E-03 0. -1.
        -11    1    3    3    0    0 -0.22908605372E+01 -0.61285754998E+01 -0.31667714342E+02  0.32336536790E+02  0.51100000000E-03 0.  1.
        -12    1    3    3    0    0  0.43276038788E+01 -0.83208068993E+00 -0.65474634577E+01  0.78923881897E+01  0.00000000000E+00 0.  1.
</event>
<event>
 7    1  0.7357971E-011  0.4778727E+02  0.7816164E-02  0.1312668E+00
        -11   -1    0    0    0    0  0.00000000000E+00  0.00000000000E+00  0.45593999997E+02  0.45594000000E+02  0.51100000000E-03 0. -1.
         11   -1    0    0    0    0 -0.00000000000E+00 -0.00000000000E+00 -0.45593999997E+02  0.45594000000E+02  0.51100000000E-03 0.  1.
    9900012    2    1    2    0    0 -0.28267814921E+02  0.23671667665E+02 -0.22895539702E+02  0.47787274791E+02  0.20000017081E+02 0.  0.
         12    1    1    2    0    0  0.28267814921E+02 -0.23671667665E+02  0.22895539702E+02  0.43400725209E+02  0.00000000000E+00 0. -1.
         11    1    3    3    0    0  0.19539798921E+01  0.27904036091E+01 -0.32600249855E+01  0.47150983964E+01  0.51100000000E-03 0. -1.
        -11    1    3    3    0    0 -0.25313083523E+02  0.18530510386E+02 -0.20620587211E+02  0.37541185780E+02  0.51100000000E-03 0.  1.
        -12    1    3    3    0    0 -0.49087112904E+01  0.23507536706E+01  0.98507249536E+00  0.55309906141E+01  0.00000000000E+00 0.  1.
</event>
<event>
 7    1  0.7357971E-011  0.4778727E+02  0.7816164E-02  0.1312668E+00
        -11   -1    0    0    0    0  0.00000000000E+00  0.00000000000E+00  0.45593999997E+02  0.45594000000E+02  0.51100000000E-03 0.  1.
         11   -1    0    0    0    0 -0.00000000000E+00 -0.00000000000E+00 -0.45593999997E+02  0.45594000000E+02  0.51100000000E-03 0. -1.
    9900012    2    1    2    0    0 -0.24807318539E+02  0.19605129686E+01  0.35558072228E+02  0.47787272301E+02  0.20000005730E+02 0.  0.
        -12    1    1    2    0    0  0.24807318539E+02 -0.19605129686E+01 -0.35558072228E+02  0.43400727699E+02  0.00000000000E+00 0.  1.
         11    1    3    3    0    0 -0.53756810626E+01  0.75821173799E+01  0.16139274822E+02  0.18624248788E+02  0.51100000000E-03 0. -1.
        -11    1    3    3    0    0  0.41568056397E+00  0.30070935229E-01  0.23377220896E+01  0.23745819468E+01  0.51100000000E-03 0.  1.
         12    1    3    3    0    0 -0.19847318041E+02 -0.56516753465E+01  0.17081075316E+02  0.26788441567E+02  0.00000000000E+00 0. -1.
</event>
<event>
 7    1  0.7357971E-011  0.4778727E+02  0.7816164E-02  0.1312668E+00
        -11   -1    0    0    0    0  0.00000000000E+00  0.00000000000E+00  0.45593999997E+02  0.45594000000E+02  0.51100000000E-03 0. -1.
         11   -1    0    0    0    0 -0.00000000000E+00 -0.00000000000E+00 -0.45593999997E+02  0.45594000000E+02  0.51100000000E-03 0.  1.
    9900012    2    1    2    0    0 -0.33343007196E+02  0.16048869408E+02  0.22678204737E+02  0.47787270649E+02  0.19999998196E+02 0.  0.
        -12    1    1    2    0    0  0.33343007196E+02 -0.16048869408E+02 -0.22678204737E+02  0.43400729351E+02  0.00000000000E+00 0.  1.
         11    1    3    3    0    0 -0.70628921310E+01 -0.10483688357E+01  0.45669049644E+01  0.84758565163E+01  0.51100000000E-03 0. -1.
        -11    1    3    3    0    0 -0.14582911759E+02  0.13815098083E+02  0.18281584428E+02  0.27161269850E+02  0.51100000000E-03 0.  1.
        -12    1    3    3    0    0 -0.11697203306E+02  0.32821401603E+01 -0.17028465527E+00  0.12150144282E+02  0.00000000000E+00 0.  1.
</event>
<event>
 7    1  0.7357971E-011  0.4778727E+02  0.7816164E-02  0.1312668E+00
        -11   -1    0    0    0    0  0.00000000000E+00  0.00000000000E+00  0.45593999997E+02  0.45594000000E+02  0.51100000000E-03 0. -1.
         11   -1    0    0    0    0 -0.00000000000E+00 -0.00000000000E+00 -0.45593999997E+02  0.45594000000E+02  0.51100000000E-03 0.  1.
    9900012    2    1    2    0    0  0.12361234174E+02 -0.12022212506E+01  0.41585786484E+02  0.47787273235E+02  0.20000009989E+02 0.  0.
        -12    1    1    2    0    0 -0.12361234174E+02  0.12022212506E+01 -0.41585786484E+02  0.43400726765E+02  0.00000000000E+00 0.  1.
         11    1    3    3    0    0  0.24512026601E+01 -0.34084050049E+01  0.11084293472E+02  0.11852728850E+02  0.51100000000E-03 0. -1.
        -11    1    3    3    0    0  0.44850674537E+01 -0.33769363546E+01  0.13674157955E+01  0.57783523106E+01  0.51100000000E-03 0.  1.
        -12    1    3    3    0    0  0.54249640600E+01  0.55831201089E+01  0.29134077216E+02  0.30156192075E+02  0.00000000000E+00 0.  1.
</event>
<event>
 7    1  0.7357971E-011  0.4778726E+02  0.7816164E-02  0.1312668E+00
        -11   -1    0    0    0    0  0.00000000000E+00  0.00000000000E+00  0.45593999997E+02  0.45594000000E+02  0.51100000000E-03 0.  1.
         11   -1    0    0    0    0 -0.00000000000E+00 -0.00000000000E+00 -0.45593999997E+02  0.45594000000E+02  0.51100000000E-03 0. -1.
    9900012    2    1    2    0    0 -0.13060219765E+02 -0.40975691406E+02  0.58350082608E+01  0.47787263279E+02  0.19999964596E+02 0.  0.
        -12    1    1    2    0    0  0.13060219765E+02  0.40975691406E+02 -0.58350082608E+01  0.43400736721E+02  0.00000000000E+00 0.  1.
         11    1    3    3    0    0 -0.20516495240E+01 -0.11122309270E+02  0.62967258478E+00  0.11327467374E+02  0.51100000000E-03 0. -1.
        -11    1    3    3    0    0 -0.14221416360E+02 -0.17546249782E+02 -0.32932982114E+00  0.22588227533E+02  0.51100000000E-03 0.  1.
        -12    1    3    3    0    0  0.32128461192E+01 -0.12307132353E+02  0.55346654971E+01  0.13871568372E+02  0.00000000000E+00 0.  1.
</event>
<event>
 7    1  0.7357971E-011  0.4778727E+02  0.7816164E-02  0.1312668E+00
        -11   -1    0    0    0    0  0.00000000000E+00  0.00000000000E+00  0.45593999997E+02  0.45594000000E+02  0.51100000000E-03 0. -1.
         11   -1    0    0    0    0 -0.00000000000E+00 -0.00000000000E+00 -0.45593999997E+02  0.45594000000E+02  0.51100000000E-03 0.  1.
    9900012    2    1    2    0    0  0.20126438164E+02  0.11838078951E+02 -0.36584278009E+02  0.47787273925E+02  0.20000013132E+02 0.  0.
         12    1    1    2    0    0 -0.20126438164E+02 -0.11838078951E+02  0.36584278009E+02  0.43400726075E+02  0.00000000000E+00 0. -1.
         11    1    3    3    0    0  0.45634027608E+01  0.64943990916E+01 -0.79944364440E+00  0.79775293619E+01  0.51100000000E-03 0. -1.
        -11    1    3    3    0    0  0.14076653752E+02  0.33869901667E+01 -0.26410788887E+02  0.30118991569E+02  0.51100000000E-03 0.  1.
         12    1    3    3    0    0  0.14863816509E+01  0.19566896925E+01 -0.93740454775E+01  0.96907529934E+01  0.00000000000E+00 0. -1.
</event>
<event>
 7    1  0.7357971E-011  0.4778728E+02  0.7816164E-02  0.1312668E+00
        -11   -1    0    0    0    0  0.00000000000E+00  0.00000000000E+00  0.45593999997E+02  0.45594000000E+02  0.51100000000E-03 0. -1.
         11   -1    0    0    0    0 -0.00000000000E+00 -0.00000000000E+00 -0.45593999997E+02  0.45594000000E+02  0.51100000000E-03 0.  1.
    9900012    2    1    2    0    0  0.81699688659E+01  0.10956781028E+02  0.41192507716E+02  0.47787284180E+02  0.20000059892E+02 0.  0.
        -12    1    1    2    0    0 -0.81699688659E+01 -0.10956781028E+02 -0.41192507716E+02  0.43400715820E+02  0.00000000000E+00 0.  1.
         11    1    3    3    0    0  0.10053542479E+02 -0.20071297361E+01  0.23187098784E+02  0.25352393111E+02  0.51100000000E-03 0. -1.
        -11    1    3    3    0    0 -0.10593693762E+01  0.99647373560E+01  0.15421171208E+02  0.18391051513E+02  0.51100000000E-03 0.  1.
         12    1    3    3    0    0 -0.82420423651E+00  0.29991734078E+01  0.25842377232E+01  0.40438395571E+01  0.00000000000E+00 0. -1.
</event>
<event>
 7    1  0.7357971E-011  0.4778727E+02  0.7816164E-02  0.1312668E+00
        -11   -1    0    0    0    0  0.00000000000E+00  0.00000000000E+00  0.45593999997E+02  0.45594000000E+02  0.51100000000E-03 0. -1.
         11   -1    0    0    0    0 -0.00000000000E+00 -0.00000000000E+00 -0.45593999997E+02  0.45594000000E+02  0.51100000000E-03 0.  1.
    9900012    2    1    2    0    0 -0.23669236031E+02  0.18524574637E+02 -0.31308641289E+02  0.47787267067E+02  0.19999981865E+02 0.  0.
         12    1    1    2    0    0  0.23669236031E+02 -0.18524574637E+02  0.31308641289E+02  0.43400732933E+02  0.00000000000E+00 0. -1.
         11    1    3    3    0    0 -0.19048303554E+01 -0.56466015347E+00 -0.28436200138E+01  0.34689183928E+01  0.51100000000E-03 0.  1.
        -11    1    3    3    0    0 -0.26913377570E+01 -0.22010912297E+01  0.62767387976E+00  0.35329982005E+01  0.51100000000E-03 0. -1.
        -12    1    3    3    0    0 -0.19073067918E+02  0.21290326021E+02 -0.29092695155E+02  0.40785350474E+02  0.00000000000E+00 0.  1.
</event>
<event>
 7    1  0.7357971E-011  0.4778727E+02  0.7816164E-02  0.1312668E+00
        -11   -1    0    0    0    0  0.00000000000E+00  0.00000000000E+00  0.45593999997E+02  0.45594000000E+02  0.51100000000E-03 0. -1.
         11   -1    0    0    0    0 -0.00000000000E+00 -0.00000000000E+00 -0.45593999997E+02  0.45594000000E+02  0.51100000000E-03 0.  1.
    9900012    2    1    2    0    0 -0.13777142274E+02  0.37594594603E+02  0.16746937034E+02  0.47787273133E+02  0.20000009522E+02 0.  0.
        -12    1    1    2    0    0  0.13777142274E+02 -0.37594594603E+02 -0.16746937034E+02  0.43400726867E+02  0.00000000000E+00 0.  1.
         11    1    3    3    0    0  0.27633737800E+01  0.18216341074E+02  0.72693495693E+01  0.19806937174E+02  0.51100000000E-03 0. -1.
        -11    1    3    3    0    0 -0.57926721987E+01  0.24838450616E+01  0.23096843170E+01  0.67126134551E+01  0.51100000000E-03 0.  1.
         12    1    3    3    0    0 -0.10747843855E+02  0.16894408466E+02  0.71679031482E+01  0.21267722504E+02  0.00000000000E+00 0. -1.
</event>
<event>
 7    1  0.7357971E-011  0.4778727E+02  0.7816164E-02  0.1312668E+00
        -11   -1    0    0    0    0  0.00000000000E+00  0.00000000000E+00  0.45593999997E+02  0.45594000000E+02  0.51100000000E-03 0. -1.
         11   -1    0    0    0    0 -0.00000000000E+00 -0.00000000000E+00 -0.45593999997E+02  0.45594000000E+02  0.51100000000E-03 0.  1.
    9900012    2    1    2    0    0  0.12886997996E+02  0.25621665711E+02 -0.32574206571E+02  0.47787269535E+02  0.19999993117E+02 0.  0.
         12    1    1    2    0    0 -0.12886997996E+02 -0.25621665711E+02  0.32574206571E+02  0.43400730465E+02  0.00000000000E+00 0. -1.
         11    1    3    3    0    0  0.94118690775E+00  0.14986094446E+01  0.23515596371E+01  0.29430419723E+01  0.51100000000E-03 0. -1.
        -11    1    3    3    0    0  0.65225288362E+01  0.82331411403E+01 -0.18960206651E+02  0.21675272362E+02  0.51100000000E-03 0.  1.
         12    1    3    3    0    0  0.54232822525E+01  0.15889915126E+02 -0.15965559557E+02  0.23168955200E+02  0.00000000000E+00 0. -1.
</event>
<event>
 7    1  0.7357971E-011  0.4778727E+02  0.7816164E-02  0.1312668E+00
        -11   -1    0    0    0    0  0.00000000000E+00  0.00000000000E+00  0.45593999997E+02  0.45594000000E+02  0.51100000000E-03 0. -1.
         11   -1    0    0    0    0 -0.00000000000E+00 -0.00000000000E+00 -0.45593999997E+02  0.45594000000E+02  0.51100000000E-03 0.  1.
    9900012    2    1    2    0    0  0.83032781051E+01  0.17008940720E+01 -0.42565081869E+02  0.47787266568E+02  0.19999979589E+02 0.  0.
         12    1    1    2    0    0 -0.83032781051E+01 -0.17008940720E+01  0.42565081869E+02  0.43400733432E+02  0.00000000000E+00 0. -1.
         11    1    3    3    0    0  0.67474567434E+01 -0.16480123562E+01 -0.34845171138E+01  0.77708414607E+01  0.51100000000E-03 0. -1.
        -11    1    3    3    0    0 -0.31006340672E+01  0.14362125478E+01 -0.19618237619E+02  0.19913610562E+02  0.51100000000E-03 0.  1.
        -12    1    3    3    0    0  0.46564554289E+01  0.19126938804E+01 -0.19462327137E+02  0.20102814545E+02  0.00000000000E+00 0.  1.
</event>
<event>
 7    1  0.7357971E-011  0.4778727E+02  0.7816164E-02  0.1312668E+00
        -11   -1    0    0    0    0  0.00000000000E+00  0.00000000000E+00  0.45593999997E+02  0.45594000000E+02  0.51100000000E-03 0.  1.
         11   -1    0    0    0    0 -0.00000000000E+00 -0.00000000000E+00 -0.45593999997E+02  0.45594000000E+02  0.51100000000E-03 0. -1.
    9900012    2    1    2    0    0  0.19701765056E+02 -0.32099417971E+02  0.21565974102E+02  0.47787269368E+02  0.19999992357E+02 0.  0.
        -12    1    1    2    0    0 -0.19701765056E+02  0.32099417971E+02 -0.21565974102E+02  0.43400730632E+02  0.00000000000E+00 0.  1.
         11    1    3    3    0    0  0.15432303343E+02 -0.10444173761E+02  0.14636520508E+02  0.23695241819E+02  0.51100000000E-03 0. -1.
        -11    1    3    3    0    0 -0.18292997561E+01 -0.59480049903E+01  0.17542244295E+01  0.64654779075E+01  0.51100000000E-03 0.  1.
         12    1    3    3    0    0  0.60987614695E+01 -0.15707239220E+02  0.51752291648E+01  0.17626549642E+02  0.00000000000E+00 0. -1.
</event>
<event>
 7    1  0.7357971E-011  0.4778727E+02  0.7816164E-02  0.1312668E+00
        -11   -1    0    0    0    0  0.00000000000E+00  0.00000000000E+00  0.45593999997E+02  0.45594000000E+02  0.51100000000E-03 0. -1.
         11   -1    0    0    0    0 -0.00000000000E+00 -0.00000000000E+00 -0.45593999997E+02  0.45594000000E+02  0.51100000000E-03 0.  1.
    9900012    2    1    2    0    0 -0.74550663029E+01 -0.13402369290E+02  0.40600761616E+02  0.47787270052E+02  0.19999995476E+02 0.  0.
        -12    1    1    2    0    0  0.74550663029E+01  0.13402369290E+02 -0.40600761616E+02  0.43400729948E+02  0.00000000000E+00 0.  1.
         11    1    3    3    0    0 -0.39290520898E+00 -0.40844029987E+01  0.16049300462E+02  0.16565529510E+02  0.51100000000E-03 0. -1.
        -11    1    3    3    0    0 -0.29297165055E+00 -0.67092495463E-01 -0.21462355086E+01  0.21671780984E+01  0.51100000000E-03 0.  1.
        -12    1    3    3    0    0 -0.67691894434E+01 -0.92508737961E+01  0.26697696663E+02  0.29054562444E+02  0.00000000000E+00 0.  1.
</event>
<event>
 7    1  0.7357971E-011  0.4778727E+02  0.7816164E-02  0.1312668E+00
        -11   -1    0    0    0    0  0.00000000000E+00  0.00000000000E+00  0.45593999997E+02  0.45594000000E+02  0.51100000000E-03 0.  1.
         11   -1    0    0    0    0 -0.00000000000E+00 -0.00000000000E+00 -0.45593999997E+02  0.45594000000E+02  0.51100000000E-03 0. -1.
    9900012    2    1    2    0    0  0.16408083715E+02  0.40174195083E+02  0.65718253547E+00  0.47787273616E+02  0.20000011726E+02 0.  0.
        -12    1    1    2    0    0 -0.16408083715E+02 -0.40174195083E+02 -0.65718253547E+00  0.43400726384E+02  0.00000000000E+00 0.  1.
         11    1    3    3    0    0  0.40583508098E+01  0.31413289100E+02 -0.61330523300E+00  0.31680294932E+02  0.51100000000E-03 0. -1.
        -11    1    3    3    0    0  0.29709883676E+01  0.78580360593E+00 -0.16013769467E+01  0.34653524459E+01  0.51100000000E-03 0.  1.
         12    1    3    3    0    0  0.93787445374E+01  0.79751023765E+01  0.28718647152E+01  0.12641626239E+02  0.00000000000E+00 0. -1.
</event>
<event>
 7    1  0.7357971E-011  0.4778727E+02  0.7816164E-02  0.1312668E+00
        -11   -1    0    0    0    0  0.00000000000E+00  0.00000000000E+00  0.45593999997E+02  0.45594000000E+02  0.51100000000E-03 0. -1.
         11   -1    0    0    0    0 -0.00000000000E+00 -0.00000000000E+00 -0.45593999997E+02  0.45594000000E+02  0.51100000000E-03 0.  1.
    9900012    2    1    2    0    0 -0.22750398036E+02  0.23880077021E+02  0.28209652369E+02  0.47787272170E+02  0.20000005133E+02 0.  0.
        -12    1    1    2    0    0  0.22750398036E+02 -0.23880077021E+02 -0.28209652369E+02  0.43400727830E+02  0.00000000000E+00 0.  1.
         11    1    3    3    0    0 -0.62470896748E+01  0.14463674840E+02  0.16290028573E+02  0.22662503182E+02  0.51100000000E-03 0. -1.
        -11    1    3    3    0    0 -0.17713473698E+02  0.67366991448E+01  0.89949296680E+01  0.20977583889E+02  0.51100000000E-03 0.  1.
        -12    1    3    3    0    0  0.12101653370E+01  0.26797030365E+01  0.29246941277E+01  0.41471850993E+01  0.00000000000E+00 0.  1.
</event>
<event>
 7    1  0.7357971E-011  0.4778726E+02  0.7816164E-02  0.1312668E+00
        -11   -1    0    0    0    0  0.00000000000E+00  0.00000000000E+00  0.45593999997E+02  0.45594000000E+02  0.51100000000E-03 0. -1.
         11   -1    0    0    0    0 -0.00000000000E+00 -0.00000000000E+00 -0.45593999997E+02  0.45594000000E+02  0.51100000000E-03 0.  1.
    9900012    2    1    2    0    0  0.81270825416E+01  0.24637030194E+02 -0.34793550814E+02  0.47787263766E+02  0.19999966814E+02 0.  0.
         12    1    1    2    0    0 -0.81270825416E+01 -0.24637030194E+02  0.34793550814E+02  0.43400736234E+02  0.00000000000E+00 0. -1.
         11    1    3    3    0    0  0.16085590577E+01  0.17243212291E+02 -0.18767219249E+02  0.25536725533E+02  0.51100000000E-03 0.  1.
        -11    1    3    3    0    0 -0.30209885032E+00 -0.72219528544E+00  0.15431572235E+01  0.17303653439E+01  0.51100000000E-03 0. -1.
        -12    1    3    3    0    0  0.68206223342E+01  0.81160131882E+01 -0.17569488789E+02  0.20520172889E+02  0.00000000000E+00 0.  1.
</event>
<event>
 7    1  0.7357971E-011  0.4778727E+02  0.7816164E-02  0.1312668E+00
        -11   -1    0    0    0    0  0.00000000000E+00  0.00000000000E+00  0.45593999997E+02  0.45594000000E+02  0.51100000000E-03 0. -1.
         11   -1    0    0    0    0 -0.00000000000E+00 -0.00000000000E+00 -0.45593999997E+02  0.45594000000E+02  0.51100000000E-03 0.  1.
    9900012    2    1    2    0    0  0.66680994364E+00 -0.41336059073E+02  0.13210172281E+02  0.47787273429E+02  0.20000010874E+02 0.  0.
        -12    1    1    2    0    0 -0.66680994364E+00  0.41336059073E+02 -0.13210172281E+02  0.43400726571E+02  0.00000000000E+00 0.  1.
         11    1    3    3    0    0  0.47670797252E+01 -0.28299645306E+02  0.14267199364E+02  0.32049148999E+02  0.51100000000E-03 0. -1.
        -11    1    3    3    0    0 -0.46903283915E+01 -0.50037495687E+01 -0.29475782968E+01  0.74649118041E+01  0.51100000000E-03 0.  1.
        -12    1    3    3    0    0  0.59005860991E+00 -0.80326641976E+01  0.18905512137E+01  0.82732126267E+01  0.00000000000E+00 0.  1.
</event>
<event>
 7    1  0.7357971E-011  0.4778727E+02  0.7816164E-02  0.1312668E+00
        -11   -1    0    0    0    0  0.00000000000E+00  0.00000000000E+00  0.45593999997E+02  0.45594000000E+02  0.51100000000E-03 0. -1.
         11   -1    0    0    0    0 -0.00000000000E+00 -0.00000000000E+00 -0.45593999997E+02  0.45594000000E+02  0.51100000000E-03 0.  1.
    9900012    2    1    2    0    0 -0.23676503719E+02  0.35111735432E+02  0.94980258160E+01  0.47787270884E+02  0.19999999267E+02 0.  0.
        -12    1    1    2    0    0  0.23676503719E+02 -0.35111735432E+02 -0.94980258160E+01  0.43400729116E+02  0.00000000000E+00 0.  1.
         11    1    3    3    0    0 -0.12977586427E+02  0.10321345648E+02  0.65660133060E+01  0.17834249534E+02  0.51100000000E-03 0. -1.
        -11    1    3    3    0    0 -0.15903850545E+01  0.18536578866E+02  0.33145261294E+01  0.18897623247E+02  0.51100000000E-03 0.  1.
        -12    1    3    3    0    0 -0.91085322373E+01  0.62538109188E+01 -0.38251361944E+00  0.11055398102E+02  0.00000000000E+00 0.  1.
</event>
<event>
 7    1  0.7357971E-011  0.4778727E+02  0.7816164E-02  0.1312668E+00
        -11   -1    0    0    0    0  0.00000000000E+00  0.00000000000E+00  0.45593999997E+02  0.45594000000E+02  0.51100000000E-03 0. -1.
         11   -1    0    0    0    0 -0.00000000000E+00 -0.00000000000E+00 -0.45593999997E+02  0.45594000000E+02  0.51100000000E-03 0.  1.
    9900012    2    1    2    0    0  0.89055924938E+01 -0.19710221774E+02  0.37627396915E+02  0.47787269376E+02  0.19999992395E+02 0.  0.
        -12    1    1    2    0    0 -0.89055924938E+01  0.19710221774E+02 -0.37627396915E+02  0.43400730624E+02  0.00000000000E+00 0.  1.
         11    1    3    3    0    0  0.11895963136E+02 -0.47695597207E+01  0.17580937588E+02  0.21756654283E+02  0.51100000000E-03 0. -1.
        -11    1    3    3    0    0 -0.50396638331E+00 -0.12603266636E+02  0.12546418339E+02  0.17790697721E+02  0.51100000000E-03 0.  1.
        -12    1    3    3    0    0 -0.24864042590E+01 -0.23373954180E+01  0.75000409878E+01  0.82399173721E+01  0.00000000000E+00 0.  1.
</event>
<event>
 7    1  0.7357971E-011  0.4778732E+02  0.7816164E-02  0.1312668E+00
        -11   -1    0    0    0    0  0.00000000000E+00  0.00000000000E+00  0.45593999997E+02  0.45594000000E+02  0.51100000000E-03 0. -1.
         11   -1    0    0    0    0 -0.00000000000E+00 -0.00000000000E+00 -0.45593999997E+02  0.45594000000E+02  0.51100000000E-03 0.  1.
    9900012    2    1    2    0    0  0.18246316977E+02  0.17486252555E+02 -0.35283447942E+02  0.47787322467E+02  0.20000234456E+02 0.  0.
         12    1    1    2    0    0 -0.18246316977E+02 -0.17486252555E+02  0.35283447942E+02  0.43400677533E+02  0.00000000000E+00 0. -1.
         11    1    3    3    0    0  0.15447918819E+02  0.11442212869E+02 -0.14754531073E+02  0.24233419458E+02  0.51100000000E-03 0. -1.
        -11    1    3    3    0    0  0.41543079298E+01  0.20652588246E+01 -0.18129769596E+02  0.18713955067E+02  0.51100000000E-03 0.  1.
         12    1    3    3    0    0 -0.13559097715E+01  0.39787808609E+01 -0.23991472729E+01  0.48399479424E+01  0.00000000000E+00 0. -1.
</event>
<event>
 7    1  0.7357971E-011  0.4778727E+02  0.7816164E-02  0.1312668E+00
        -11   -1    0    0    0    0  0.00000000000E+00  0.00000000000E+00  0.45593999997E+02  0.45594000000E+02  0.51100000000E-03 0. -1.
         11   -1    0    0    0    0 -0.00000000000E+00 -0.00000000000E+00 -0.45593999997E+02  0.45594000000E+02  0.51100000000E-03 0.  1.
    9900012    2    1    2    0    0  0.23236597609E+02  0.12279497891E+02  0.34538353750E+02  0.47787269399E+02  0.19999992499E+02 0.  0.
        -12    1    1    2    0    0 -0.23236597609E+02 -0.12279497891E+02 -0.34538353750E+02  0.43400730601E+02  0.00000000000E+00 0.  1.
         11    1    3    3    0    0  0.15716009185E+02  0.76235133135E+01  0.31676040141E+02  0.36172951486E+02  0.51100000000E-03 0. -1.
        -11    1    3    3    0    0  0.10329254687E+01  0.40826825472E+00 -0.21226743482E+01  0.23956971097E+01  0.51100000000E-03 0.  1.
        -12    1    3    3    0    0  0.64876629551E+01  0.42477163232E+01  0.49849879572E+01  0.92186208033E+01  0.00000000000E+00 0.  1.
</event>
<event>
 7    1  0.7357971E-011  0.4778727E+02  0.7816164E-02  0.1312668E+00
        -11   -1    0    0    0    0  0.00000000000E+00  0.00000000000E+00  0.45593999997E+02  0.45594000000E+02  0.51100000000E-03 0. -1.
         11   -1    0    0    0    0 -0.00000000000E+00 -0.00000000000E+00 -0.45593999997E+02  0.45594000000E+02  0.51100000000E-03 0.  1.
    9900012    2    1    2    0    0  0.18630892615E+02 -0.10487224887E+02 -0.37769447646E+02  0.47787271654E+02  0.20000002781E+02 0.  0.
         12    1    1    2    0    0 -0.18630892615E+02  0.10487224887E+02  0.37769447646E+02  0.43400728346E+02  0.00000000000E+00 0. -1.
         11    1    3    3    0    0  0.17025983509E+02 -0.66998310654E+01 -0.26956981487E+02  0.32579912552E+02  0.51100000000E-03 0. -1.
        -11    1    3    3    0    0 -0.15542681680E+01 -0.47647705036E+01 -0.10793542863E+02  0.11900393073E+02  0.51100000000E-03 0.  1.
         12    1    3    3    0    0  0.31591772739E+01  0.97737668244E+00 -0.18923295756E-01  0.33069660292E+01  0.00000000000E+00 0. -1.
</event>
<event>
 7    1  0.7357971E-011  0.4778726E+02  0.7816164E-02  0.1312668E+00
        -11   -1    0    0    0    0  0.00000000000E+00  0.00000000000E+00  0.45593999997E+02  0.45594000000E+02  0.51100000000E-03 0. -1.
         11   -1    0    0    0    0 -0.00000000000E+00 -0.00000000000E+00 -0.45593999997E+02  0.45594000000E+02  0.51100000000E-03 0.  1.
    9900012    2    1    2    0    0 -0.14583030881E+02 -0.19157557402E+02  0.36110207488E+02  0.47787264060E+02  0.19999968156E+02 0.  0.
        -12    1    1    2    0    0  0.14583030881E+02  0.19157557402E+02 -0.36110207488E+02  0.43400735940E+02  0.00000000000E+00 0.  1.
         11    1    3    3    0    0  0.39813703168E+00 -0.29204637987E+01  0.29524955224E+01  0.41719122674E+01  0.51100000000E-03 0. -1.
        -11    1    3    3    0    0 -0.96138153023E+01 -0.19688597435E+02  0.24645109596E+02  0.32976472535E+02  0.51100000000E-03 0.  1.
        -12    1    3    3    0    0 -0.53673526105E+01  0.34515038321E+01  0.85126023700E+01  0.10638879258E+02  0.00000000000E+00 0.  1.
</event>
<event>
 7    1  0.7357971E-011  0.4778727E+02  0.7816164E-02  0.1312668E+00
        -11   -1    0    0    0    0  0.00000000000E+00  0.00000000000E+00  0.45593999997E+02  0.45594000000E+02  0.51100000000E-03 0. -1.
         11   -1    0    0    0    0 -0.00000000000E+00 -0.00000000000E+00 -0.45593999997E+02  0.45594000000E+02  0.51100000000E-03 0.  1.
    9900012    2    1    2    0    0  0.66262240415E+01  0.26278665476E+02  0.33899087680E+02  0.47787271322E+02  0.20000001265E+02 0.  0.
        -12    1    1    2    0    0 -0.66262240415E+01 -0.26278665476E+02 -0.33899087680E+02  0.43400728678E+02  0.00000000000E+00 0.  1.
         11    1    3    3    0    0  0.80817184267E+01  0.22653333846E+02  0.21978195812E+02  0.32581111069E+02  0.51100000000E-03 0. -1.
        -11    1    3    3    0    0  0.31866356307E+00 -0.27760243629E+01  0.33451618949E+01  0.43586656323E+01  0.51100000000E-03 0.  1.
         12    1    3    3    0    0 -0.17741579483E+01  0.64013559925E+01  0.85757299733E+01  0.10847494621E+02  0.00000000000E+00 0. -1.
</event>
<event>
 7    1  0.7357971E-011  0.4778727E+02  0.7816164E-02  0.1312668E+00
        -11   -1    0    0    0    0  0.00000000000E+00  0.00000000000E+00  0.45593999997E+02  0.45594000000E+02  0.51100000000E-03 0. -1.
         11   -1    0    0    0    0 -0.00000000000E+00 -0.00000000000E+00 -0.45593999997E+02  0.45594000000E+02  0.51100000000E-03 0.  1.
    9900012    2    1    2    0    0 -0.35662009273E+02 -0.16998496101E+02  0.17969295873E+02  0.47787269946E+02  0.19999994990E+02 0.  0.
        -12    1    1    2    0    0  0.35662009273E+02  0.16998496101E+02 -0.17969295873E+02  0.43400730054E+02  0.00000000000E+00 0.  1.
         11    1    3    3    0    0 -0.20248193473E+02 -0.14428866483E+02  0.15822620575E+02  0.29470949238E+02  0.51100000000E-03 0. -1.
        -11    1    3    3    0    0  0.18756144728E+00  0.17040154071E+01 -0.77009427037E+00  0.18793331930E+01  0.51100000000E-03 0.  1.
        -12    1    3    3    0    0 -0.15601377248E+02 -0.42736450243E+01  0.29167695685E+01  0.16436987514E+02  0.00000000000E+00 0.  1.
</event>
<event>
 7    1  0.7357971E-011  0.4778726E+02  0.7816164E-02  0.1312668E+00
        -11   -1    0    0    0    0  0.00000000000E+00  0.00000000000E+00  0.45593999997E+02  0.45594000000E+02  0.51100000000E-03 0. -1.
         11   -1    0    0    0    0 -0.00000000000E+00 -0.00000000000E+00 -0.45593999997E+02  0.45594000000E+02  0.51100000000E-03 0.  1.
    9900012    2    1    2    0    0 -0.14668118916E+02 -0.30067604807E+02  0.27647953055E+02  0.47787264067E+02  0.19999968188E+02 0.  0.
        -12    1    1    2    0    0  0.14668118916E+02  0.30067604807E+02 -0.27647953055E+02  0.43400735933E+02  0.00000000000E+00 0.  1.
         11    1    3    3    0    0  0.16880546814E+01 -0.81956974388E+01  0.58753292454E+00  0.83883359681E+01  0.51100000000E-03 0. -1.
        -11    1    3    3    0    0 -0.12372878940E+01 -0.70278336778E+00  0.52883235034E+01  0.54764177646E+01  0.51100000000E-03 0.  1.
         12    1    3    3    0    0 -0.15118885703E+02 -0.21169124000E+02  0.21772096627E+02  0.33922510335E+02  0.00000000000E+00 0. -1.
</event>
<event>
 7    1  0.7357971E-011  0.4778727E+02  0.7816164E-02  0.1312668E+00
        -11   -1    0    0    0    0  0.00000000000E+00  0.00000000000E+00  0.45593999997E+02  0.45594000000E+02  0.51100000000E-03 0. -1.
         11   -1    0    0    0    0 -0.00000000000E+00 -0.00000000000E+00 -0.45593999997E+02  0.45594000000E+02  0.51100000000E-03 0.  1.
    9900012    2    1    2    0    0  0.37249669901E+02  0.13364387828E+02  0.17817924319E+02  0.47787271932E+02  0.20000004048E+02 0.  0.
        -12    1    1    2    0    0 -0.37249669901E+02 -0.13364387828E+02 -0.17817924319E+02  0.43400728068E+02  0.00000000000E+00 0.  1.
         11    1    3    3    0    0  0.29664096848E+02  0.11965094827E+02  0.14368158937E+02  0.35065169720E+02  0.51100000000E-03 0. -1.
        -11    1    3    3    0    0  0.73692964841E+01 -0.25068280889E+01  0.40330281847E+01  0.87667573445E+01  0.51100000000E-03 0.  1.
         12    1    3    3    0    0  0.21627656885E+00  0.39061210901E+01 -0.58326280201E+00  0.39553448676E+01  0.00000000000E+00 0. -1.
</event>
<event>
 7    1  0.7357971E-011  0.4778727E+02  0.7816164E-02  0.1312668E+00
        -11   -1    0    0    0    0  0.00000000000E+00  0.00000000000E+00  0.45593999997E+02  0.45594000000E+02  0.51100000000E-03 0. -1.
         11   -1    0    0    0    0 -0.00000000000E+00 -0.00000000000E+00 -0.45593999997E+02  0.45594000000E+02  0.51100000000E-03 0.  1.
    9900012    2    1    2    0    0 -0.15536758888E+01  0.15501387483E+02  0.40508223304E+02  0.47787273302E+02  0.20000010294E+02 0.  0.
        -12    1    1    2    0    0  0.15536758888E+01 -0.15501387483E+02 -0.40508223304E+02  0.43400726698E+02  0.00000000000E+00 0.  1.
         11    1    3    3    0    0 -0.27047470717E+01  0.30226638290E+01  0.40654418175E+01  0.57428190619E+01  0.51100000000E-03 0. -1.
        -11    1    3    3    0    0 -0.52636106021E+00  0.90711414844E+01  0.49963390133E+01  0.10369477691E+02  0.51100000000E-03 0.  1.
        -12    1    3    3    0    0  0.16774322431E+01  0.34075821699E+01  0.31446442473E+02  0.31674976549E+02  0.00000000000E+00 0.  1.
</event>
<event>
 7    1  0.7357971E-011  0.4778727E+02  0.7816164E-02  0.1312668E+00
        -11   -1    0    0    0    0  0.00000000000E+00  0.00000000000E+00  0.45593999997E+02  0.45594000000E+02  0.51100000000E-03 0. -1.
         11   -1    0    0    0    0 -0.00000000000E+00 -0.00000000000E+00 -0.45593999997E+02  0.45594000000E+02  0.51100000000E-03 0.  1.
    9900012    2    1    2    0    0  0.31168738343E+02  0.26111434854E+02  0.15176511970E+02  0.47787265034E+02  0.19999972595E+02 0.  0.
        -12    1    1    2    0    0 -0.31168738343E+02 -0.26111434854E+02 -0.15176511970E+02  0.43400734966E+02  0.00000000000E+00 0.  1.
         11    1    3    3    0    0  0.36298290550E+01  0.29443762667E+01  0.20405753655E+01  0.50998979060E+01  0.51100000000E-03 0. -1.
        -11    1    3    3    0    0  0.13821929641E+02  0.16423606493E+00  0.49414756718E+01  0.14679608120E+02  0.51100000000E-03 0.  1.
        -12    1    3    3    0    0  0.13716979646E+02  0.23002822523E+02  0.81944609331E+01  0.28007759007E+02  0.00000000000E+00 0.  1.
</event>
<event>
 7    1  0.7357971E-011  0.4778727E+02  0.7816164E-02  0.1312668E+00
        -11   -1    0    0    0    0  0.00000000000E+00  0.00000000000E+00  0.45593999997E+02  0.45594000000E+02  0.51100000000E-03 0. -1.
         11   -1    0    0    0    0 -0.00000000000E+00 -0.00000000000E+00 -0.45593999997E+02  0.45594000000E+02  0.51100000000E-03 0.  1.
    9900012    2    1    2    0    0 -0.17435781360E+02 -0.53561711889E+01 -0.39381825561E+02  0.47787271597E+02  0.20000002519E+02 0.  0.
         12    1    1    2    0    0  0.17435781360E+02  0.53561711889E+01  0.39381825561E+02  0.43400728403E+02  0.00000000000E+00 0. -1.
         11    1    3    3    0    0 -0.51774214026E+01 -0.40948550752E+01 -0.28911448528E+02  0.29655444470E+02  0.51100000000E-03 0.  1.
        -11    1    3    3    0    0 -0.11124592701E+02 -0.37456760225E+01 -0.68289297398E+01  0.13580166910E+02  0.51100000000E-03 0. -1.
        -12    1    3    3    0    0 -0.11337672557E+01  0.24843599088E+01 -0.36414472926E+01  0.45516602170E+01  0.00000000000E+00 0.  1.
</event>
<event>
 7    1  0.8102627E-011  0.4778727E+02  0.7816164E-02  0.1312668E+00
        -11   -1    0    0    0    0  0.00000000000E+00  0.00000000000E+00  0.45593999997E+02  0.45594000000E+02  0.51100000000E-03 0. -1.
         11   -1    0    0    0    0 -0.00000000000E+00 -0.00000000000E+00 -0.45593999997E+02  0.45594000000E+02  0.51100000000E-03 0.  1.
    9900012    2    1    2    0    0  0.48494442014E+01  0.25564278708E+02 -0.34735773048E+02  0.47787269774E+02  0.19999994207E+02 0.  0.
         12    1    1    2    0    0 -0.48494442014E+01 -0.25564278708E+02  0.34735773048E+02  0.43400730226E+02  0.00000000000E+00 0. -1.
         11    1    3    3    0    0 -0.21786719907E+01 -0.69856071763E-03  0.52896899976E+00  0.22419680183E+01  0.51100000000E-03 0. -1.
        -11    1    3    3    0    0  0.74960734740E+01  0.19715065728E+02 -0.33181788549E+02  0.39318011468E+02  0.51100000000E-03 0.  1.
        -12    1    3    3    0    0 -0.46795728191E+00  0.58499115405E+01 -0.20829534985E+01  0.62272902876E+01  0.00000000000E+00 0.  1.
</event>
<event>
 7    1  0.7812314E-011  0.4778725E+02  0.7816164E-02  0.1312668E+00
        -11   -1    0    0    0    0  0.00000000000E+00  0.00000000000E+00  0.45593999997E+02  0.45594000000E+02  0.51100000000E-03 0. -1.
         11   -1    0    0    0    0 -0.00000000000E+00 -0.00000000000E+00 -0.45593999997E+02  0.45594000000E+02  0.51100000000E-03 0.  1.
    9900012    2    1    2    0    0  0.34390977836E+02 -0.13369498692E+02 -0.22850423761E+02  0.47787254408E+02  0.19999924150E+02 0.  0.
         12    1    1    2    0    0 -0.34390977836E+02  0.13369498692E+02  0.22850423761E+02  0.43400745592E+02  0.00000000000E+00 0. -1.
         11    1    3    3    0    0  0.61850460430E+01  0.19064658022E+01 -0.17769918409E+00  0.64746415862E+01  0.51100000000E-03 0. -1.
        -11    1    3    3    0    0  0.29393902461E+02 -0.13957842557E+02 -0.20310078846E+02  0.38357817635E+02  0.51100000000E-03 0.  1.
        -12    1    3    3    0    0 -0.11879706672E+01 -0.13181219373E+01 -0.23626457313E+01  0.29547951873E+01  0.00000000000E+00 0.  1.
</event>
<event>
 7    1  0.7357971E-011  0.4778727E+02  0.7816164E-02  0.1312668E+00
        -11   -1    0    0    0    0  0.00000000000E+00  0.00000000000E+00  0.45593999997E+02  0.45594000000E+02  0.51100000000E-03 0. -1.
         11   -1    0    0    0    0 -0.00000000000E+00 -0.00000000000E+00 -0.45593999997E+02  0.45594000000E+02  0.51100000000E-03 0.  1.
    9900012    2    1    2    0    0  0.33442097582E+02 -0.24710687002E+02 -0.12435085410E+02  0.47787270837E+02  0.19999999052E+02 0.  0.
         12    1    1    2    0    0 -0.33442097582E+02  0.24710687002E+02  0.12435085410E+02  0.43400729163E+02  0.00000000000E+00 0. -1.
         11    1    3    3    0    0 -0.92827660772E+00 -0.15749870611E+01  0.16485911284E+01  0.24617340784E+01  0.51100000000E-03 0. -1.
        -11    1    3    3    0    0  0.52558833855E+01 -0.83265271736E+01 -0.24248595547E+00  0.98495768759E+01  0.51100000000E-03 0.  1.
         12    1    3    3    0    0  0.29114490804E+02 -0.14809172767E+02 -0.13841190582E+02  0.35475959882E+02  0.00000000000E+00 0. -1.
</event>
<event>
 7    1  0.7357971E-011  0.4778726E+02  0.7816164E-02  0.1312668E+00
        -11   -1    0    0    0    0  0.00000000000E+00  0.00000000000E+00  0.45593999997E+02  0.45594000000E+02  0.51100000000E-03 0. -1.
         11   -1    0    0    0    0 -0.00000000000E+00 -0.00000000000E+00 -0.45593999997E+02  0.45594000000E+02  0.51100000000E-03 0.  1.
    9900012    2    1    2    0    0  0.27930597700E+02 -0.32426324073E+02  0.72138389378E+01  0.47787259765E+02  0.19999948571E+02 0.  0.
        -12    1    1    2    0    0 -0.27930597700E+02  0.32426324073E+02 -0.72138389378E+01  0.43400740235E+02  0.00000000000E+00 0.  1.
         11    1    3    3    0    0  0.16442684698E+02 -0.10301864176E+02  0.90469740277E+00  0.19424437270E+02  0.51100000000E-03 0. -1.
        -11    1    3    3    0    0  0.44066921691E+01 -0.19204269960E+02  0.26729802770E+01  0.19883856377E+02  0.51100000000E-03 0.  1.
        -12    1    3    3    0    0  0.70812208325E+01 -0.29201899365E+01  0.36361612580E+01  0.84789661184E+01  0.00000000000E+00 0.  1.
</event>
<event>
 7    1  0.7357971E-011  0.4778727E+02  0.7816164E-02  0.1312668E+00
        -11   -1    0    0    0    0  0.00000000000E+00  0.00000000000E+00  0.45593999997E+02  0.45594000000E+02  0.51100000000E-03 0. -1.
         11   -1    0    0    0    0 -0.00000000000E+00 -0.00000000000E+00 -0.45593999997E+02  0.45594000000E+02  0.51100000000E-03 0.  1.
    9900012    2    1    2    0    0  0.57561072847E+01 -0.26911437653E+02 -0.33559873524E+02  0.47787270069E+02  0.19999995553E+02 0.  0.
         12    1    1    2    0    0 -0.57561072847E+01  0.26911437653E+02  0.33559873524E+02  0.43400729931E+02  0.00000000000E+00 0. -1.
         11    1    3    3    0    0 -0.55562423317E+01 -0.80986649267E+01 -0.14149700728E+02  0.17224233899E+02  0.51100000000E-03 0. -1.
        -11    1    3    3    0    0 -0.12622852333E+01 -0.86103132458E+00 -0.47870484971E+00  0.16012175200E+01  0.51100000000E-03 0.  1.
         12    1    3    3    0    0  0.12574634850E+02 -0.17951741402E+02 -0.18931467946E+02  0.28961818651E+02  0.00000000000E+00 0. -1.
</event>
<event>
 7    1  0.7357971E-011  0.4778725E+02  0.7816164E-02  0.1312668E+00
        -11   -1    0    0    0    0  0.00000000000E+00  0.00000000000E+00  0.45593999997E+02  0.45594000000E+02  0.51100000000E-03 0. -1.
         11   -1    0    0    0    0 -0.00000000000E+00 -0.00000000000E+00 -0.45593999997E+02  0.45594000000E+02  0.51100000000E-03 0.  1.
    9900012    2    1    2    0    0 -0.25284386745E+02 -0.28006956444E+02  0.21446097976E+02  0.47787251841E+02  0.19999912446E+02 0.  0.
        -12    1    1    2    0    0  0.25284386745E+02  0.28006956444E+02 -0.21446097976E+02  0.43400748159E+02  0.00000000000E+00 0.  1.
         11    1    3    3    0    0 -0.52754247378E+01 -0.34568526915E+01  0.20769730141E+01  0.66403127831E+01  0.51100000000E-03 0. -1.
        -11    1    3    3    0    0 -0.27982004879E+01 -0.25077774763E+01 -0.34130119118E+01  0.50761722206E+01  0.51100000000E-03 0.  1.
        -12    1    3    3    0    0 -0.17210761519E+02 -0.22042326276E+02  0.22782136874E+02  0.36070766838E+02  0.00000000000E+00 0.  1.
</event>
<event>
 7    1  0.7357971E-011  0.4778726E+02  0.7816164E-02  0.1312668E+00
        -11   -1    0    0    0    0  0.00000000000E+00  0.00000000000E+00  0.45593999997E+02  0.45594000000E+02  0.51100000000E-03 0. -1.
         11   -1    0    0    0    0 -0.00000000000E+00 -0.00000000000E+00 -0.45593999997E+02  0.45594000000E+02  0.51100000000E-03 0.  1.
    9900012    2    1    2    0    0 -0.27397014414E+02 -0.77974352044E+01 -0.32744894742E+02  0.47787256617E+02  0.19999934218E+02 0.  0.
         12    1    1    2    0    0  0.27397014414E+02  0.77974352044E+01  0.32744894742E+02  0.43400743383E+02  0.00000000000E+00 0. -1.
         11    1    3    3    0    0 -0.23504530251E+02 -0.14550184293E+01 -0.19376093663E+02  0.30496114946E+02  0.51100000000E-03 0. -1.
        -11    1    3    3    0    0 -0.56546485899E+01 -0.35480440628E+01 -0.51437662489E+01  0.84274550625E+01  0.51100000000E-03 0.  1.
         12    1    3    3    0    0  0.17621644268E+01 -0.27943727124E+01 -0.82250348305E+01  0.88636866080E+01  0.00000000000E+00 0. -1.
</event>
<event>
 7    1  0.7357971E-011  0.4778727E+02  0.7816164E-02  0.1312668E+00
        -11   -1    0    0    0    0  0.00000000000E+00  0.00000000000E+00  0.45593999997E+02  0.45594000000E+02  0.51100000000E-03 0. -1.
         11   -1    0    0    0    0 -0.00000000000E+00 -0.00000000000E+00 -0.45593999997E+02  0.45594000000E+02  0.51100000000E-03 0.  1.
    9900012    2    1    2    0    0  0.13228485001E+02  0.41117863540E+02 -0.42369502035E+01  0.47787271152E+02  0.20000000492E+02 0.  0.
         12    1    1    2    0    0 -0.13228485001E+02 -0.41117863540E+02  0.42369502035E+01  0.43400728848E+02  0.00000000000E+00 0. -1.
         11    1    3    3    0    0  0.28980418657E+01  0.11085830130E+02 -0.69742482244E+01  0.13413963430E+02  0.51100000000E-03 0. -1.
        -11    1    3    3    0    0  0.34915665880E+01  0.12746733383E+02  0.74835247650E+01  0.15187935750E+02  0.51100000000E-03 0.  1.
        -12    1    3    3    0    0  0.68388765470E+01  0.17285300026E+02 -0.47462267442E+01  0.19185371973E+02  0.00000000000E+00 0.  1.
</event>
<event>
 7    1  0.7357971E-011  0.4778727E+02  0.7816164E-02  0.1312668E+00
        -11   -1    0    0    0    0  0.00000000000E+00  0.00000000000E+00  0.45593999997E+02  0.45594000000E+02  0.51100000000E-03 0. -1.
         11   -1    0    0    0    0 -0.00000000000E+00 -0.00000000000E+00 -0.45593999997E+02  0.45594000000E+02  0.51100000000E-03 0.  1.
    9900012    2    1    2    0    0 -0.29549660962E+01  0.15504207754E+02  0.40429088612E+02  0.47787268570E+02  0.19999988717E+02 0.  0.
        -12    1    1    2    0    0  0.29549660962E+01 -0.15504207754E+02 -0.40429088612E+02  0.43400731430E+02  0.00000000000E+00 0.  1.
         11    1    3    3    0    0 -0.44918990646E+01  0.71692273977E+01  0.21740528596E+02  0.23328642536E+02  0.51100000000E-03 0.  1.
        -11    1    3    3    0    0  0.59652607230E+01  0.85830292416E+01  0.89615821420E+01  0.13768176394E+02  0.51100000000E-03 0. -1.
         12    1    3    3    0    0 -0.44283277546E+01 -0.24804888507E+00  0.97269778735E+01  0.10690449640E+02  0.00000000000E+00 0. -1.
</event>
<event>
 7    1  0.7357971E-011  0.4778727E+02  0.7816164E-02  0.1312668E+00
        -11   -1    0    0    0    0  0.00000000000E+00  0.00000000000E+00  0.45593999997E+02  0.45594000000E+02  0.51100000000E-03 0. -1.
         11   -1    0    0    0    0 -0.00000000000E+00 -0.00000000000E+00 -0.45593999997E+02  0.45594000000E+02  0.51100000000E-03 0.  1.
    9900012    2    1    2    0    0  0.14385538531E+02 -0.27173346712E+02 -0.30631497987E+02  0.47787272365E+02  0.20000006020E+02 0.  0.
         12    1    1    2    0    0 -0.14385538531E+02  0.27173346712E+02  0.30631497987E+02  0.43400727635E+02  0.00000000000E+00 0. -1.
         11    1    3    3    0    0 -0.17921951910E+01 -0.10864742016E+02 -0.14736908008E+02  0.18396495334E+02  0.51100000000E-03 0. -1.
        -11    1    3    3    0    0  0.13616906073E+02 -0.12832754117E+02 -0.16603638529E+02  0.25015605567E+02  0.51100000000E-03 0.  1.
         12    1    3    3    0    0  0.25608276482E+01 -0.34758505792E+01  0.70904854960E+00  0.43751714638E+01  0.00000000000E+00 0. -1.
</event>
<event>
 7    1  0.7357971E-011  0.4778729E+02  0.7816164E-02  0.1312668E+00
        -11   -1    0    0    0    0  0.00000000000E+00  0.00000000000E+00  0.45593999997E+02  0.45594000000E+02  0.51100000000E-03 0. -1.
         11   -1    0    0    0    0 -0.00000000000E+00 -0.00000000000E+00 -0.45593999997E+02  0.45594000000E+02  0.51100000000E-03 0.  1.
    9900012    2    1    2    0    0  0.17730104227E+02  0.54974585970E+01  0.39230640742E+02  0.47787287794E+02  0.20000076368E+02 0.  0.
        -12    1    1    2    0    0 -0.17730104227E+02 -0.54974585970E+01 -0.39230640742E+02  0.43400712206E+02  0.00000000000E+00 0.  1.
         11    1    3    3    0    0  0.35616216790E+01  0.24200507622E+01  0.65886986677E+01  0.78710066110E+01  0.51100000000E-03 0. -1.
        -11    1    3    3    0    0  0.10611139284E+02  0.10307610346E+02  0.19109286230E+02  0.24166255987E+02  0.51100000000E-03 0.  1.
        -12    1    3    3    0    0  0.35573432637E+01 -0.72302025115E+01  0.13532655845E+02  0.15750025196E+02  0.00000000000E+00 0.  1.
</event>
<event>
 7    1  0.7357971E-011  0.4778727E+02  0.7816164E-02  0.1312668E+00
        -11   -1    0    0    0    0  0.00000000000E+00  0.00000000000E+00  0.45593999997E+02  0.45594000000E+02  0.51100000000E-03 0.  1.
         11   -1    0    0    0    0 -0.00000000000E+00 -0.00000000000E+00 -0.45593999997E+02  0.45594000000E+02  0.51100000000E-03 0. -1.
    9900012    2    1    2    0    0  0.41713561707E+02  0.11697682754E+02 -0.26012342902E+01  0.47787269223E+02  0.19999991697E+02 0.  0.
        -12    1    1    2    0    0 -0.41713561707E+02 -0.11697682754E+02  0.26012342902E+01  0.43400730777E+02  0.00000000000E+00 0.  1.
         11    1    3    3    0    0  0.82122610681E+01  0.58505206586E+01  0.17416600834E+01  0.10232458352E+02  0.51100000000E-03 0. -1.
        -11    1    3    3    0    0  0.22750688517E+01  0.16913517354E+01 -0.53308499423E+01  0.60377620309E+01  0.51100000000E-03 0.  1.
        -12    1    3    3    0    0  0.31226231787E+02  0.41558103597E+01  0.98795556868E+00  0.31517048840E+02  0.00000000000E+00 0.  1.
</event>
<event>
 7    1  0.7357971E-011  0.4778727E+02  0.7816164E-02  0.1312668E+00
        -11   -1    0    0    0    0  0.00000000000E+00  0.00000000000E+00  0.45593999997E+02  0.45594000000E+02  0.51100000000E-03 0. -1.
         11   -1    0    0    0    0 -0.00000000000E+00 -0.00000000000E+00 -0.45593999997E+02  0.45594000000E+02  0.51100000000E-03 0.  1.
    9900012    2    1    2    0    0 -0.18844121137E+01  0.38255397343E+02 -0.20410696030E+02  0.47787274807E+02  0.20000017154E+02 0.  0.
         12    1    1    2    0    0  0.18844121137E+01 -0.38255397343E+02  0.20410696030E+02  0.43400725193E+02  0.00000000000E+00 0. -1.
         11    1    3    3    0    0 -0.11084748838E+00  0.86101788779E+00  0.46563636952E+00  0.98511748462E+00  0.51100000000E-03 0. -1.
        -11    1    3    3    0    0 -0.19136374552E+00 -0.18366946466E+01 -0.33066395323E+01  0.37873384541E+01  0.51100000000E-03 0.  1.
        -12    1    3    3    0    0 -0.15822008798E+01  0.39231074102E+02 -0.17569692867E+02  0.43014818868E+02  0.00000000000E+00 0.  1.
</event>
<event>
 7    1  0.7357971E-011  0.4778728E+02  0.7816164E-02  0.1312668E+00
        -11   -1    0    0    0    0  0.00000000000E+00  0.00000000000E+00  0.45593999997E+02  0.45594000000E+02  0.51100000000E-03 0. -1.
         11   -1    0    0    0    0 -0.00000000000E+00 -0.00000000000E+00 -0.45593999997E+02  0.45594000000E+02  0.51100000000E-03 0.  1.
    9900012    2    1    2    0    0  0.19985677064E+02  0.36926104829E+02  0.10984459521E+02  0.47787275853E+02  0.20000021923E+02 0.  0.
        -12    1    1    2    0    0 -0.19985677064E+02 -0.36926104829E+02 -0.10984459521E+02  0.43400724147E+02  0.00000000000E+00 0.  1.
         11    1    3    3    0    0  0.12239896561E+02  0.20573215095E+02  0.62120481209E+01  0.24731797130E+02  0.51100000000E-03 0. -1.
        -11    1    3    3    0    0 -0.26117950982E+01 -0.24222950940E+00  0.19986042811E+01  0.32976610049E+01  0.51100000000E-03 0.  1.
        -12    1    3    3    0    0  0.10357575602E+02  0.16595119243E+02  0.27738071187E+01  0.19757817718E+02  0.00000000000E+00 0.  1.
</event>
<event>
 7    1  0.7357971E-011  0.4778727E+02  0.7816164E-02  0.1312668E+00
        -11   -1    0    0    0    0  0.00000000000E+00  0.00000000000E+00  0.45593999997E+02  0.45594000000E+02  0.51100000000E-03 0. -1.
         11   -1    0    0    0    0 -0.00000000000E+00 -0.00000000000E+00 -0.45593999997E+02  0.45594000000E+02  0.51100000000E-03 0.  1.
    9900012    2    1    2    0    0  0.13688473040E+02 -0.57863521819E+01 -0.40777041301E+02  0.47787271170E+02  0.20000000571E+02 0.  0.
         12    1    1    2    0    0 -0.13688473040E+02  0.57863521819E+01  0.40777041301E+02  0.43400728830E+02  0.00000000000E+00 0. -1.
         11    1    3    3    0    0  0.48334408919E+01  0.11453055059E+01 -0.19594395166E+02  0.20214207819E+02  0.51100000000E-03 0. -1.
        -11    1    3    3    0    0 -0.18266775649E+01  0.55560623201E+00  0.75255652059E+00  0.20522647950E+01  0.51100000000E-03 0.  1.
        -12    1    3    3    0    0  0.10681709713E+02 -0.74872639198E+01 -0.21935202656E+02  0.25520798556E+02  0.00000000000E+00 0.  1.
</event>
<event>
 7    1  0.7357971E-011  0.4778727E+02  0.7816164E-02  0.1312668E+00
        -11   -1    0    0    0    0  0.00000000000E+00  0.00000000000E+00  0.45593999997E+02  0.45594000000E+02  0.51100000000E-03 0. -1.
         11   -1    0    0    0    0 -0.00000000000E+00 -0.00000000000E+00 -0.45593999997E+02  0.45594000000E+02  0.51100000000E-03 0.  1.
    9900012    2    1    2    0    0 -0.28133915998E+02  0.72278929381E+01 -0.32246915819E+02  0.47787271371E+02  0.20000001488E+02 0.  0.
         12    1    1    2    0    0  0.28133915998E+02 -0.72278929381E+01  0.32246915819E+02  0.43400728629E+02  0.00000000000E+00 0. -1.
         11    1    3    3    0    0 -0.83269478741E+01  0.50404757726E+01 -0.36765121086E+01  0.10404864173E+02  0.51100000000E-03 0. -1.
        -11    1    3    3    0    0 -0.81700675612E+01 -0.56786345601E+01 -0.10097202912E+02  0.14175697560E+02  0.51100000000E-03 0.  1.
         12    1    3    3    0    0 -0.11636900563E+02  0.78660517256E+01 -0.18473200799E+02  0.23206709638E+02  0.00000000000E+00 0. -1.
</event>
<event>
 7    1  0.7357971E-011  0.4778727E+02  0.7816164E-02  0.1312668E+00
        -11   -1    0    0    0    0  0.00000000000E+00  0.00000000000E+00  0.45593999997E+02  0.45594000000E+02  0.51100000000E-03 0. -1.
         11   -1    0    0    0    0 -0.00000000000E+00 -0.00000000000E+00 -0.45593999997E+02  0.45594000000E+02  0.51100000000E-03 0.  1.
    9900012    2    1    2    0    0  0.16357094725E+02  0.48194508704E+01  0.39910418659E+02  0.47787272217E+02  0.20000005345E+02 0.  0.
        -12    1    1    2    0    0 -0.16357094725E+02 -0.48194508704E+01 -0.39910418659E+02  0.43400727783E+02  0.00000000000E+00 0.  1.
         11    1    3    3    0    0  0.10868724202E+02  0.35905703192E+01  0.27326595764E+02  0.29627085535E+02  0.51100000000E-03 0. -1.
        -11    1    3    3    0    0 -0.34862963130E+00  0.26541233143E+01 -0.13412373623E+01  0.29941327810E+01  0.51100000000E-03 0.  1.
        -12    1    3    3    0    0  0.58370001551E+01 -0.14252427631E+01  0.13925060258E+02  0.15166053901E+02  0.00000000000E+00 0.  1.
</event>
<event>
 7    1  0.8983979E-011  0.4778727E+02  0.7816164E-02  0.1312668E+00
        -11   -1    0    0    0    0  0.00000000000E+00  0.00000000000E+00  0.45593999997E+02  0.45594000000E+02  0.51100000000E-03 0. -1.
         11   -1    0    0    0    0 -0.00000000000E+00 -0.00000000000E+00 -0.45593999997E+02  0.45594000000E+02  0.51100000000E-03 0.  1.
    9900012    2    1    2    0    0  0.20888697086E+02 -0.13472889493E+02 -0.35577615236E+02  0.47787272781E+02  0.20000007918E+02 0.  0.
         12    1    1    2    0    0 -0.20888697086E+02  0.13472889493E+02  0.35577615236E+02  0.43400727219E+02  0.00000000000E+00 0. -1.
         11    1    3    3    0    0 -0.26348369489E+01 -0.14444151245E+01 -0.53758522247E+01  0.61586108988E+01  0.51100000000E-03 0. -1.
        -11    1    3    3    0    0  0.14574480812E+02 -0.12249381701E+02 -0.16139557241E+02  0.24958929288E+02  0.51100000000E-03 0.  1.
        -12    1    3    3    0    0  0.89490532231E+01  0.22090733279E+00 -0.14062205770E+02  0.16669732594E+02  0.00000000000E+00 0.  1.
</event>
<event>
 7    1  0.7357971E-011  0.4778727E+02  0.7816164E-02  0.1312668E+00
        -11   -1    0    0    0    0  0.00000000000E+00  0.00000000000E+00  0.45593999997E+02  0.45594000000E+02  0.51100000000E-03 0.  1.
         11   -1    0    0    0    0 -0.00000000000E+00 -0.00000000000E+00 -0.45593999997E+02  0.45594000000E+02  0.51100000000E-03 0. -1.
    9900012    2    1    2    0    0  0.37674262575E+02  0.17854885264E+02  0.12061349831E+02  0.47787272494E+02  0.20000006608E+02 0.  0.
        -12    1    1    2    0    0 -0.37674262575E+02 -0.17854885264E+02 -0.12061349831E+02  0.43400727506E+02  0.00000000000E+00 0.  1.
         11    1    3    3    0    0  0.30169783158E+02  0.17586174111E+02  0.12543873790E+02  0.37105769169E+02  0.51100000000E-03 0. -1.
        -11    1    3    3    0    0  0.23524329200E+01  0.36434464729E+01  0.74779205320E+00  0.44008903713E+01  0.51100000000E-03 0.  1.
         12    1    3    3    0    0  0.51520464963E+01 -0.33747353204E+01 -0.12303160121E+01  0.62806129535E+01  0.00000000000E+00 0. -1.
</event>
<event>
 7    1  0.7357971E-011  0.4778727E+02  0.7816164E-02  0.1312668E+00
        -11   -1    0    0    0    0  0.00000000000E+00  0.00000000000E+00  0.45593999997E+02  0.45594000000E+02  0.51100000000E-03 0. -1.
         11   -1    0    0    0    0 -0.00000000000E+00 -0.00000000000E+00 -0.45593999997E+02  0.45594000000E+02  0.51100000000E-03 0.  1.
    9900012    2    1    2    0    0 -0.20851873309E+02 -0.14647473031E+02 -0.35132240799E+02  0.47787269243E+02  0.19999991784E+02 0.  0.
         12    1    1    2    0    0  0.20851873309E+02  0.14647473031E+02  0.35132240799E+02  0.43400730757E+02  0.00000000000E+00 0. -1.
         11    1    3    3    0    0 -0.57397056299E+01 -0.11055822587E+02 -0.19672020471E+02  0.23284411598E+02  0.51100000000E-03 0. -1.
        -11    1    3    3    0    0 -0.55066134850E+01 -0.54907839148E+01 -0.11626940837E+02  0.13987753699E+02  0.51100000000E-03 0.  1.
         12    1    3    3    0    0 -0.96055541942E+01  0.18991334706E+01 -0.38332794917E+01  0.10515103945E+02  0.00000000000E+00 0. -1.
</event>
<event>
 7    1  0.7357971E-011  0.4778727E+02  0.7816164E-02  0.1312668E+00
        -11   -1    0    0    0    0  0.00000000000E+00  0.00000000000E+00  0.45593999997E+02  0.45594000000E+02  0.51100000000E-03 0. -1.
         11   -1    0    0    0    0 -0.00000000000E+00 -0.00000000000E+00 -0.45593999997E+02  0.45594000000E+02  0.51100000000E-03 0.  1.
    9900012    2    1    2    0    0  0.26766954731E+01 -0.95402237048E+01 -0.42254496584E+02  0.47787273640E+02  0.20000011833E+02 0.  0.
         12    1    1    2    0    0 -0.26766954731E+01  0.95402237048E+01  0.42254496584E+02  0.43400726360E+02  0.00000000000E+00 0. -1.
         11    1    3    3    0    0 -0.64999862914E+01 -0.19875383378E+01 -0.12905939912E+02  0.14586412023E+02  0.51100000000E-03 0. -1.
        -11    1    3    3    0    0  0.65027044911E+01 -0.78198179923E+01 -0.12384656984E+02  0.16025431289E+02  0.51100000000E-03 0.  1.
        -12    1    3    3    0    0  0.26739772734E+01  0.26713262527E+00 -0.16963899688E+02  0.17175430328E+02  0.00000000000E+00 0.  1.
</event>
<event>
 7    1  0.7357971E-011  0.4778727E+02  0.7816164E-02  0.1312668E+00
        -11   -1    0    0    0    0  0.00000000000E+00  0.00000000000E+00  0.45593999997E+02  0.45594000000E+02  0.51100000000E-03 0. -1.
         11   -1    0    0    0    0 -0.00000000000E+00 -0.00000000000E+00 -0.45593999997E+02  0.45594000000E+02  0.51100000000E-03 0.  1.
    9900012    2    1    2    0    0 -0.15920909163E+02 -0.14945760090E+02 -0.37506964588E+02  0.47787268603E+02  0.19999988867E+02 0.  0.
         12    1    1    2    0    0  0.15920909163E+02  0.14945760090E+02  0.37506964588E+02  0.43400731397E+02  0.00000000000E+00 0. -1.
         11    1    3    3    0    0 -0.52885757642E+01 -0.33066460401E+01  0.82292225446E+00  0.62912751447E+01  0.51100000000E-03 0. -1.
        -11    1    3    3    0    0 -0.94279612904E+01 -0.11121278884E+02 -0.34815112487E+02  0.37744686458E+02  0.51100000000E-03 0.  1.
         12    1    3    3    0    0 -0.12043721085E+01 -0.51783516524E+00 -0.35147743557E+01  0.37513069997E+01  0.00000000000E+00 0. -1.
</event>
<event>
 7    1  0.7357971E-011  0.4778731E+02  0.7816164E-02  0.1312668E+00
        -11   -1    0    0    0    0  0.00000000000E+00  0.00000000000E+00  0.45593999997E+02  0.45594000000E+02  0.51100000000E-03 0. -1.
         11   -1    0    0    0    0 -0.00000000000E+00 -0.00000000000E+00 -0.45593999997E+02  0.45594000000E+02  0.51100000000E-03 0.  1.
    9900012    2    1    2    0    0  0.26010083863E+02 -0.14204379021E+02  0.31706949677E+02  0.47787314478E+02  0.20000198032E+02 0.  0.
        -12    1    1    2    0    0 -0.26010083863E+02  0.14204379021E+02 -0.31706949677E+02  0.43400685522E+02  0.00000000000E+00 0.  1.
         11    1    3    3    0    0  0.52090192405E+01 -0.56903006121E+01  0.11124068204E+02  0.13537292793E+02  0.51100000000E-03 0. -1.
        -11    1    3    3    0    0  0.79091088124E+01 -0.10418699087E+02  0.51677084961E+01  0.14064441127E+02  0.51100000000E-03 0.  1.
        -12    1    3    3    0    0  0.12891955810E+02  0.19046206781E+01  0.15415172978E+02  0.20185580558E+02  0.00000000000E+00 0.  1.
</event>
<event>
 7    1  0.7357971E-011  0.4778728E+02  0.7816164E-02  0.1312668E+00
        -11   -1    0    0    0    0  0.00000000000E+00  0.00000000000E+00  0.45593999997E+02  0.45594000000E+02  0.51100000000E-03 0. -1.
         11   -1    0    0    0    0 -0.00000000000E+00 -0.00000000000E+00 -0.45593999997E+02  0.45594000000E+02  0.51100000000E-03 0.  1.
    9900012    2    1    2    0    0  0.20591580521E+02  0.26165723065E+02 -0.27838185065E+02  0.47787276509E+02  0.20000024915E+02 0.  0.
         12    1    1    2    0    0 -0.20591580521E+02 -0.26165723065E+02  0.27838185065E+02  0.43400723491E+02  0.00000000000E+00 0. -1.
         11    1    3    3    0    0  0.14355703673E+02  0.17639890303E+02 -0.12148104568E+02  0.25784266573E+02  0.51100000000E-03 0.  1.
        -11    1    3    3    0    0 -0.26918463541E+01 -0.44197813076E+00 -0.21772343616E+01  0.34902336868E+01  0.51100000000E-03 0. -1.
        -12    1    3    3    0    0  0.89277232021E+01  0.89678108921E+01 -0.13512846135E+02  0.18512776249E+02  0.00000000000E+00 0.  1.
</event>
<event>
 7    1  0.7357971E-011  0.4778727E+02  0.7816164E-02  0.1312668E+00
        -11   -1    0    0    0    0  0.00000000000E+00  0.00000000000E+00  0.45593999997E+02  0.45594000000E+02  0.51100000000E-03 0. -1.
         11   -1    0    0    0    0 -0.00000000000E+00 -0.00000000000E+00 -0.45593999997E+02  0.45594000000E+02  0.51100000000E-03 0.  1.
    9900012    2    1    2    0    0  0.16321894055E+01 -0.16579596759E+01 -0.43338322721E+02  0.47787273177E+02  0.20000009722E+02 0.  0.
         12    1    1    2    0    0 -0.16321894055E+01  0.16579596759E+01  0.43338322721E+02  0.43400726823E+02  0.00000000000E+00 0. -1.
         11    1    3    3    0    0  0.66257716747E+01  0.27476368370E+01 -0.17643165173E+02  0.19045514854E+02  0.51100000000E-03 0.  1.
        -11    1    3    3    0    0 -0.65623874373E+01 -0.68959577006E+01 -0.22309573651E+02  0.24255643430E+02  0.51100000000E-03 0. -1.
         12    1    3    3    0    0  0.15688051681E+01  0.24903611877E+01 -0.33855838968E+01  0.44861148918E+01  0.00000000000E+00 0. -1.
</event>
<event>
 7    1  0.7357971E-011  0.4778721E+02  0.7816164E-02  0.1312668E+00
        -11   -1    0    0    0    0  0.00000000000E+00  0.00000000000E+00  0.45593999997E+02  0.45594000000E+02  0.51100000000E-03 0. -1.
         11   -1    0    0    0    0 -0.00000000000E+00 -0.00000000000E+00 -0.45593999997E+02  0.45594000000E+02  0.51100000000E-03 0.  1.
    9900012    2    1    2    0    0  0.19984278827E+02 -0.16053934086E+02  0.35021828086E+02  0.47787209197E+02  0.19999718009E+02 0.  0.
        -12    1    1    2    0    0 -0.19984278827E+02  0.16053934086E+02 -0.35021828086E+02  0.43400790803E+02  0.00000000000E+00 0.  1.
         11    1    3    3    0    0  0.11315509700E+02 -0.81933934208E+01  0.22532911344E+02  0.26512347113E+02  0.51100000000E-03 0. -1.
        -11    1    3    3    0    0 -0.20743017590E+01 -0.59625742082E+01  0.46836869248E+01  0.78607851037E+01  0.51100000000E-03 0.  1.
        -12    1    3    3    0    0  0.10743070886E+02 -0.18979664570E+01  0.78052298170E+01  0.13414076980E+02  0.00000000000E+00 0.  1.
</event>
<event>
 7    1  0.7357971E-011  0.4778727E+02  0.7816164E-02  0.1312668E+00
        -11   -1    0    0    0    0  0.00000000000E+00  0.00000000000E+00  0.45593999997E+02  0.45594000000E+02  0.51100000000E-03 0. -1.
         11   -1    0    0    0    0 -0.00000000000E+00 -0.00000000000E+00 -0.45593999997E+02  0.45594000000E+02  0.51100000000E-03 0.  1.
    9900012    2    1    2    0    0  0.31606023090E+02 -0.26778782228E+02 -0.12945237774E+02  0.47787273575E+02  0.20000011539E+02 0.  0.
         12    1    1    2    0    0 -0.31606023090E+02  0.26778782228E+02  0.12945237774E+02  0.43400726425E+02  0.00000000000E+00 0. -1.
         11    1    3    3    0    0  0.19644239997E+01 -0.60872055045E+01  0.12707519465E+01  0.65213375373E+01  0.51100000000E-03 0. -1.
        -11    1    3    3    0    0  0.11910835399E+02 -0.55165212225E+01 -0.12065465620E+02  0.17829062432E+02  0.51100000000E-03 0.  1.
        -12    1    3    3    0    0  0.17730763691E+02 -0.15175055501E+02 -0.21505241001E+01  0.23436873606E+02  0.00000000000E+00 0.  1.
</event>
<event>
 7    1  0.7357971E-011  0.4778727E+02  0.7816164E-02  0.1312668E+00
        -11   -1    0    0    0    0  0.00000000000E+00  0.00000000000E+00  0.45593999997E+02  0.45594000000E+02  0.51100000000E-03 0. -1.
         11   -1    0    0    0    0 -0.00000000000E+00 -0.00000000000E+00 -0.45593999997E+02  0.45594000000E+02  0.51100000000E-03 0.  1.
    9900012    2    1    2    0    0 -0.80395913327E+01 -0.56588970153E+01 -0.42272514083E+02  0.47787267390E+02  0.19999983337E+02 0.  0.
         12    1    1    2    0    0  0.80395913327E+01  0.56588970153E+01  0.42272514083E+02  0.43400732610E+02  0.00000000000E+00 0. -1.
         11    1    3    3    0    0  0.46186754210E+01 -0.11565982292E+00 -0.36348062532E+01  0.58785505525E+01  0.51100000000E-03 0. -1.
        -11    1    3    3    0    0 -0.82315790730E+01 -0.76623598105E+01 -0.24937206586E+02  0.27355711002E+02  0.51100000000E-03 0.  1.
         12    1    3    3    0    0 -0.44266876807E+01  0.21191226181E+01 -0.13700501244E+02  0.14553005835E+02  0.00000000000E+00 0. -1.
</event>
<event>
 7    1  0.7357971E-011  0.4778727E+02  0.7816164E-02  0.1312668E+00
        -11   -1    0    0    0    0  0.00000000000E+00  0.00000000000E+00  0.45593999997E+02  0.45594000000E+02  0.51100000000E-03 0. -1.
         11   -1    0    0    0    0 -0.00000000000E+00 -0.00000000000E+00 -0.45593999997E+02  0.45594000000E+02  0.51100000000E-03 0.  1.
    9900012    2    1    2    0    0 -0.72698838722E+01  0.27820590729E+02 -0.32508261312E+02  0.47787268053E+02  0.19999986362E+02 0.  0.
         12    1    1    2    0    0  0.72698838722E+01 -0.27820590729E+02  0.32508261312E+02  0.43400731947E+02  0.00000000000E+00 0. -1.
         11    1    3    3    0    0 -0.36411820640E+01  0.30326710639E+01 -0.75042070573E+00  0.47977528179E+01  0.51100000000E-03 0. -1.
        -11    1    3    3    0    0  0.14715485770E+01  0.19601912475E+02 -0.29355927449E+02  0.35329462273E+02  0.51100000000E-03 0.  1.
        -12    1    3    3    0    0 -0.51002503851E+01  0.51860071900E+01 -0.24019131571E+01  0.76600529619E+01  0.00000000000E+00 0.  1.
</event>
<event>
 7    1  0.7357971E-011  0.4778727E+02  0.7816164E-02  0.1312668E+00
        -11   -1    0    0    0    0  0.00000000000E+00  0.00000000000E+00  0.45593999997E+02  0.45594000000E+02  0.51100000000E-03 0. -1.
         11   -1    0    0    0    0 -0.00000000000E+00 -0.00000000000E+00 -0.45593999997E+02  0.45594000000E+02  0.51100000000E-03 0.  1.
    9900012    2    1    2    0    0 -0.39618979081E+01 -0.97667428347E+01  0.42101514390E+02  0.47787269424E+02  0.19999992610E+02 0.  0.
        -12    1    1    2    0    0  0.39618979081E+01  0.97667428347E+01 -0.42101514390E+02  0.43400730576E+02  0.00000000000E+00 0.  1.
         11    1    3    3    0    0 -0.75137147354E+01 -0.48450928808E+01  0.31645033841E+02  0.32883719394E+02  0.51100000000E-03 0. -1.
        -11    1    3    3    0    0  0.23792518643E+01  0.70059129624E+00 -0.50268522416E+00  0.25306837601E+01  0.51100000000E-03 0.  1.
         12    1    3    3    0    0  0.11725649630E+01 -0.56222412501E+01  0.10959165773E+02  0.12372866269E+02  0.00000000000E+00 0. -1.
</event>
<event>
 7    1  0.7357971E-011  0.4778727E+02  0.7816164E-02  0.1312668E+00
        -11   -1    0    0    0    0  0.00000000000E+00  0.00000000000E+00  0.45593999997E+02  0.45594000000E+02  0.51100000000E-03 0.  1.
         11   -1    0    0    0    0 -0.00000000000E+00 -0.00000000000E+00 -0.45593999997E+02  0.45594000000E+02  0.51100000000E-03 0. -1.
    9900012    2    1    2    0    0 -0.25484072340E+02 -0.21137734225E+02  0.28060322965E+02  0.47787268714E+02  0.19999989377E+02 0.  0.
        -12    1    1    2    0    0  0.25484072340E+02  0.21137734225E+02 -0.28060322965E+02  0.43400731286E+02  0.00000000000E+00 0.  1.
         11    1    3    3    0    0 -0.14350627400E+02 -0.55695661599E+01  0.20408666813E+02  0.25563142516E+02  0.51100000000E-03 0. -1.
        -11    1    3    3    0    0 -0.42377933698E+01 -0.54665941289E+01  0.72013183192E+01  0.99850653384E+01  0.51100000000E-03 0.  1.
         12    1    3    3    0    0 -0.68956515704E+01 -0.10101573936E+02  0.45033783362E+00  0.12239060860E+02  0.00000000000E+00 0. -1.
</event>
<event>
 7    1  0.7357971E-011  0.4778724E+02  0.7816164E-02  0.1312668E+00
        -11   -1    0    0    0    0  0.00000000000E+00  0.00000000000E+00  0.45593999997E+02  0.45594000000E+02  0.51100000000E-03 0.  1.
         11   -1    0    0    0    0 -0.00000000000E+00 -0.00000000000E+00 -0.45593999997E+02  0.45594000000E+02  0.51100000000E-03 0. -1.
    9900012    2    1    2    0    0  0.39493904735E+02  0.17948826095E+02  0.13027784462E+01  0.47787238473E+02  0.19999851494E+02 0.  0.
        -12    1    1    2    0    0 -0.39493904735E+02 -0.17948826095E+02 -0.13027784462E+01  0.43400761527E+02  0.00000000000E+00 0.  1.
         11    1    3    3    0    0  0.23692212804E+02  0.65250720962E+01 -0.21043476258E+00  0.24575227292E+02  0.51100000000E-03 0. -1.
        -11    1    3    3    0    0 -0.93673517112E+00  0.51891264830E+01 -0.13120760718E+00  0.52746300472E+01  0.51100000000E-03 0.  1.
        -12    1    3    3    0    0  0.16738427102E+02  0.62346275160E+01  0.16444208160E+01  0.17937381134E+02  0.00000000000E+00 0.  1.
</event>
<event>
 7    1  0.7357971E-011  0.4778728E+02  0.7816164E-02  0.1312668E+00
        -11   -1    0    0    0    0  0.00000000000E+00  0.00000000000E+00  0.45593999997E+02  0.45594000000E+02  0.51100000000E-03 0. -1.
         11   -1    0    0    0    0 -0.00000000000E+00 -0.00000000000E+00 -0.45593999997E+02  0.45594000000E+02  0.51100000000E-03 0.  1.
    9900012    2    1    2    0    0  0.19551710731E+02  0.24827388038E+02  0.29748178502E+02  0.47787277500E+02  0.20000029434E+02 0.  0.
        -12    1    1    2    0    0 -0.19551710731E+02 -0.24827388038E+02 -0.29748178502E+02  0.43400722500E+02  0.00000000000E+00 0.  1.
         11    1    3    3    0    0  0.17791665858E+02  0.11471243531E+02  0.15560510704E+02  0.26272843313E+02  0.51100000000E-03 0. -1.
        -11    1    3    3    0    0 -0.28071716263E+01  0.41173749316E+01  0.81994378670E+01  0.95949867360E+01  0.51100000000E-03 0.  1.
         12    1    3    3    0    0  0.45672164994E+01  0.92387695753E+01  0.59882299319E+01  0.11919447451E+02  0.00000000000E+00 0. -1.
</event>
<event>
 7    1  0.7357971E-011  0.4778727E+02  0.7816164E-02  0.1312668E+00
        -11   -1    0    0    0    0  0.00000000000E+00  0.00000000000E+00  0.45593999997E+02  0.45594000000E+02  0.51100000000E-03 0. -1.
         11   -1    0    0    0    0 -0.00000000000E+00 -0.00000000000E+00 -0.45593999997E+02  0.45594000000E+02  0.51100000000E-03 0.  1.
    9900012    2    1    2    0    0  0.23508308944E+01  0.30735738479E+02 -0.30551776951E+02  0.47787273041E+02  0.20000009104E+02 0.  0.
         12    1    1    2    0    0 -0.23508308944E+01 -0.30735738479E+02  0.30551776951E+02  0.43400726959E+02  0.00000000000E+00 0. -1.
         11    1    3    3    0    0  0.75535328610E+00  0.90310029772E+01 -0.20653952959E+02  0.22554718940E+02  0.51100000000E-03 0. -1.
        -11    1    3    3    0    0  0.39680185244E+01  0.19581982468E+02 -0.79709573358E+01  0.21511284701E+02  0.51100000000E-03 0.  1.
        -12    1    3    3    0    0 -0.23725409161E+01  0.21227530336E+01 -0.19268666560E+01  0.37212694004E+01  0.00000000000E+00 0.  1.
</event>
<event>
 7    1  0.7357971E-011  0.4778727E+02  0.7816164E-02  0.1312668E+00
        -11   -1    0    0    0    0  0.00000000000E+00  0.00000000000E+00  0.45593999997E+02  0.45594000000E+02  0.51100000000E-03 0. -1.
         11   -1    0    0    0    0 -0.00000000000E+00 -0.00000000000E+00 -0.45593999997E+02  0.45594000000E+02  0.51100000000E-03 0.  1.
    9900012    2    1    2    0    0 -0.25623926654E+02  0.27844302188E+02  0.21254001156E+02  0.47787270206E+02  0.19999996176E+02 0.  0.
        -12    1    1    2    0    0  0.25623926654E+02 -0.27844302188E+02 -0.21254001156E+02  0.43400729794E+02  0.00000000000E+00 0.  1.
         11    1    3    3    0    0 -0.86125795932E+01  0.46567784537E+01 -0.43314802174E+00  0.98004964306E+01  0.51100000000E-03 0. -1.
        -11    1    3    3    0    0 -0.12403907478E+02  0.23361816070E+02  0.17187489398E+02  0.31544273059E+02  0.51100000000E-03 0.  1.
         12    1    3    3    0    0 -0.46074395835E+01 -0.17429233561E+00  0.44996597804E+01  0.64425007158E+01  0.00000000000E+00 0. -1.
</event>
<event>
 7    1  0.7357971E-011  0.4778726E+02  0.7816164E-02  0.1312668E+00
        -11   -1    0    0    0    0  0.00000000000E+00  0.00000000000E+00  0.45593999997E+02  0.45594000000E+02  0.51100000000E-03 0. -1.
         11   -1    0    0    0    0 -0.00000000000E+00 -0.00000000000E+00 -0.45593999997E+02  0.45594000000E+02  0.51100000000E-03 0.  1.
    9900012    2    1    2    0    0 -0.33364188718E+02 -0.27579368476E+02  0.31358091454E+01  0.47787263216E+02  0.19999964308E+02 0.  0.
        -12    1    1    2    0    0  0.33364188718E+02  0.27579368476E+02 -0.31358091454E+01  0.43400736784E+02  0.00000000000E+00 0.  1.
         11    1    3    3    0    0 -0.23040739226E+02 -0.92513773696E+01 -0.21613150850E+01  0.24922578728E+02  0.51100000000E-03 0. -1.
        -11    1    3    3    0    0  0.91051223500E+00 -0.36334189424E+01  0.87656185241E+00  0.38469633068E+01  0.51100000000E-03 0.  1.
         12    1    3    3    0    0 -0.11233961728E+02 -0.14694572164E+02  0.44205623779E+01  0.19017721181E+02  0.00000000000E+00 0. -1.
</event>
<event>
 7    1  0.7357971E-011  0.4778727E+02  0.7816164E-02  0.1312668E+00
        -11   -1    0    0    0    0  0.00000000000E+00  0.00000000000E+00  0.45593999997E+02  0.45594000000E+02  0.51100000000E-03 0. -1.
         11   -1    0    0    0    0 -0.00000000000E+00 -0.00000000000E+00 -0.45593999997E+02  0.45594000000E+02  0.51100000000E-03 0.  1.
    9900012    2    1    2    0    0  0.30496561160E+02 -0.22416117493E+02  0.21239128780E+02  0.47787272387E+02  0.20000006119E+02 0.  0.
        -12    1    1    2    0    0 -0.30496561160E+02  0.22416117493E+02 -0.21239128780E+02  0.43400727613E+02  0.00000000000E+00 0.  1.
         11    1    3    3    0    0  0.15658656061E+02 -0.92106253706E+01  0.11307611669E+02  0.21398392727E+02  0.51100000000E-03 0. -1.
        -11    1    3    3    0    0  0.26723380395E+01 -0.49264949440E+01 -0.33809110293E+01  0.65454031716E+01  0.51100000000E-03 0.  1.
        -12    1    3    3    0    0  0.12165567059E+02 -0.82789971789E+01  0.13312428140E+02  0.19843476488E+02  0.00000000000E+00 0.  1.
</event>
<event>
 7    1  0.7357971E-011  0.4778727E+02  0.7816164E-02  0.1312668E+00
        -11   -1    0    0    0    0  0.00000000000E+00  0.00000000000E+00  0.45593999997E+02  0.45594000000E+02  0.51100000000E-03 0.  1.
         11   -1    0    0    0    0 -0.00000000000E+00 -0.00000000000E+00 -0.45593999997E+02  0.45594000000E+02  0.51100000000E-03 0. -1.
    9900012    2    1    2    0    0  0.24256170468E+02  0.35964645027E+02  0.13437881657E+01  0.47787271154E+02  0.20000000501E+02 0.  0.
        -12    1    1    2    0    0 -0.24256170468E+02 -0.35964645027E+02 -0.13437881657E+01  0.43400728846E+02  0.00000000000E+00 0.  1.
         11    1    3    3    0    0  0.72306624818E+01  0.97749502348E+01  0.77526173327E+01  0.14419958661E+02  0.51100000000E-03 0. -1.
        -11    1    3    3    0    0  0.18211450740E+01 -0.30273501854E+00  0.75258380632E+00  0.19936400173E+01  0.51100000000E-03 0.  1.
         12    1    3    3    0    0  0.15204362913E+02  0.26492429811E+02 -0.71614129733E+01  0.31373672476E+02  0.00000000000E+00 0. -1.
</event>
<event>
 7    1  0.7357971E-011  0.4778726E+02  0.7816164E-02  0.1312668E+00
        -11   -1    0    0    0    0  0.00000000000E+00  0.00000000000E+00  0.45593999997E+02  0.45594000000E+02  0.51100000000E-03 0. -1.
         11   -1    0    0    0    0 -0.00000000000E+00 -0.00000000000E+00 -0.45593999997E+02  0.45594000000E+02  0.51100000000E-03 0.  1.
    9900012    2    1    2    0    0 -0.32308806570E+02  0.16556981885E+02  0.23783017896E+02  0.47787256097E+02  0.19999931846E+02 0.  0.
        -12    1    1    2    0    0  0.32308806570E+02 -0.16556981885E+02 -0.23783017896E+02  0.43400743903E+02  0.00000000000E+00 0.  1.
         11    1    3    3    0    0 -0.14864771773E+02 -0.80165736073E+00  0.10586532119E+02  0.18266875950E+02  0.51100000000E-03 0. -1.
        -11    1    3    3    0    0 -0.43727867404E+01  0.42694299010E-01  0.41018015217E+01  0.59956536478E+01  0.51100000000E-03 0.  1.
         12    1    3    3    0    0 -0.13071248057E+02  0.17315944946E+02  0.90946842552E+01  0.23524726499E+02  0.00000000000E+00 0. -1.
</event>
<event>
 7    1  0.7357971E-011  0.4778727E+02  0.7816164E-02  0.1312668E+00
        -11   -1    0    0    0    0  0.00000000000E+00  0.00000000000E+00  0.45593999997E+02  0.45594000000E+02  0.51100000000E-03 0.  1.
         11   -1    0    0    0    0 -0.00000000000E+00 -0.00000000000E+00 -0.45593999997E+02  0.45594000000E+02  0.51100000000E-03 0. -1.
    9900012    2    1    2    0    0 -0.42225379339E+02 -0.93302707159E+01  0.36860559035E+01  0.47787267056E+02  0.19999981816E+02 0.  0.
         12    1    1    2    0    0  0.42225379339E+02  0.93302707159E+01 -0.36860559035E+01  0.43400732944E+02  0.00000000000E+00 0. -1.
         11    1    3    3    0    0 -0.84133510295E+01  0.13373596573E+01  0.17925673306E+01  0.87055329702E+01  0.51100000000E-03 0. -1.
        -11    1    3    3    0    0 -0.30567996011E+02 -0.11513561716E+02  0.65789860842E+01  0.33320377274E+02  0.51100000000E-03 0.  1.
        -12    1    3    3    0    0 -0.32440322982E+01  0.84593134279E+00 -0.46854975113E+01  0.57613568122E+01  0.00000000000E+00 0.  1.
</event>
<event>
 7    1  0.7357971E-011  0.4778727E+02  0.7816164E-02  0.1312668E+00
        -11   -1    0    0    0    0  0.00000000000E+00  0.00000000000E+00  0.45593999997E+02  0.45594000000E+02  0.51100000000E-03 0. -1.
         11   -1    0    0    0    0 -0.00000000000E+00 -0.00000000000E+00 -0.45593999997E+02  0.45594000000E+02  0.51100000000E-03 0.  1.
    9900012    2    1    2    0    0 -0.12792572602E+02 -0.40498250631E+02 -0.89367080842E+01  0.47787274553E+02  0.20000015996E+02 0.  0.
        -12    1    1    2    0    0  0.12792572602E+02  0.40498250631E+02  0.89367080842E+01  0.43400725447E+02  0.00000000000E+00 0.  1.
         11    1    3    3    0    0  0.23030335801E+01 -0.14447002678E+01  0.17721525419E+01  0.32452499792E+01  0.51100000000E-03 0. -1.
        -11    1    3    3    0    0 -0.15689050437E+02 -0.35701549519E+02 -0.72048774237E+01  0.39656742184E+02  0.51100000000E-03 0.  1.
        -12    1    3    3    0    0  0.59344425484E+00 -0.33520008439E+01 -0.35039832024E+01  0.48852823893E+01  0.00000000000E+00 0.  1.
</event>
<event>
 7    1  0.7357971E-011  0.4778727E+02  0.7816164E-02  0.1312668E+00
        -11   -1    0    0    0    0  0.00000000000E+00  0.00000000000E+00  0.45593999997E+02  0.45594000000E+02  0.51100000000E-03 0. -1.
         11   -1    0    0    0    0 -0.00000000000E+00 -0.00000000000E+00 -0.45593999997E+02  0.45594000000E+02  0.51100000000E-03 0.  1.
    9900012    2    1    2    0    0 -0.26116624556E+02  0.20865988235E+01 -0.34600453739E+02  0.47787269916E+02  0.19999994857E+02 0.  0.
         12    1    1    2    0    0  0.26116624556E+02 -0.20865988235E+01  0.34600453739E+02  0.43400730084E+02  0.00000000000E+00 0. -1.
         11    1    3    3    0    0  0.79400609943E+00 -0.36772566456E+01 -0.89832467574E+01  0.97391675563E+01  0.51100000000E-03 0. -1.
        -11    1    3    3    0    0 -0.17098444165E+02  0.15205016026E+01 -0.18313962528E+02  0.25101194030E+02  0.51100000000E-03 0.  1.
         12    1    3    3    0    0 -0.98121864904E+01  0.42433538665E+01 -0.73032444528E+01  0.12946908330E+02  0.00000000000E+00 0. -1.
</event>
<event>
 7    1  0.7357971E-011  0.4778727E+02  0.7816164E-02  0.1312668E+00
        -11   -1    0    0    0    0  0.00000000000E+00  0.00000000000E+00  0.45593999997E+02  0.45594000000E+02  0.51100000000E-03 0. -1.
         11   -1    0    0    0    0 -0.00000000000E+00 -0.00000000000E+00 -0.45593999997E+02  0.45594000000E+02  0.51100000000E-03 0.  1.
    9900012    2    1    2    0    0 -0.18719996442E+02  0.69678123110E+01  0.38530959456E+02  0.47787268303E+02  0.19999987501E+02 0.  0.
        -12    1    1    2    0    0  0.18719996442E+02 -0.69678123110E+01 -0.38530959456E+02  0.43400731697E+02  0.00000000000E+00 0.  1.
         11    1    3    3    0    0 -0.21503333039E+02  0.36396892527E+01  0.25015903234E+02  0.33187890631E+02  0.51100000000E-03 0. -1.
        -11    1    3    3    0    0  0.24187314398E+01  0.24630460882E+01  0.52632020126E+01  0.62942953138E+01  0.51100000000E-03 0.  1.
        -12    1    3    3    0    0  0.36460515695E+00  0.86507697012E+00  0.82518542098E+01  0.83050823587E+01  0.00000000000E+00 0.  1.
</event>
<event>
 7    1  0.7357971E-011  0.4778727E+02  0.7816164E-02  0.1312668E+00
        -11   -1    0    0    0    0  0.00000000000E+00  0.00000000000E+00  0.45593999997E+02  0.45594000000E+02  0.51100000000E-03 0. -1.
         11   -1    0    0    0    0 -0.00000000000E+00 -0.00000000000E+00 -0.45593999997E+02  0.45594000000E+02  0.51100000000E-03 0.  1.
    9900012    2    1    2    0    0 -0.18132302115E+02 -0.11033235663E+01  0.39416062763E+02  0.47787266059E+02  0.19999977271E+02 0.  0.
        -12    1    1    2    0    0  0.18132302115E+02  0.11033235663E+01 -0.39416062763E+02  0.43400733941E+02  0.00000000000E+00 0.  1.
         11    1    3    3    0    0 -0.40332397806E+01 -0.17327387627E+01  0.46805211432E+01  0.64169062001E+01  0.51100000000E-03 0.  1.
        -11    1    3    3    0    0 -0.14189114782E+02 -0.57062417037E+01  0.29173744225E+02  0.32939330975E+02  0.51100000000E-03 0. -1.
        -12    1    3    3    0    0  0.90052447514E-01  0.63356569001E+01  0.55617973942E+01  0.84310288846E+01  0.00000000000E+00 0.  1.
</event>
<event>
 7    1  0.7357971E-011  0.4778727E+02  0.7816164E-02  0.1312668E+00
        -11   -1    0    0    0    0  0.00000000000E+00  0.00000000000E+00  0.45593999997E+02  0.45594000000E+02  0.51100000000E-03 0. -1.
         11   -1    0    0    0    0 -0.00000000000E+00 -0.00000000000E+00 -0.45593999997E+02  0.45594000000E+02  0.51100000000E-03 0.  1.
    9900012    2    1    2    0    0  0.27995086829E+02 -0.26301022075E+02 -0.20202839260E+02  0.47787270019E+02  0.19999995324E+02 0.  0.
         12    1    1    2    0    0 -0.27995086829E+02  0.26301022075E+02  0.20202839260E+02  0.43400729981E+02  0.00000000000E+00 0. -1.
         11    1    3    3    0    0  0.45548478267E+01  0.15943794887E+01 -0.13323839318E+01  0.50063891061E+01  0.51100000000E-03 0. -1.
        -11    1    3    3    0    0  0.11512748487E+02 -0.15905869640E+02 -0.16610416647E+02  0.25718592656E+02  0.51100000000E-03 0.  1.
        -12    1    3    3    0    0  0.11927490515E+02 -0.11989531924E+02 -0.22600386810E+01  0.17062288257E+02  0.00000000000E+00 0.  1.
</event>
<event>
 7    1  0.7357971E-011  0.4778727E+02  0.7816164E-02  0.1312668E+00
        -11   -1    0    0    0    0  0.00000000000E+00  0.00000000000E+00  0.45593999997E+02  0.45594000000E+02  0.51100000000E-03 0. -1.
         11   -1    0    0    0    0 -0.00000000000E+00 -0.00000000000E+00 -0.45593999997E+02  0.45594000000E+02  0.51100000000E-03 0.  1.
    9900012    2    1    2    0    0 -0.24103814459E+01 -0.56824545939E+01  0.42959547552E+02  0.47787274721E+02  0.20000016761E+02 0.  0.
        -12    1    1    2    0    0  0.24103814459E+01  0.56824545939E+01 -0.42959547552E+02  0.43400725279E+02  0.00000000000E+00 0.  1.
         11    1    3    3    0    0 -0.25916394640E+01 -0.10446259239E+02  0.27449255958E+02  0.29483937663E+02  0.51100000000E-03 0. -1.
        -11    1    3    3    0    0  0.33385761779E+01  0.28270269719E+01  0.13274639244E+02  0.13976917390E+02  0.51100000000E-03 0.  1.
         12    1    3    3    0    0 -0.31573181598E+01  0.19367776728E+01  0.22356523491E+01  0.43264196679E+01  0.00000000000E+00 0. -1.
</event>
<event>
 7    1  0.7357971E-011  0.4778724E+02  0.7816164E-02  0.1312668E+00
        -11   -1    0    0    0    0  0.00000000000E+00  0.00000000000E+00  0.45593999997E+02  0.45594000000E+02  0.51100000000E-03 0. -1.
         11   -1    0    0    0    0 -0.00000000000E+00 -0.00000000000E+00 -0.45593999997E+02  0.45594000000E+02  0.51100000000E-03 0.  1.
    9900012    2    1    2    0    0 -0.16890645478E+01  0.14719120041E+02 -0.40793633187E+02  0.47787240301E+02  0.19999859828E+02 0.  0.
         12    1    1    2    0    0  0.16890645478E+01 -0.14719120041E+02  0.40793633187E+02  0.43400759699E+02  0.00000000000E+00 0. -1.
         11    1    3    3    0    0 -0.53008782186E+01  0.13315681842E+02 -0.19868834033E+02  0.24498515443E+02  0.51100000000E-03 0. -1.
        -11    1    3    3    0    0  0.43239965001E+01  0.47400591084E+01 -0.16484133012E+02  0.17688746352E+02  0.51100000000E-03 0.  1.
         12    1    3    3    0    0 -0.71218282940E+00 -0.33366209100E+01 -0.44406661430E+01  0.55999785065E+01  0.00000000000E+00 0. -1.
</event>
<event>
 7    1  0.7357971E-011  0.4778727E+02  0.7816164E-02  0.1312668E+00
        -11   -1    0    0    0    0  0.00000000000E+00  0.00000000000E+00  0.45593999997E+02  0.45594000000E+02  0.51100000000E-03 0. -1.
         11   -1    0    0    0    0 -0.00000000000E+00 -0.00000000000E+00 -0.45593999997E+02  0.45594000000E+02  0.51100000000E-03 0.  1.
    9900012    2    1    2    0    0  0.63338970382E+00  0.39115137446E+02 -0.18794377284E+02  0.47787265243E+02  0.19999973550E+02 0.  0.
         12    1    1    2    0    0 -0.63338970382E+00 -0.39115137446E+02  0.18794377284E+02  0.43400734757E+02  0.00000000000E+00 0. -1.
         11    1    3    3    0    0 -0.98211769365E+00  0.97126533312E+01 -0.78036011588E+01  0.12497855064E+02  0.51100000000E-03 0. -1.
        -11    1    3    3    0    0  0.18787583315E+01 -0.32163775617E+00 -0.44669793417E+01  0.48566540349E+01  0.51100000000E-03 0.  1.
        -12    1    3    3    0    0 -0.26325093406E+00  0.29724121871E+02 -0.65237967832E+01  0.30432756144E+02  0.00000000000E+00 0.  1.
</event>
<event>
 7    1  0.7357971E-011  0.4778727E+02  0.7816164E-02  0.1312668E+00
        -11   -1    0    0    0    0  0.00000000000E+00  0.00000000000E+00  0.45593999997E+02  0.45594000000E+02  0.51100000000E-03 0. -1.
         11   -1    0    0    0    0 -0.00000000000E+00 -0.00000000000E+00 -0.45593999997E+02  0.45594000000E+02  0.51100000000E-03 0.  1.
    9900012    2    1    2    0    0 -0.10391539296E+01  0.15597196364E+02 -0.40487908533E+02  0.47787272901E+02  0.20000008465E+02 0.  0.
         12    1    1    2    0    0  0.10391539296E+01 -0.15597196364E+02  0.40487908533E+02  0.43400727099E+02  0.00000000000E+00 0. -1.
         11    1    3    3    0    0 -0.56198891112E+01  0.11643749845E+02 -0.10863584609E+02  0.16887200327E+02  0.51100000000E-03 0. -1.
        -11    1    3    3    0    0  0.36660021062E+01 -0.34943534436E+00 -0.19746820150E+02  0.20087274151E+02  0.51100000000E-03 0.  1.
        -12    1    3    3    0    0  0.91473307542E+00  0.43028818629E+01 -0.98775037740E+01  0.10812798423E+02  0.00000000000E+00 0.  1.
</event>
<event>
 7    1  0.7357971E-011  0.4778727E+02  0.7816164E-02  0.1312668E+00
        -11   -1    0    0    0    0  0.00000000000E+00  0.00000000000E+00  0.45593999997E+02  0.45594000000E+02  0.51100000000E-03 0. -1.
         11   -1    0    0    0    0 -0.00000000000E+00 -0.00000000000E+00 -0.45593999997E+02  0.45594000000E+02  0.51100000000E-03 0.  1.
    9900012    2    1    2    0    0 -0.16099028460E+02 -0.18234212345E+01 -0.40263130748E+02  0.47787270974E+02  0.19999999677E+02 0.  0.
         12    1    1    2    0    0  0.16099028460E+02  0.18234212345E+01  0.40263130748E+02  0.43400729026E+02  0.00000000000E+00 0. -1.
         11    1    3    3    0    0  0.10197095421E+00  0.70637589342E+00 -0.38229688566E+00  0.80963951745E+00  0.51100000000E-03 0. -1.
        -11    1    3    3    0    0  0.66951090668E+00  0.39173264730E+01 -0.98660716757E+00  0.40947631817E+01  0.51100000000E-03 0.  1.
        -12    1    3    3    0    0 -0.16870510321E+02 -0.64471236009E+01 -0.38894226695E+02  0.42882868274E+02  0.00000000000E+00 0.  1.
</event>
<event>
 7    1  0.7357971E-011  0.4778727E+02  0.7816164E-02  0.1312668E+00
        -11   -1    0    0    0    0  0.00000000000E+00  0.00000000000E+00  0.45593999997E+02  0.45594000000E+02  0.51100000000E-03 0. -1.
         11   -1    0    0    0    0 -0.00000000000E+00 -0.00000000000E+00 -0.45593999997E+02  0.45594000000E+02  0.51100000000E-03 0.  1.
    9900012    2    1    2    0    0 -0.10456285477E+02 -0.10580084411E+01  0.42109027268E+02  0.47787268840E+02  0.19999989947E+02 0.  0.
        -12    1    1    2    0    0  0.10456285477E+02  0.10580084411E+01 -0.42109027268E+02  0.43400731160E+02  0.00000000000E+00 0.  1.
         11    1    3    3    0    0 -0.84873969189E+00 -0.51312828462E+01  0.70009833889E+01  0.87214787384E+01  0.51100000000E-03 0. -1.
        -11    1    3    3    0    0 -0.18474091043E+00  0.45198577257E+01  0.24310889973E+02  0.24728174510E+02  0.51100000000E-03 0.  1.
        -12    1    3    3    0    0 -0.94228048748E+01 -0.44658332060E+00  0.10797153905E+02  0.14337615591E+02  0.00000000000E+00 0.  1.
</event>
<event>
 7    1  0.7357971E-011  0.4778727E+02  0.7816164E-02  0.1312668E+00
        -11   -1    0    0    0    0  0.00000000000E+00  0.00000000000E+00  0.45593999997E+02  0.45594000000E+02  0.51100000000E-03 0. -1.
         11   -1    0    0    0    0 -0.00000000000E+00 -0.00000000000E+00 -0.45593999997E+02  0.45594000000E+02  0.51100000000E-03 0.  1.
    9900012    2    1    2    0    0 -0.83296790257E+01  0.13511014285E+02  0.40394209026E+02  0.47787272097E+02  0.20000004800E+02 0.  0.
        -12    1    1    2    0    0  0.83296790257E+01 -0.13511014285E+02 -0.40394209026E+02  0.43400727903E+02  0.00000000000E+00 0.  1.
         11    1    3    3    0    0 -0.45666320213E+01  0.45894238945E+01  0.92444691745E+01  0.11286148603E+02  0.51100000000E-03 0. -1.
        -11    1    3    3    0    0 -0.63190834915E+01 -0.21319173311E+01  0.62561207347E+01  0.91441202194E+01  0.51100000000E-03 0.  1.
        -12    1    3    3    0    0  0.25560364871E+01  0.11053507721E+02  0.24893619117E+02  0.27357003275E+02  0.00000000000E+00 0.  1.
</event>
<event>
 7    1  0.7357971E-011  0.4778727E+02  0.7816164E-02  0.1312668E+00
        -11   -1    0    0    0    0  0.00000000000E+00  0.00000000000E+00  0.45593999997E+02  0.45594000000E+02  0.51100000000E-03 0. -1.
         11   -1    0    0    0    0 -0.00000000000E+00 -0.00000000000E+00 -0.45593999997E+02  0.45594000000E+02  0.51100000000E-03 0.  1.
    9900012    2    1    2    0    0  0.13624200238E+02 -0.36144443011E+02  0.19788474569E+02  0.47787270531E+02  0.19999997657E+02 0.  0.
        -12    1    1    2    0    0 -0.13624200238E+02  0.36144443011E+02 -0.19788474569E+02  0.43400729469E+02  0.00000000000E+00 0.  1.
         11    1    3    3    0    0  0.89210428320E-01 -0.10150470669E+02 -0.14468703873E+01  0.10253460269E+02  0.51100000000E-03 0.  1.
        -11    1    3    3    0    0  0.12437063946E+02 -0.15314952420E+02  0.16821055651E+02  0.25926361887E+02  0.51100000000E-03 0. -1.
         12    1    3    3    0    0  0.10979258634E+01 -0.10679019922E+02  0.44142893051E+01  0.11607448375E+02  0.00000000000E+00 0. -1.
</event>
<event>
 7    1  0.7357971E-011  0.4778727E+02  0.7816164E-02  0.1312668E+00
        -11   -1    0    0    0    0  0.00000000000E+00  0.00000000000E+00  0.45593999997E+02  0.45594000000E+02  0.51100000000E-03 0. -1.
         11   -1    0    0    0    0 -0.00000000000E+00 -0.00000000000E+00 -0.45593999997E+02  0.45594000000E+02  0.51100000000E-03 0.  1.
    9900012    2    1    2    0    0  0.30639102390E+02  0.27809243596E+02  0.13096352237E+02  0.47787273433E+02  0.20000010892E+02 0.  0.
        -12    1    1    2    0    0 -0.30639102390E+02 -0.27809243596E+02 -0.13096352237E+02  0.43400726567E+02  0.00000000000E+00 0.  1.
         11    1    3    3    0    0  0.28008073800E+00  0.99374489743E+01  0.36793708950E+01  0.10600429604E+02  0.51100000000E-03 0. -1.
        -11    1    3    3    0    0  0.29946663737E+02  0.16152437277E+02  0.80830458378E+01  0.34971982060E+02  0.51100000000E-03 0.  1.
        -12    1    3    3    0    0  0.41235791473E+00  0.17193573450E+01  0.13339355037E+01  0.22148617694E+01  0.00000000000E+00 0.  1.
</event>
<event>
 7    1  0.7357971E-011  0.4778727E+02  0.7816164E-02  0.1312668E+00
        -11   -1    0    0    0    0  0.00000000000E+00  0.00000000000E+00  0.45593999997E+02  0.45594000000E+02  0.51100000000E-03 0. -1.
         11   -1    0    0    0    0 -0.00000000000E+00 -0.00000000000E+00 -0.45593999997E+02  0.45594000000E+02  0.51100000000E-03 0.  1.
    9900012    2    1    2    0    0 -0.17640140832E+02  0.19577417367E+02 -0.34484393467E+02  0.47787271526E+02  0.20000002195E+02 0.  0.
         12    1    1    2    0    0  0.17640140832E+02 -0.19577417367E+02  0.34484393467E+02  0.43400728474E+02  0.00000000000E+00 0. -1.
         11    1    3    3    0    0 -0.49274844143E+01  0.60198357775E+01 -0.22506201721E+02  0.23812762159E+02  0.51100000000E-03 0. -1.
        -11    1    3    3    0    0 -0.13511956191E+02  0.10615461956E+02 -0.11942238036E+02  0.20925535649E+02  0.51100000000E-03 0.  1.
         12    1    3    3    0    0  0.79929977329E+00  0.29421196335E+01 -0.35953709313E-01  0.30489737182E+01  0.00000000000E+00 0. -1.
</event>
<event>
 7    1  0.7357971E-011  0.4778727E+02  0.7816164E-02  0.1312668E+00
        -11   -1    0    0    0    0  0.00000000000E+00  0.00000000000E+00  0.45593999997E+02  0.45594000000E+02  0.51100000000E-03 0. -1.
         11   -1    0    0    0    0 -0.00000000000E+00 -0.00000000000E+00 -0.45593999997E+02  0.45594000000E+02  0.51100000000E-03 0.  1.
    9900012    2    1    2    0    0  0.10461215689E+02 -0.24445391635E+00  0.42120383834E+02  0.47787268143E+02  0.19999986770E+02 0.  0.
        -12    1    1    2    0    0 -0.10461215689E+02  0.24445391635E+00 -0.42120383834E+02  0.43400731857E+02  0.00000000000E+00 0.  1.
         11    1    3    3    0    0  0.10114909085E+02  0.16368834066E+01  0.31300182173E+02  0.32934665284E+02  0.51100000000E-03 0. -1.
        -11    1    3    3    0    0  0.13581290617E+01 -0.69908949220E+00 -0.16715164155E+01  0.22643339097E+01  0.51100000000E-03 0.  1.
         12    1    3    3    0    0 -0.10118224572E+01 -0.11822478307E+01  0.12491718077E+02  0.12588268949E+02  0.00000000000E+00 0. -1.
</event>
<event>
 7    1  0.7357971E-011  0.4778727E+02  0.7816164E-02  0.1312668E+00
        -11   -1    0    0    0    0  0.00000000000E+00  0.00000000000E+00  0.45593999997E+02  0.45594000000E+02  0.51100000000E-03 0. -1.
         11   -1    0    0    0    0 -0.00000000000E+00 -0.00000000000E+00 -0.45593999997E+02  0.45594000000E+02  0.51100000000E-03 0.  1.
    9900012    2    1    2    0    0  0.35769402718E+02  0.22097717444E+00  0.24578945746E+02  0.47787267567E+02  0.19999984145E+02 0.  0.
        -12    1    1    2    0    0 -0.35769402718E+02 -0.22097717444E+00 -0.24578945746E+02  0.43400732433E+02  0.00000000000E+00 0.  1.
         11    1    3    3    0    0  0.13411205632E+01 -0.41769603455E+01  0.60309900516E+01  0.74577773738E+01  0.51100000000E-03 0. -1.
        -11    1    3    3    0    0  0.28662979552E+02  0.37525786488E+01  0.11280717645E+02  0.31030675696E+02  0.51100000000E-03 0.  1.
         12    1    3    3    0    0  0.57653026029E+01  0.64535887115E+00  0.72672380498E+01  0.92988144969E+01  0.00000000000E+00 0. -1.
</event>
<event>
 7    1  0.7357971E-011  0.4778727E+02  0.7816164E-02  0.1312668E+00
        -11   -1    0    0    0    0  0.00000000000E+00  0.00000000000E+00  0.45593999997E+02  0.45594000000E+02  0.51100000000E-03 0. -1.
         11   -1    0    0    0    0 -0.00000000000E+00 -0.00000000000E+00 -0.45593999997E+02  0.45594000000E+02  0.51100000000E-03 0.  1.
    9900012    2    1    2    0    0 -0.23033641141E+02  0.15992862678E+02  0.33125567407E+02  0.47787268475E+02  0.19999988286E+02 0.  0.
        -12    1    1    2    0    0  0.23033641141E+02 -0.15992862678E+02 -0.33125567407E+02  0.43400731525E+02  0.00000000000E+00 0.  1.
         11    1    3    3    0    0 -0.15162557620E+02  0.17408667730E+02  0.15075298497E+02  0.27572259442E+02  0.51100000000E-03 0. -1.
        -11    1    3    3    0    0 -0.15155830626E+01 -0.10372419759E+01  0.87731433199E+01  0.89633089263E+01  0.51100000000E-03 0.  1.
         12    1    3    3    0    0 -0.63555004591E+01 -0.37856307582E+00  0.92771255895E+01  0.11251700107E+02  0.00000000000E+00 0. -1.
</event>
<event>
 7    1  0.7357971E-011  0.4778727E+02  0.7816164E-02  0.1312668E+00
        -11   -1    0    0    0    0  0.00000000000E+00  0.00000000000E+00  0.45593999997E+02  0.45594000000E+02  0.51100000000E-03 0. -1.
         11   -1    0    0    0    0 -0.00000000000E+00 -0.00000000000E+00 -0.45593999997E+02  0.45594000000E+02  0.51100000000E-03 0.  1.
    9900012    2    1    2    0    0  0.28772112201E+02  0.18383931598E+02 -0.26792170497E+02  0.47787265197E+02  0.19999973338E+02 0.  0.
         12    1    1    2    0    0 -0.28772112201E+02 -0.18383931598E+02  0.26792170497E+02  0.43400734803E+02  0.00000000000E+00 0. -1.
         11    1    3    3    0    0  0.15576370970E+02  0.15075155091E+02 -0.89370168466E+01  0.23446831428E+02  0.51100000000E-03 0. -1.
        -11    1    3    3    0    0  0.11509525987E+02  0.48600287288E+01 -0.18145780723E+02  0.22030851685E+02  0.51100000000E-03 0.  1.
         12    1    3    3    0    0  0.16862152440E+01 -0.15512522218E+01  0.29062707219E+00  0.23095820834E+01  0.00000000000E+00 0. -1.
</event>
<event>
 7    1  0.1138408E-010  0.4778727E+02  0.7816164E-02  0.1312668E+00
        -11   -1    0    0    0    0  0.00000000000E+00  0.00000000000E+00  0.45593999997E+02  0.45594000000E+02  0.51100000000E-03 0. -1.
         11   -1    0    0    0    0 -0.00000000000E+00 -0.00000000000E+00 -0.45593999997E+02  0.45594000000E+02  0.51100000000E-03 0.  1.
    9900012    2    1    2    0    0  0.62746744810E+01 -0.66382555862E+01 -0.42428594071E+02  0.47787267611E+02  0.19999984345E+02 0.  0.
         12    1    1    2    0    0 -0.62746744810E+01  0.66382555862E+01  0.42428594071E+02  0.43400732389E+02  0.00000000000E+00 0. -1.
         11    1    3    3    0    0  0.17806390274E+01 -0.26075846028E+01 -0.28003695789E+00  0.31699516976E+01  0.51100000000E-03 0. -1.
        -11    1    3    3    0    0 -0.35048448560E+01  0.15943113665E+01 -0.20558748090E+02  0.20916211165E+02  0.51100000000E-03 0.  1.
        -12    1    3    3    0    0  0.79988803096E+01 -0.56249823499E+01 -0.21589809023E+02  0.23701104748E+02  0.00000000000E+00 0.  1.
</event>
<event>
 7    1  0.7357971E-011  0.4778727E+02  0.7816164E-02  0.1312668E+00
        -11   -1    0    0    0    0  0.00000000000E+00  0.00000000000E+00  0.45593999997E+02  0.45594000000E+02  0.51100000000E-03 0. -1.
         11   -1    0    0    0    0 -0.00000000000E+00 -0.00000000000E+00 -0.45593999997E+02  0.45594000000E+02  0.51100000000E-03 0.  1.
    9900012    2    1    2    0    0 -0.13376449621E+02  0.16466008306E+02 -0.37862442839E+02  0.47787269456E+02  0.19999992758E+02 0.  0.
         12    1    1    2    0    0  0.13376449621E+02 -0.16466008306E+02  0.37862442839E+02  0.43400730544E+02  0.00000000000E+00 0. -1.
         11    1    3    3    0    0 -0.12009570872E+02  0.87233205163E+01 -0.97904068987E+01  0.17781399857E+02  0.51100000000E-03 0. -1.
        -11    1    3    3    0    0  0.20003332626E+01  0.25582213398E+01 -0.17158120118E+02  0.17462729336E+02  0.51100000000E-03 0.  1.
         12    1    3    3    0    0 -0.33672120111E+01  0.51844664495E+01 -0.10913915822E+02  0.12543140264E+02  0.00000000000E+00 0. -1.
</event>
<event>
 7    1  0.7357971E-011  0.4778727E+02  0.7816164E-02  0.1312668E+00
        -11   -1    0    0    0    0  0.00000000000E+00  0.00000000000E+00  0.45593999997E+02  0.45594000000E+02  0.51100000000E-03 0. -1.
         11   -1    0    0    0    0 -0.00000000000E+00 -0.00000000000E+00 -0.45593999997E+02  0.45594000000E+02  0.51100000000E-03 0.  1.
    9900012    2    1    2    0    0  0.13977140590E+02  0.92857425142E+01  0.40025463971E+02  0.47787271444E+02  0.20000001821E+02 0.  0.
        -12    1    1    2    0    0 -0.13977140590E+02 -0.92857425142E+01 -0.40025463971E+02  0.43400728556E+02  0.00000000000E+00 0.  1.
         11    1    3    3    0    0  0.91501878321E+01  0.96420363639E+01  0.20425214258E+02  0.24369739029E+02  0.51100000000E-03 0. -1.
        -11    1    3    3    0    0  0.11452001505E+01 -0.52667518583E+01  0.41798704721E+01  0.68206653594E+01  0.51100000000E-03 0.  1.
        -12    1    3    3    0    0  0.36817526072E+01  0.49104580085E+01  0.15420379241E+02  0.16596867055E+02  0.00000000000E+00 0.  1.
</event>
<event>
 7    1  0.7357971E-011  0.4778728E+02  0.7816164E-02  0.1312668E+00
        -11   -1    0    0    0    0  0.00000000000E+00  0.00000000000E+00  0.45593999997E+02  0.45594000000E+02  0.51100000000E-03 0. -1.
         11   -1    0    0    0    0 -0.00000000000E+00 -0.00000000000E+00 -0.45593999997E+02  0.45594000000E+02  0.51100000000E-03 0.  1.
    9900012    2    1    2    0    0 -0.40028671714E+02  0.90788465584E+01 -0.14103294459E+02  0.47787275022E+02  0.20000018136E+02 0.  0.
         12    1    1    2    0    0  0.40028671714E+02 -0.90788465584E+01  0.14103294459E+02  0.43400724978E+02  0.00000000000E+00 0. -1.
         11    1    3    3    0    0 -0.23084222353E+02  0.11944816998E+02 -0.12441279533E+02  0.28815714661E+02  0.51100000000E-03 0. -1.
        -11    1    3    3    0    0 -0.10655213811E+02  0.21281881345E+01 -0.10921977449E+01  0.10920424088E+02  0.51100000000E-03 0.  1.
         12    1    3    3    0    0 -0.62892355508E+01 -0.49941585738E+01 -0.56981718080E+00  0.80511362734E+01  0.00000000000E+00 0. -1.
</event>
<event>
 7    1  0.7357971E-011  0.4778727E+02  0.7816164E-02  0.1312668E+00
        -11   -1    0    0    0    0  0.00000000000E+00  0.00000000000E+00  0.45593999997E+02  0.45594000000E+02  0.51100000000E-03 0. -1.
         11   -1    0    0    0    0 -0.00000000000E+00 -0.00000000000E+00 -0.45593999997E+02  0.45594000000E+02  0.51100000000E-03 0.  1.
    9900012    2    1    2    0    0  0.53807212568E+01 -0.31758316436E+02 -0.29087461483E+02  0.47787271439E+02  0.20000001800E+02 0.  0.
         12    1    1    2    0    0 -0.53807212568E+01  0.31758316436E+02  0.29087461483E+02  0.43400728561E+02  0.00000000000E+00 0. -1.
         11    1    3    3    0    0  0.94421987319E+00 -0.21754697404E+02 -0.77274110988E+01  0.23105654998E+02  0.51100000000E-03 0. -1.
        -11    1    3    3    0    0  0.40511964718E+01 -0.23123129032E+01 -0.82023847018E+01  0.94360001522E+01  0.51100000000E-03 0.  1.
        -12    1    3    3    0    0  0.38530491181E+00 -0.76913061285E+01 -0.13157665682E+02  0.15245616289E+02  0.00000000000E+00 0.  1.
</event>
<event>
 7    1  0.7357971E-011  0.4778727E+02  0.7816164E-02  0.1312668E+00
        -11   -1    0    0    0    0  0.00000000000E+00  0.00000000000E+00  0.45593999997E+02  0.45594000000E+02  0.51100000000E-03 0.  1.
         11   -1    0    0    0    0 -0.00000000000E+00 -0.00000000000E+00 -0.45593999997E+02  0.45594000000E+02  0.51100000000E-03 0. -1.
    9900012    2    1    2    0    0  0.38598932611E+02  0.18803132636E+02 -0.63393780038E+01  0.47787272942E+02  0.20000008654E+02 0.  0.
         12    1    1    2    0    0 -0.38598932611E+02 -0.18803132636E+02  0.63393780038E+01  0.43400727058E+02  0.00000000000E+00 0. -1.
         11    1    3    3    0    0  0.19577972074E+01  0.39255411345E+01 -0.59909556687E+01  0.74252537458E+01  0.51100000000E-03 0. -1.
        -11    1    3    3    0    0  0.23376223650E+02  0.84485087181E+01  0.35653871657E+01  0.25110498155E+02  0.51100000000E-03 0.  1.
         12    1    3    3    0    0  0.13264911754E+02  0.64290827831E+01 -0.39138095008E+01  0.15251521042E+02  0.00000000000E+00 0. -1.
</event>
<event>
 7    1  0.7357971E-011  0.4778727E+02  0.7816164E-02  0.1312668E+00
        -11   -1    0    0    0    0  0.00000000000E+00  0.00000000000E+00  0.45593999997E+02  0.45594000000E+02  0.51100000000E-03 0. -1.
         11   -1    0    0    0    0 -0.00000000000E+00 -0.00000000000E+00 -0.45593999997E+02  0.45594000000E+02  0.51100000000E-03 0.  1.
    9900012    2    1    2    0    0 -0.83299699341E+01  0.25669440702E+02 -0.33989920774E+02  0.47787270752E+02  0.19999998666E+02 0.  0.
         12    1    1    2    0    0  0.83299699341E+01 -0.25669440702E+02  0.33989920774E+02  0.43400729248E+02  0.00000000000E+00 0. -1.
         11    1    3    3    0    0  0.61369002491E+00 -0.11600690023E+00  0.16604457132E-01  0.62477917434E+00  0.51100000000E-03 0. -1.
        -11    1    3    3    0    0 -0.97762369951E+01  0.91347047403E+01 -0.24644154399E+02  0.28041968312E+02  0.51100000000E-03 0.  1.
        -12    1    3    3    0    0  0.83257703602E+00  0.16650742862E+02 -0.93623708319E+01  0.19120523266E+02  0.00000000000E+00 0.  1.
</event>
<event>
 7    1  0.7357971E-011  0.4778728E+02  0.7816164E-02  0.1312668E+00
        -11   -1    0    0    0    0  0.00000000000E+00  0.00000000000E+00  0.45593999997E+02  0.45594000000E+02  0.51100000000E-03 0.  1.
         11   -1    0    0    0    0 -0.00000000000E+00 -0.00000000000E+00 -0.45593999997E+02  0.45594000000E+02  0.51100000000E-03 0. -1.
    9900012    2    1    2    0    0  0.38417150811E+02  0.16617386294E+02 -0.11472041788E+02  0.47787277121E+02  0.20000027705E+02 0.  0.
        -12    1    1    2    0    0 -0.38417150811E+02 -0.16617386294E+02  0.11472041788E+02  0.43400722879E+02  0.00000000000E+00 0.  1.
         11    1    3    3    0    0  0.57460690643E+01 -0.12889151491E+01 -0.27702197877E+01  0.65078975013E+01  0.51100000000E-03 0.  1.
        -11    1    3    3    0    0  0.29430043581E+02  0.97942139771E+01 -0.37632672905E+01  0.31244459886E+02  0.51100000000E-03 0. -1.
        -12    1    3    3    0    0  0.32410381655E+01  0.81120874656E+01 -0.49385547093E+01  0.10034919733E+02  0.00000000000E+00 0.  1.
</event>
<event>
 7    1  0.7357971E-011  0.4778727E+02  0.7816164E-02  0.1312668E+00
        -11   -1    0    0    0    0  0.00000000000E+00  0.00000000000E+00  0.45593999997E+02  0.45594000000E+02  0.51100000000E-03 0. -1.
         11   -1    0    0    0    0 -0.00000000000E+00 -0.00000000000E+00 -0.45593999997E+02  0.45594000000E+02  0.51100000000E-03 0.  1.
    9900012    2    1    2    0    0  0.16390034292E+02 -0.29796845419E+02  0.26965491155E+02  0.47787274957E+02  0.20000017839E+02 0.  0.
        -12    1    1    2    0    0 -0.16390034292E+02  0.29796845419E+02 -0.26965491155E+02  0.43400725043E+02  0.00000000000E+00 0.  1.
         11    1    3    3    0    0  0.55684613384E+01 -0.26951511840E+02  0.18352155695E+02  0.33078593850E+02  0.51100000000E-03 0. -1.
        -11    1    3    3    0    0  0.36569912144E+01 -0.89005377298E+00  0.64950443871E+00  0.38193764855E+01  0.51100000000E-03 0.  1.
         12    1    3    3    0    0  0.71645817393E+01 -0.19552798061E+01  0.79638310208E+01  0.10889304622E+02  0.00000000000E+00 0. -1.
</event>
<event>
 7    1  0.7357971E-011  0.4778727E+02  0.7816164E-02  0.1312668E+00
        -11   -1    0    0    0    0  0.00000000000E+00  0.00000000000E+00  0.45593999997E+02  0.45594000000E+02  0.51100000000E-03 0. -1.
         11   -1    0    0    0    0 -0.00000000000E+00 -0.00000000000E+00 -0.45593999997E+02  0.45594000000E+02  0.51100000000E-03 0.  1.
    9900012    2    1    2    0    0  0.67989068887E+01 -0.29847415673E+02 -0.30765725604E+02  0.47787271560E+02  0.20000002348E+02 0.  0.
         12    1    1    2    0    0 -0.67989068887E+01  0.29847415673E+02  0.30765725604E+02  0.43400728440E+02  0.00000000000E+00 0. -1.
         11    1    3    3    0    0  0.94950225728E+01 -0.75410990694E+01 -0.98257935732E+01  0.15606724462E+02  0.51100000000E-03 0. -1.
        -11    1    3    3    0    0 -0.10789243846E+01 -0.21563184236E+02 -0.15836108504E+02  0.26775311857E+02  0.51100000000E-03 0.  1.
        -12    1    3    3    0    0 -0.16171912995E+01 -0.74313236770E+00 -0.51038235268E+01  0.54052352408E+01  0.00000000000E+00 0.  1.
</event>
<event>
 7    1  0.7357971E-011  0.4778727E+02  0.7816164E-02  0.1312668E+00
        -11   -1    0    0    0    0  0.00000000000E+00  0.00000000000E+00  0.45593999997E+02  0.45594000000E+02  0.51100000000E-03 0. -1.
         11   -1    0    0    0    0 -0.00000000000E+00 -0.00000000000E+00 -0.45593999997E+02  0.45594000000E+02  0.51100000000E-03 0.  1.
    9900012    2    1    2    0    0  0.12629526780E+02  0.25812939269E+02 -0.32524002831E+02  0.47787267972E+02  0.19999985993E+02 0.  0.
         12    1    1    2    0    0 -0.12629526780E+02 -0.25812939269E+02  0.32524002831E+02  0.43400732028E+02  0.00000000000E+00 0. -1.
         11    1    3    3    0    0  0.11414252017E+02  0.15416198555E+02 -0.13741447267E+02  0.23596010262E+02  0.51100000000E-03 0. -1.
        -11    1    3    3    0    0 -0.37149105890E+01  0.61187620673E+01 -0.44144880620E+01  0.84099652217E+01  0.51100000000E-03 0.  1.
        -12    1    3    3    0    0  0.49301853525E+01  0.42779786466E+01 -0.14368067501E+02  0.15781292489E+02  0.00000000000E+00 0.  1.
</event>
<event>
 7    1  0.7357971E-011  0.4778729E+02  0.7816164E-02  0.1312668E+00
        -11   -1    0    0    0    0  0.00000000000E+00  0.00000000000E+00  0.45593999997E+02  0.45594000000E+02  0.51100000000E-03 0. -1.
         11   -1    0    0    0    0 -0.00000000000E+00 -0.00000000000E+00 -0.45593999997E+02  0.45594000000E+02  0.51100000000E-03 0.  1.
    9900012    2    1    2    0    0  0.38638518001E+02  0.70093131035E+01 -0.18481241245E+02  0.47787287777E+02  0.20000076291E+02 0.  0.
         12    1    1    2    0    0 -0.38638518001E+02 -0.70093131035E+01  0.18481241245E+02  0.43400712223E+02  0.00000000000E+00 0. -1.
         11    1    3    3    0    0  0.17315846657E+02  0.58472739724E+01 -0.14551664661E+02  0.23361937057E+02  0.51100000000E-03 0. -1.
        -11    1    3    3    0    0  0.18248840085E+02  0.17043560840E+01  0.12577392990E+01  0.18371360932E+02  0.51100000000E-03 0.  1.
         12    1    3    3    0    0  0.30738312587E+01 -0.54231695285E+00 -0.51873158831E+01  0.60539897882E+01  0.00000000000E+00 0. -1.
</event>
<event>
 7    1  0.7357971E-011  0.4778727E+02  0.7816164E-02  0.1312668E+00
        -11   -1    0    0    0    0  0.00000000000E+00  0.00000000000E+00  0.45593999997E+02  0.45594000000E+02  0.51100000000E-03 0. -1.
         11   -1    0    0    0    0 -0.00000000000E+00 -0.00000000000E+00 -0.45593999997E+02  0.45594000000E+02  0.51100000000E-03 0.  1.
    9900012    2    1    2    0    0 -0.30591996327E+02  0.19677679411E+01  0.30722646453E+02  0.47787270110E+02  0.19999995741E+02 0.  0.
        -12    1    1    2    0    0  0.30591996327E+02 -0.19677679411E+01 -0.30722646453E+02  0.43400729890E+02  0.00000000000E+00 0.  1.
         11    1    3    3    0    0 -0.16063319047E+02 -0.32471527189E+01  0.85859152824E+01  0.18501139453E+02  0.51100000000E-03 0. -1.
        -11    1    3    3    0    0 -0.15671729193E+02  0.59875501999E+01  0.22289965825E+02  0.27897964622E+02  0.51100000000E-03 0.  1.
        -12    1    3    3    0    0  0.11430519132E+01 -0.77262953987E+00 -0.15323465465E+00  0.13881660353E+01  0.00000000000E+00 0.  1.
</event>
<event>
 7    1  0.7357971E-011  0.4778727E+02  0.7816164E-02  0.1312668E+00
        -11   -1    0    0    0    0  0.00000000000E+00  0.00000000000E+00  0.45593999997E+02  0.45594000000E+02  0.51100000000E-03 0. -1.
         11   -1    0    0    0    0 -0.00000000000E+00 -0.00000000000E+00 -0.45593999997E+02  0.45594000000E+02  0.51100000000E-03 0.  1.
    9900012    2    1    2    0    0  0.32339572141E+02 -0.13018959373E+02 -0.25851148946E+02  0.47787272688E+02  0.20000007492E+02 0.  0.
         12    1    1    2    0    0 -0.32339572141E+02  0.13018959373E+02  0.25851148946E+02  0.43400727312E+02  0.00000000000E+00 0. -1.
         11    1    3    3    0    0  0.93886053357E+01  0.31542623374E+01 -0.63187402232E+01  0.11748266226E+02  0.51100000000E-03 0. -1.
        -11    1    3    3    0    0  0.11065555466E+02 -0.11374703456E+02 -0.49479755554E+01  0.16622661004E+02  0.51100000000E-03 0.  1.
        -12    1    3    3    0    0  0.11885411339E+02 -0.47985182543E+01 -0.14584433168E+02  0.19416345458E+02  0.00000000000E+00 0.  1.
</event>
<event>
 7    1  0.7357971E-011  0.4778729E+02  0.7816164E-02  0.1312668E+00
        -11   -1    0    0    0    0  0.00000000000E+00  0.00000000000E+00  0.45593999997E+02  0.45594000000E+02  0.51100000000E-03 0. -1.
         11   -1    0    0    0    0 -0.00000000000E+00 -0.00000000000E+00 -0.45593999997E+02  0.45594000000E+02  0.51100000000E-03 0.  1.
    9900012    2    1    2    0    0 -0.13761981975E+02 -0.11027160389E+01 -0.41146240364E+02  0.47787294630E+02  0.20000107534E+02 0.  0.
         12    1    1    2    0    0  0.13761981975E+02  0.11027160389E+01  0.41146240364E+02  0.43400705370E+02  0.00000000000E+00 0. -1.
         11    1    3    3    0    0  0.94348038358E+00 -0.67593237748E+01 -0.10044087606E+02  0.12143405998E+02  0.51100000000E-03 0. -1.
        -11    1    3    3    0    0 -0.53484538878E+01  0.34635689526E+01 -0.19841980906E+02  0.20840021004E+02  0.51100000000E-03 0.  1.
         12    1    3    3    0    0 -0.93570084704E+01  0.21930387833E+01 -0.11260171852E+02  0.14803867628E+02  0.00000000000E+00 0. -1.
</event>
<event>
 7    1  0.7357971E-011  0.4778727E+02  0.7816164E-02  0.1312668E+00
        -11   -1    0    0    0    0  0.00000000000E+00  0.00000000000E+00  0.45593999997E+02  0.45594000000E+02  0.51100000000E-03 0. -1.
         11   -1    0    0    0    0 -0.00000000000E+00 -0.00000000000E+00 -0.45593999997E+02  0.45594000000E+02  0.51100000000E-03 0.  1.
    9900012    2    1    2    0    0  0.97807688334E+01  0.37272900690E+02 -0.19967241299E+02  0.47787270859E+02  0.19999999156E+02 0.  0.
         12    1    1    2    0    0 -0.97807688334E+01 -0.37272900690E+02  0.19967241299E+02  0.43400729141E+02  0.00000000000E+00 0. -1.
         11    1    3    3    0    0  0.83505879135E+01  0.60870910531E+01 -0.23574135136E+01  0.10599169530E+02  0.51100000000E-03 0.  1.
        -11    1    3    3    0    0 -0.27656431621E+01  0.19980580874E+02 -0.14450192050E+02  0.24812908832E+02  0.51100000000E-03 0. -1.
         12    1    3    3    0    0  0.41958240821E+01  0.11205228764E+02 -0.31596357351E+01  0.12375192498E+02  0.00000000000E+00 0. -1.
</event>
<event>
 7    1  0.7357971E-011  0.4778727E+02  0.7816164E-02  0.1312668E+00
        -11   -1    0    0    0    0  0.00000000000E+00  0.00000000000E+00  0.45593999997E+02  0.45594000000E+02  0.51100000000E-03 0. -1.
         11   -1    0    0    0    0 -0.00000000000E+00 -0.00000000000E+00 -0.45593999997E+02  0.45594000000E+02  0.51100000000E-03 0.  1.
    9900012    2    1    2    0    0 -0.13793577240E+02 -0.95415832359E+01  0.40028972271E+02  0.47787271840E+02  0.20000003629E+02 0.  0.
        -12    1    1    2    0    0  0.13793577240E+02  0.95415832359E+01 -0.40028972271E+02  0.43400728160E+02  0.00000000000E+00 0.  1.
         11    1    3    3    0    0 -0.13374505239E+02 -0.29497349028E+01  0.26193974885E+02  0.29558461511E+02  0.51100000000E-03 0. -1.
        -11    1    3    3    0    0 -0.16319998147E+01 -0.85910903408E+01  0.13149930474E+02  0.15792116019E+02  0.51100000000E-03 0.  1.
         12    1    3    3    0    0  0.12129278133E+01  0.19992420078E+01  0.68506691210E+00  0.24366943099E+01  0.00000000000E+00 0. -1.
</event>
<event>
 7    1  0.7357971E-011  0.4778725E+02  0.7816164E-02  0.1312668E+00
        -11   -1    0    0    0    0  0.00000000000E+00  0.00000000000E+00  0.45593999997E+02  0.45594000000E+02  0.51100000000E-03 0. -1.
         11   -1    0    0    0    0 -0.00000000000E+00 -0.00000000000E+00 -0.45593999997E+02  0.45594000000E+02  0.51100000000E-03 0.  1.
    9900012    2    1    2    0    0  0.60682007323E+01 -0.50456616839E+01  0.42677199259E+02  0.47787250023E+02  0.19999904154E+02 0.  0.
        -12    1    1    2    0    0 -0.60682007323E+01  0.50456616839E+01 -0.42677199259E+02  0.43400749977E+02  0.00000000000E+00 0.  1.
         11    1    3    3    0    0  0.33940005743E+01 -0.26503911765E+01  0.12461810831E+02  0.13184860361E+02  0.51100000000E-03 0. -1.
        -11    1    3    3    0    0  0.66739898976E+01 -0.11207500966E+01  0.29594954644E+02  0.30358846529E+02  0.51100000000E-03 0.  1.
        -12    1    3    3    0    0 -0.39997897396E+01 -0.12745204109E+01  0.62043378436E+00  0.42435431328E+01  0.00000000000E+00 0.  1.
</event>
<event>
 7    1  0.7357971E-011  0.4778728E+02  0.7816164E-02  0.1312668E+00
        -11   -1    0    0    0    0  0.00000000000E+00  0.00000000000E+00  0.45593999997E+02  0.45594000000E+02  0.51100000000E-03 0. -1.
         11   -1    0    0    0    0 -0.00000000000E+00 -0.00000000000E+00 -0.45593999997E+02  0.45594000000E+02  0.51100000000E-03 0.  1.
    9900012    2    1    2    0    0  0.13594024708E+02  0.98159796896E+01  0.40030886470E+02  0.47787276082E+02  0.20000022969E+02 0.  0.
        -12    1    1    2    0    0 -0.13594024708E+02 -0.98159796896E+01 -0.40030886470E+02  0.43400723918E+02  0.00000000000E+00 0.  1.
         11    1    3    3    0    0  0.25026621578E+01 -0.41402621197E+01  0.11327693834E+02  0.12317537747E+02  0.51100000000E-03 0. -1.
        -11    1    3    3    0    0  0.68093667129E+01  0.14887586640E+02  0.21265066647E+02  0.26836742924E+02  0.51100000000E-03 0.  1.
        -12    1    3    3    0    0  0.42819958374E+01 -0.93134483030E+00  0.74381259887E+01  0.86329954111E+01  0.00000000000E+00 0.  1.
</event>
<event>
 7    1  0.7357971E-011  0.4778725E+02  0.7816164E-02  0.1312668E+00
        -11   -1    0    0    0    0  0.00000000000E+00  0.00000000000E+00  0.45593999997E+02  0.45594000000E+02  0.51100000000E-03 0. -1.
         11   -1    0    0    0    0 -0.00000000000E+00 -0.00000000000E+00 -0.45593999997E+02  0.45594000000E+02  0.51100000000E-03 0.  1.
    9900012    2    1    2    0    0  0.37959754330E+01 -0.10754718614E+02  0.41875429910E+02  0.47787250789E+02  0.19999907648E+02 0.  0.
        -12    1    1    2    0    0 -0.37959754330E+01  0.10754718614E+02 -0.41875429910E+02  0.43400749211E+02  0.00000000000E+00 0.  1.
         11    1    3    3    0    0  0.17186473632E+01 -0.12732681824E+01  0.83605288525E+01  0.86297974239E+01  0.51100000000E-03 0. -1.
        -11    1    3    3    0    0  0.48846990334E+01 -0.83946065005E+01  0.34615452700E+02  0.35952180307E+02  0.51100000000E-03 0.  1.
        -12    1    3    3    0    0 -0.28073709637E+01 -0.10868439312E+01 -0.11005516429E+01  0.32052730581E+01  0.00000000000E+00 0.  1.
</event>
<event>
 7    1  0.7357971E-011  0.4778727E+02  0.7816164E-02  0.1312668E+00
        -11   -1    0    0    0    0  0.00000000000E+00  0.00000000000E+00  0.45593999997E+02  0.45594000000E+02  0.51100000000E-03 0. -1.
         11   -1    0    0    0    0 -0.00000000000E+00 -0.00000000000E+00 -0.45593999997E+02  0.45594000000E+02  0.51100000000E-03 0.  1.
    9900012    2    1    2    0    0 -0.28036035306E+02 -0.27056512620E+02 -0.19119343439E+02  0.47787269080E+02  0.19999991041E+02 0.  0.
         12    1    1    2    0    0  0.28036035306E+02  0.27056512620E+02  0.19119343439E+02  0.43400730920E+02  0.00000000000E+00 0. -1.
         11    1    3    3    0    0 -0.10865673110E+02 -0.13610524007E+02 -0.24046407786E+00  0.17417434918E+02  0.51100000000E-03 0. -1.
        -11    1    3    3    0    0 -0.67566013807E+01 -0.10712009359E+02 -0.12795370180E+02  0.18003341496E+02  0.51100000000E-03 0.  1.
         12    1    3    3    0    0 -0.10413760815E+02 -0.27339792542E+01 -0.60835091816E+01  0.12366492665E+02  0.00000000000E+00 0. -1.
</event>
<event>
 7    1  0.7357971E-011  0.4778729E+02  0.7816164E-02  0.1312668E+00
        -11   -1    0    0    0    0  0.00000000000E+00  0.00000000000E+00  0.45593999997E+02  0.45594000000E+02  0.51100000000E-03 0. -1.
         11   -1    0    0    0    0 -0.00000000000E+00 -0.00000000000E+00 -0.45593999997E+02  0.45594000000E+02  0.51100000000E-03 0.  1.
    9900012    2    1    2    0    0  0.28320066379E+01  0.41542026907E+02  0.12241779922E+02  0.47787292209E+02  0.20000096496E+02 0.  0.
        -12    1    1    2    0    0 -0.28320066379E+01 -0.41542026907E+02 -0.12241779922E+02  0.43400707791E+02  0.00000000000E+00 0.  1.
         11    1    3    3    0    0 -0.27671531960E+00  0.24635478698E+02  0.55491139396E+01  0.25254228316E+02  0.51100000000E-03 0. -1.
        -11    1    3    3    0    0  0.23943688089E+00  0.61399264385E+01  0.92462865462E+01  0.11101794533E+02  0.51100000000E-03 0.  1.
        -12    1    3    3    0    0  0.28692850766E+01  0.10766621771E+02 -0.25536205642E+01  0.11431269360E+02  0.00000000000E+00 0.  1.
</event>
<event>
 7    1  0.7357971E-011  0.4778727E+02  0.7816164E-02  0.1312668E+00
        -11   -1    0    0    0    0  0.00000000000E+00  0.00000000000E+00  0.45593999997E+02  0.45594000000E+02  0.51100000000E-03 0. -1.
         11   -1    0    0    0    0 -0.00000000000E+00 -0.00000000000E+00 -0.45593999997E+02  0.45594000000E+02  0.51100000000E-03 0.  1.
    9900012    2    1    2    0    0  0.23625896760E+02 -0.26943231125E+02  0.24484739280E+02  0.47787272370E+02  0.20000006046E+02 0.  0.
        -12    1    1    2    0    0 -0.23625896760E+02  0.26943231125E+02 -0.24484739280E+02  0.43400727630E+02  0.00000000000E+00 0.  1.
         11    1    3    3    0    0  0.54779448095E+01  0.11990929140E+01 -0.45676530954E+00  0.56262187979E+01  0.51100000000E-03 0.  1.
        -11    1    3    3    0    0  0.16139575913E+02 -0.27464347990E+02  0.23051365883E+02  0.39321009531E+02  0.51100000000E-03 0. -1.
         12    1    3    3    0    0  0.20083760371E+01 -0.67797604884E+00  0.18901387063E+01  0.28400440416E+01  0.00000000000E+00 0. -1.
</event>
<event>
 7    1  0.7357971E-011  0.4778727E+02  0.7816164E-02  0.1312668E+00
        -11   -1    0    0    0    0  0.00000000000E+00  0.00000000000E+00  0.45593999997E+02  0.45594000000E+02  0.51100000000E-03 0. -1.
         11   -1    0    0    0    0 -0.00000000000E+00 -0.00000000000E+00 -0.45593999997E+02  0.45594000000E+02  0.51100000000E-03 0.  1.
    9900012    2    1    2    0    0 -0.10753949247E+02 -0.16771598398E+02  0.38557613428E+02  0.47787268549E+02  0.19999988623E+02 0.  0.
        -12    1    1    2    0    0  0.10753949247E+02  0.16771598398E+02 -0.38557613428E+02  0.43400731451E+02  0.00000000000E+00 0.  1.
         11    1    3    3    0    0 -0.93607911729E+01 -0.16410566857E+02  0.29950027427E+02  0.35410948294E+02  0.51100000000E-03 0. -1.
        -11    1    3    3    0    0  0.36885666498E+01  0.39903227175E+00  0.30057410336E+01  0.47748539356E+01  0.51100000000E-03 0.  1.
        -12    1    3    3    0    0 -0.50817247238E+01 -0.76006381262E+00  0.56018449674E+01  0.76014663195E+01  0.00000000000E+00 0.  1.
</event>
<event>
 7    1  0.7357971E-011  0.4778727E+02  0.7816164E-02  0.1312668E+00
        -11   -1    0    0    0    0  0.00000000000E+00  0.00000000000E+00  0.45593999997E+02  0.45594000000E+02  0.51100000000E-03 0. -1.
         11   -1    0    0    0    0 -0.00000000000E+00 -0.00000000000E+00 -0.45593999997E+02  0.45594000000E+02  0.51100000000E-03 0.  1.
    9900012    2    1    2    0    0 -0.15400557148E+02  0.11585048632E+02  0.38887437901E+02  0.47787270297E+02  0.19999996591E+02 0.  0.
        -12    1    1    2    0    0  0.15400557148E+02 -0.11585048632E+02 -0.38887437901E+02  0.43400729703E+02  0.00000000000E+00 0.  1.
         11    1    3    3    0    0 -0.15224499350E+02  0.19007088795E+01  0.30536417937E+02  0.34174126110E+02  0.51100000000E-03 0. -1.
        -11    1    3    3    0    0  0.17339249702E+01  0.34673567964E+01  0.49075311279E+01  0.62540323783E+01  0.51100000000E-03 0.  1.
         12    1    3    3    0    0 -0.19099827680E+01  0.62169829557E+01  0.34434888369E+01  0.73591118088E+01  0.00000000000E+00 0. -1.
</event>
<event>
 7    1  0.7357971E-011  0.4778727E+02  0.7816164E-02  0.1312668E+00
        -11   -1    0    0    0    0  0.00000000000E+00  0.00000000000E+00  0.45593999997E+02  0.45594000000E+02  0.51100000000E-03 0. -1.
         11   -1    0    0    0    0 -0.00000000000E+00 -0.00000000000E+00 -0.45593999997E+02  0.45594000000E+02  0.51100000000E-03 0.  1.
    9900012    2    1    2    0    0 -0.73334722377E+01  0.20583868395E+02  0.37498635189E+02  0.47787273115E+02  0.20000009439E+02 0.  0.
        -12    1    1    2    0    0  0.73334722377E+01 -0.20583868395E+02 -0.37498635189E+02  0.43400726885E+02  0.00000000000E+00 0.  1.
         11    1    3    3    0    0  0.17693329499E+01  0.11159385631E+02  0.23272200042E+02  0.25870015883E+02  0.51100000000E-03 0. -1.
        -11    1    3    3    0    0 -0.92963139002E+01  0.71349966554E+01  0.55962296262E+01  0.12986431985E+02  0.51100000000E-03 0.  1.
        -12    1    3    3    0    0  0.19350871254E+00  0.22894861084E+01  0.86302055207E+01  0.89308252470E+01  0.00000000000E+00 0.  1.
</event>
<event>
 7    1  0.7357971E-011  0.4778728E+02  0.7816164E-02  0.1312668E+00
        -11   -1    0    0    0    0  0.00000000000E+00  0.00000000000E+00  0.45593999997E+02  0.45594000000E+02  0.51100000000E-03 0. -1.
         11   -1    0    0    0    0 -0.00000000000E+00 -0.00000000000E+00 -0.45593999997E+02  0.45594000000E+02  0.51100000000E-03 0.  1.
    9900012    2    1    2    0    0 -0.39752263316E+01 -0.17135392594E+02  0.39676172988E+02  0.47787276426E+02  0.20000024538E+02 0.  0.
        -12    1    1    2    0    0  0.39752263316E+01  0.17135392594E+02 -0.39676172988E+02  0.43400723574E+02  0.00000000000E+00 0.  1.
         11    1    3    3    0    0 -0.37493357876E+01 -0.79116816174E+01  0.10146913893E+02  0.13401943392E+02  0.51100000000E-03 0. -1.
        -11    1    3    3    0    0 -0.38739788108E+01 -0.61734522562E+01  0.28633387915E+02  0.29546406352E+02  0.51100000000E-03 0.  1.
        -12    1    3    3    0    0  0.36480882668E+01 -0.30502587204E+01  0.89587117974E+00  0.48389266820E+01  0.00000000000E+00 0.  1.
</event>
<event>
 7    1  0.7357971E-011  0.4778727E+02  0.7816164E-02  0.1312668E+00
        -11   -1    0    0    0    0  0.00000000000E+00  0.00000000000E+00  0.45593999997E+02  0.45594000000E+02  0.51100000000E-03 0. -1.
         11   -1    0    0    0    0 -0.00000000000E+00 -0.00000000000E+00 -0.45593999997E+02  0.45594000000E+02  0.51100000000E-03 0.  1.
    9900012    2    1    2    0    0 -0.23837760980E+02 -0.89606870405E+01  0.35143853803E+02  0.47787271654E+02  0.20000002781E+02 0.  0.
        -12    1    1    2    0    0  0.23837760980E+02  0.89606870405E+01 -0.35143853803E+02  0.43400728346E+02  0.00000000000E+00 0.  1.
         11    1    3    3    0    0 -0.17776497149E+02  0.68004060739E+00  0.11339224596E+02  0.21096073588E+02  0.51100000000E-03 0.  1.
        -11    1    3    3    0    0 -0.50212596353E+01 -0.67011092205E+01  0.20517201729E+02  0.22160177800E+02  0.51100000000E-03 0. -1.
         12    1    3    3    0    0 -0.10400041957E+01 -0.29396184274E+01  0.32874274782E+01  0.45310202659E+01  0.00000000000E+00 0. -1.
</event>
<event>
 7    1  0.7357971E-011  0.4778727E+02  0.7816164E-02  0.1312668E+00
        -11   -1    0    0    0    0  0.00000000000E+00  0.00000000000E+00  0.45593999997E+02  0.45594000000E+02  0.51100000000E-03 0. -1.
         11   -1    0    0    0    0 -0.00000000000E+00 -0.00000000000E+00 -0.45593999997E+02  0.45594000000E+02  0.51100000000E-03 0.  1.
    9900012    2    1    2    0    0 -0.23925826387E+02 -0.32671859057E+02 -0.15611790333E+02  0.47787267979E+02  0.19999986023E+02 0.  0.
         12    1    1    2    0    0  0.23925826387E+02  0.32671859057E+02  0.15611790333E+02  0.43400732021E+02  0.00000000000E+00 0. -1.
         11    1    3    3    0    0 -0.46987973750E+01 -0.17482140292E+01  0.39174454443E+01  0.63624938611E+01  0.51100000000E-03 0. -1.
        -11    1    3    3    0    0 -0.13307480862E+02 -0.19584002413E+02 -0.11506113223E+02  0.26325137021E+02  0.51100000000E-03 0.  1.
         12    1    3    3    0    0 -0.59195481503E+01 -0.11339642615E+02 -0.80231225540E+01  0.15099637097E+02  0.00000000000E+00 0. -1.
</event>
<event>
 7    1  0.7357971E-011  0.4778727E+02  0.7816164E-02  0.1312668E+00
        -11   -1    0    0    0    0  0.00000000000E+00  0.00000000000E+00  0.45593999997E+02  0.45594000000E+02  0.51100000000E-03 0. -1.
         11   -1    0    0    0    0 -0.00000000000E+00 -0.00000000000E+00 -0.45593999997E+02  0.45594000000E+02  0.51100000000E-03 0.  1.
    9900012    2    1    2    0    0 -0.13240034712E+02  0.18767315849E+02 -0.36825434437E+02  0.47787270918E+02  0.19999999425E+02 0.  0.
         12    1    1    2    0    0  0.13240034712E+02 -0.18767315849E+02  0.36825434437E+02  0.43400729082E+02  0.00000000000E+00 0. -1.
         11    1    3    3    0    0 -0.16538447702E+02  0.16299685526E+02 -0.35463077429E+02  0.42389029969E+02  0.51100000000E-03 0. -1.
        -11    1    3    3    0    0  0.30204075456E+01  0.31531697950E+01 -0.73404282458E+00  0.44276585942E+01  0.51100000000E-03 0.  1.
         12    1    3    3    0    0  0.27800544515E+00 -0.68553947243E+00 -0.62831418305E+00  0.97058235530E+00  0.00000000000E+00 0. -1.
</event>
<event>
 7    1  0.7357971E-011  0.4778727E+02  0.7816164E-02  0.1312668E+00
        -11   -1    0    0    0    0  0.00000000000E+00  0.00000000000E+00  0.45593999997E+02  0.45594000000E+02  0.51100000000E-03 0. -1.
         11   -1    0    0    0    0 -0.00000000000E+00 -0.00000000000E+00 -0.45593999997E+02  0.45594000000E+02  0.51100000000E-03 0.  1.
    9900012    2    1    2    0    0  0.73932797977E+01  0.18354330965E+02 -0.38627465110E+02  0.47787272907E+02  0.20000008494E+02 0.  0.
         12    1    1    2    0    0 -0.73932797977E+01 -0.18354330965E+02  0.38627465110E+02  0.43400727093E+02  0.00000000000E+00 0. -1.
         11    1    3    3    0    0  0.81809249860E+01 -0.12303810973E+01 -0.10749441701E+02  0.13564360228E+02  0.51100000000E-03 0. -1.
        -11    1    3    3    0    0 -0.15108101904E+01  0.17006563857E+02 -0.22823500591E+02  0.28502946184E+02  0.51100000000E-03 0.  1.
         12    1    3    3    0    0  0.72316500213E+00  0.25781482051E+01 -0.50545228183E+01  0.57199664954E+01  0.00000000000E+00 0. -1.
</event>
<event>
 7    1  0.7357971E-011  0.4778727E+02  0.7816164E-02  0.1312668E+00
        -11   -1    0    0    0    0  0.00000000000E+00  0.00000000000E+00  0.45593999997E+02  0.45594000000E+02  0.51100000000E-03 0. -1.
         11   -1    0    0    0    0 -0.00000000000E+00 -0.00000000000E+00 -0.45593999997E+02  0.45594000000E+02  0.51100000000E-03 0.  1.
    9900012    2    1    2    0    0 -0.89104557061E+01 -0.19814694153E+02  0.37571333707E+02  0.47787269110E+02  0.19999991180E+02 0.  0.
        -12    1    1    2    0    0  0.89104557061E+01  0.19814694153E+02 -0.37571333707E+02  0.43400730890E+02  0.00000000000E+00 0.  1.
         11    1    3    3    0    0 -0.35286691763E+01 -0.39592047669E+01  0.10643680832E+02  0.11891793408E+02  0.51100000000E-03 0. -1.
        -11    1    3    3    0    0 -0.85070507420E+01 -0.68150650076E+01  0.50401372194E+01  0.12009080183E+02  0.51100000000E-03 0.  1.
        -12    1    3    3    0    0  0.31252642122E+01 -0.90404243786E+01  0.21887515655E+02  0.23886395519E+02  0.00000000000E+00 0.  1.
</event>
<event>
 7    1  0.7357971E-011  0.4778727E+02  0.7816164E-02  0.1312668E+00
        -11   -1    0    0    0    0  0.00000000000E+00  0.00000000000E+00  0.45593999997E+02  0.45594000000E+02  0.51100000000E-03 0.  1.
         11   -1    0    0    0    0 -0.00000000000E+00 -0.00000000000E+00 -0.45593999997E+02  0.45594000000E+02  0.51100000000E-03 0. -1.
    9900012    2    1    2    0    0 -0.33879229016E+02 -0.27124745095E+02  0.26357711243E+00  0.47787269268E+02  0.19999991899E+02 0.  0.
        -12    1    1    2    0    0  0.33879229016E+02  0.27124745095E+02 -0.26357711243E+00  0.43400730732E+02  0.00000000000E+00 0.  1.
         11    1    3    3    0    0 -0.19788424717E+02 -0.14447701663E+02 -0.45874274155E+01  0.24927140363E+02  0.51100000000E-03 0. -1.
        -11    1    3    3    0    0 -0.47139621128E+01 -0.77733619315E+01  0.76866861608E+01  0.11905113982E+02  0.51100000000E-03 0.  1.
         12    1    3    3    0    0 -0.93768421858E+01 -0.49036815012E+01 -0.28356816328E+01  0.10955014923E+02  0.00000000000E+00 0. -1.
</event>
<event>
 7    1  0.7357971E-011  0.4778733E+02  0.7816164E-02  0.1312668E+00
        -11   -1    0    0    0    0  0.00000000000E+00  0.00000000000E+00  0.45593999997E+02  0.45594000000E+02  0.51100000000E-03 0. -1.
         11   -1    0    0    0    0 -0.00000000000E+00 -0.00000000000E+00 -0.45593999997E+02  0.45594000000E+02  0.51100000000E-03 0.  1.
    9900012    2    1    2    0    0 -0.72489819219E+01 -0.38051521396E+01  0.42621492035E+02  0.47787325985E+02  0.20000250493E+02 0.  0.
        -12    1    1    2    0    0  0.72489819219E+01  0.38051521396E+01 -0.42621492035E+02  0.43400674015E+02  0.00000000000E+00 0.  1.
         11    1    3    3    0    0 -0.34143982005E+01  0.35519395442E+01  0.48589379568E+01  0.69198025930E+01  0.51100000000E-03 0. -1.
        -11    1    3    3    0    0  0.79066391876E+00 -0.84112840899E+01  0.12023003843E+02  0.14694470768E+02  0.51100000000E-03 0.  1.
        -12    1    3    3    0    0 -0.46252476401E+01  0.10541924061E+01  0.25739550235E+02  0.26173052624E+02  0.00000000000E+00 0.  1.
</event>
<event>
 7    1  0.7357971E-011  0.4778727E+02  0.7816164E-02  0.1312668E+00
        -11   -1    0    0    0    0  0.00000000000E+00  0.00000000000E+00  0.45593999997E+02  0.45594000000E+02  0.51100000000E-03 0. -1.
         11   -1    0    0    0    0 -0.00000000000E+00 -0.00000000000E+00 -0.45593999997E+02  0.45594000000E+02  0.51100000000E-03 0.  1.
    9900012    2    1    2    0    0  0.18019683655E+02 -0.19711132883E+02  0.34210899944E+02  0.47787269205E+02  0.19999991614E+02 0.  0.
        -12    1    1    2    0    0 -0.18019683655E+02  0.19711132883E+02 -0.34210899944E+02  0.43400730795E+02  0.00000000000E+00 0.  1.
         11    1    3    3    0    0  0.73751598623E+01 -0.10887375950E+02  0.71306226953E+01  0.14959068098E+02  0.51100000000E-03 0. -1.
        -11    1    3    3    0    0  0.81526866970E+01 -0.68948582500E+01  0.76276214531E+01  0.13121965552E+02  0.51100000000E-03 0.  1.
         12    1    3    3    0    0  0.24918370958E+01 -0.19288986825E+01  0.19452655796E+02  0.19706235555E+02  0.00000000000E+00 0. -1.
</event>
<event>
 7    1  0.7357971E-011  0.4778727E+02  0.7816164E-02  0.1312668E+00
        -11   -1    0    0    0    0  0.00000000000E+00  0.00000000000E+00  0.45593999997E+02  0.45594000000E+02  0.51100000000E-03 0. -1.
         11   -1    0    0    0    0 -0.00000000000E+00 -0.00000000000E+00 -0.45593999997E+02  0.45594000000E+02  0.51100000000E-03 0.  1.
    9900012    2    1    2    0    0  0.73302172857E+01  0.22455977869E+02 -0.36409064418E+02  0.47787274208E+02  0.20000014424E+02 0.  0.
         12    1    1    2    0    0 -0.73302172857E+01 -0.22455977869E+02  0.36409064418E+02  0.43400725792E+02  0.00000000000E+00 0. -1.
         11    1    3    3    0    0  0.51512098524E+01  0.15156942222E+01 -0.86164657435E+01  0.10152624000E+02  0.51100000000E-03 0. -1.
        -11    1    3    3    0    0  0.50459192218E+01  0.20718430560E+02 -0.27419085394E+02  0.34735009857E+02  0.51100000000E-03 0.  1.
        -12    1    3    3    0    0 -0.28669117885E+01  0.22185308632E+00 -0.37351328061E+00  0.28996403511E+01  0.00000000000E+00 0.  1.
</event>
<event>
 7    1  0.7357971E-011  0.4778727E+02  0.7816164E-02  0.1312668E+00
        -11   -1    0    0    0    0  0.00000000000E+00  0.00000000000E+00  0.45593999997E+02  0.45594000000E+02  0.51100000000E-03 0. -1.
         11   -1    0    0    0    0 -0.00000000000E+00 -0.00000000000E+00 -0.45593999997E+02  0.45594000000E+02  0.51100000000E-03 0.  1.
    9900012    2    1    2    0    0 -0.18433983734E+02  0.80700116473E+01 -0.38453694624E+02  0.47787268733E+02  0.19999989460E+02 0.  0.
         12    1    1    2    0    0  0.18433983734E+02 -0.80700116473E+01  0.38453694624E+02  0.43400731267E+02  0.00000000000E+00 0. -1.
         11    1    3    3    0    0 -0.32248101520E+01 -0.10632171256E+01 -0.11193277701E+02  0.11696978119E+02  0.51100000000E-03 0. -1.
        -11    1    3    3    0    0 -0.94626491763E+01  0.12669623543E+02 -0.13611732223E+02  0.20864811155E+02  0.51100000000E-03 0.  1.
        -12    1    3    3    0    0 -0.57465244061E+01 -0.35363947697E+01 -0.13648684700E+02  0.15225479459E+02  0.00000000000E+00 0.  1.
</event>
<event>
 7    1  0.7357971E-011  0.4778727E+02  0.7816164E-02  0.1312668E+00
        -11   -1    0    0    0    0  0.00000000000E+00  0.00000000000E+00  0.45593999997E+02  0.45594000000E+02  0.51100000000E-03 0. -1.
         11   -1    0    0    0    0 -0.00000000000E+00 -0.00000000000E+00 -0.45593999997E+02  0.45594000000E+02  0.51100000000E-03 0.  1.
    9900012    2    1    2    0    0 -0.95680569021E+01 -0.31570866694E+01 -0.42215024768E+02  0.47787271604E+02  0.20000002552E+02 0.  0.
         12    1    1    2    0    0  0.95680569021E+01  0.31570866694E+01  0.42215024768E+02  0.43400728396E+02  0.00000000000E+00 0. -1.
         11    1    3    3    0    0 -0.81313208217E+00  0.41487078483E+01 -0.54581845037E+01  0.69039654497E+01  0.51100000000E-03 0. -1.
        -11    1    3    3    0    0 -0.12071538076E+02 -0.30111067721E+01 -0.24453980350E+02  0.27436944997E+02  0.51100000000E-03 0.  1.
        -12    1    3    3    0    0  0.33166132561E+01 -0.42946877456E+01 -0.12302859914E+02  0.13446361158E+02  0.00000000000E+00 0.  1.
</event>
<event>
 7    1  0.7357971E-011  0.4778727E+02  0.7816164E-02  0.1312668E+00
        -11   -1    0    0    0    0  0.00000000000E+00  0.00000000000E+00  0.45593999997E+02  0.45594000000E+02  0.51100000000E-03 0. -1.
         11   -1    0    0    0    0 -0.00000000000E+00 -0.00000000000E+00 -0.45593999997E+02  0.45594000000E+02  0.51100000000E-03 0.  1.
    9900012    2    1    2    0    0  0.22920161967E+02 -0.13306159078E+02 -0.34369105782E+02  0.47787272745E+02  0.20000007755E+02 0.  0.
         12    1    1    2    0    0 -0.22920161967E+02  0.13306159078E+02  0.34369105782E+02  0.43400727255E+02  0.00000000000E+00 0. -1.
         11    1    3    3    0    0 -0.84763214397E-01 -0.24578086041E+01  0.17874371771E+01  0.30402203638E+01  0.51100000000E-03 0. -1.
        -11    1    3    3    0    0  0.12125278494E+02 -0.41111247748E+01 -0.23426013971E+02  0.26696476477E+02  0.51100000000E-03 0.  1.
         12    1    3    3    0    0  0.10879646688E+02 -0.67372256990E+01 -0.12730528988E+02  0.18050575904E+02  0.00000000000E+00 0. -1.
</event>
<event>
 7    1  0.7357971E-011  0.4778727E+02  0.7816164E-02  0.1312668E+00
        -11   -1    0    0    0    0  0.00000000000E+00  0.00000000000E+00  0.45593999997E+02  0.45594000000E+02  0.51100000000E-03 0. -1.
         11   -1    0    0    0    0 -0.00000000000E+00 -0.00000000000E+00 -0.45593999997E+02  0.45594000000E+02  0.51100000000E-03 0.  1.
    9900012    2    1    2    0    0 -0.21934762771E+02  0.20663380544E+02 -0.31233220258E+02  0.47787272345E+02  0.20000005930E+02 0.  0.
         12    1    1    2    0    0  0.21934762771E+02 -0.20663380544E+02  0.31233220258E+02  0.43400727655E+02  0.00000000000E+00 0. -1.
         11    1    3    3    0    0 -0.18986817018E+01 -0.94833670525E+00 -0.82127963010E+01  0.84825914705E+01  0.51100000000E-03 0. -1.
        -11    1    3    3    0    0 -0.14104804493E+02  0.21703827086E+02 -0.19490421404E+02  0.32401823201E+02  0.51100000000E-03 0.  1.
        -12    1    3    3    0    0 -0.59312765756E+01 -0.92109837293E-01 -0.35300025530E+01  0.69028576737E+01  0.00000000000E+00 0.  1.
</event>
<event>
 7    1  0.7357971E-011  0.4778727E+02  0.7816164E-02  0.1312668E+00
        -11   -1    0    0    0    0  0.00000000000E+00  0.00000000000E+00  0.45593999997E+02  0.45594000000E+02  0.51100000000E-03 0.  1.
         11   -1    0    0    0    0 -0.00000000000E+00 -0.00000000000E+00 -0.45593999997E+02  0.45594000000E+02  0.51100000000E-03 0. -1.
    9900012    2    1    2    0    0  0.26381431355E+02 -0.31112571889E+02 -0.14820636440E+02  0.47787270578E+02  0.19999997873E+02 0.  0.
         12    1    1    2    0    0 -0.26381431355E+02  0.31112571889E+02  0.14820636440E+02  0.43400729422E+02  0.00000000000E+00 0. -1.
         11    1    3    3    0    0  0.10514671008E+02 -0.32834033376E+01 -0.54548926419E+01  0.12292066461E+02  0.51100000000E-03 0. -1.
        -11    1    3    3    0    0  0.16726484588E+02 -0.27048381581E+02 -0.65784280386E+01  0.32475620833E+02  0.51100000000E-03 0.  1.
         12    1    3    3    0    0 -0.85972424045E+00 -0.78078697043E+00 -0.27873157595E+01  0.30195832835E+01  0.00000000000E+00 0. -1.
</event>
<event>
 7    1  0.7357971E-011  0.4778727E+02  0.7816164E-02  0.1312668E+00
        -11   -1    0    0    0    0  0.00000000000E+00  0.00000000000E+00  0.45593999997E+02  0.45594000000E+02  0.51100000000E-03 0. -1.
         11   -1    0    0    0    0 -0.00000000000E+00 -0.00000000000E+00 -0.45593999997E+02  0.45594000000E+02  0.51100000000E-03 0.  1.
    9900012    2    1    2    0    0  0.18619467273E+02  0.25683401774E+02  0.29619272645E+02  0.47787274197E+02  0.20000014374E+02 0.  0.
        -12    1    1    2    0    0 -0.18619467273E+02 -0.25683401774E+02 -0.29619272645E+02  0.43400725803E+02  0.00000000000E+00 0.  1.
         11    1    3    3    0    0  0.56611646491E+01  0.13893105260E+02  0.17888468490E+02  0.23346615689E+02  0.51100000000E-03 0. -1.
        -11    1    3    3    0    0  0.12940678091E+02  0.38689744800E+01  0.69753102593E+01  0.15201482377E+02  0.51100000000E-03 0.  1.
        -12    1    3    3    0    0  0.17624533313E-01  0.79213220341E+01  0.47554938950E+01  0.92391761309E+01  0.00000000000E+00 0.  1.
</event>
<event>
 7    1  0.7357971E-011  0.4778727E+02  0.7816164E-02  0.1312668E+00
        -11   -1    0    0    0    0  0.00000000000E+00  0.00000000000E+00  0.45593999997E+02  0.45594000000E+02  0.51100000000E-03 0.  1.
         11   -1    0    0    0    0 -0.00000000000E+00 -0.00000000000E+00 -0.45593999997E+02  0.45594000000E+02  0.51100000000E-03 0. -1.
    9900012    2    1    2    0    0 -0.28043223320E+01 -0.22207724855E+02 -0.37183011098E+02  0.47787267502E+02  0.19999983850E+02 0.  0.
         12    1    1    2    0    0  0.28043223320E+01  0.22207724855E+02  0.37183011098E+02  0.43400732498E+02  0.00000000000E+00 0. -1.
         11    1    3    3    0    0 -0.24743274052E+01  0.25972390719E+01 -0.58997687676E+01  0.69047243737E+01  0.51100000000E-03 0. -1.
        -11    1    3    3    0    0 -0.20905711109E+01 -0.46904258151E+01 -0.24689512556E+01  0.56979208893E+01  0.51100000000E-03 0.  1.
         12    1    3    3    0    0  0.17605761841E+01 -0.20114538112E+02 -0.28814291075E+02  0.35184622239E+02  0.00000000000E+00 0. -1.
</event>
<event>
 7    1  0.7357971E-011  0.4778727E+02  0.7816164E-02  0.1312668E+00
        -11   -1    0    0    0    0  0.00000000000E+00  0.00000000000E+00  0.45593999997E+02  0.45594000000E+02  0.51100000000E-03 0.  1.
         11   -1    0    0    0    0 -0.00000000000E+00 -0.00000000000E+00 -0.45593999997E+02  0.45594000000E+02  0.51100000000E-03 0. -1.
    9900012    2    1    2    0    0 -0.37940128161E+02 -0.27707096947E+01 -0.20892421292E+02  0.47787269309E+02  0.19999992087E+02 0.  0.
         12    1    1    2    0    0  0.37940128161E+02  0.27707096947E+01  0.20892421292E+02  0.43400730691E+02  0.00000000000E+00 0. -1.
         11    1    3    3    0    0  0.26398784770E-01  0.13254374360E+01  0.13939347430E+01  0.19236776293E+01  0.51100000000E-03 0. -1.
        -11    1    3    3    0    0 -0.38629470195E+02 -0.29336433596E+01 -0.21679484125E+02  0.44394169247E+02  0.51100000000E-03 0.  1.
        -12    1    3    3    0    0  0.66294324970E+00 -0.11625037711E+01 -0.60687190997E+00  0.14694224325E+01  0.00000000000E+00 0.  1.
</event>
<event>
 7    1  0.7357971E-011  0.4778728E+02  0.7816164E-02  0.1312668E+00
        -11   -1    0    0    0    0  0.00000000000E+00  0.00000000000E+00  0.45593999997E+02  0.45594000000E+02  0.51100000000E-03 0. -1.
         11   -1    0    0    0    0 -0.00000000000E+00 -0.00000000000E+00 -0.45593999997E+02  0.45594000000E+02  0.51100000000E-03 0.  1.
    9900012    2    1    2    0    0 -0.35407649240E+01 -0.19117928486E+02  0.38801940479E+02  0.47787276610E+02  0.20000025374E+02 0.  0.
        -12    1    1    2    0    0  0.35407649240E+01  0.19117928486E+02 -0.38801940479E+02  0.43400723390E+02  0.00000000000E+00 0.  1.
         11    1    3    3    0    0 -0.43060211274E+01 -0.78048183464E+01  0.25359290253E+02  0.26880301520E+02  0.51100000000E-03 0. -1.
        -11    1    3    3    0    0  0.83853086615E+00 -0.52808448548E+01 -0.83065637226E+00  0.54111409762E+01  0.51100000000E-03 0.  1.
        -12    1    3    3    0    0 -0.73274662785E-01 -0.60322652848E+01  0.14273306598E+02  0.15495834114E+02  0.00000000000E+00 0.  1.
</event>
<event>
 7    1  0.7357971E-011  0.4778726E+02  0.7816164E-02  0.1312668E+00
        -11   -1    0    0    0    0  0.00000000000E+00  0.00000000000E+00  0.45593999997E+02  0.45594000000E+02  0.51100000000E-03 0. -1.
         11   -1    0    0    0    0 -0.00000000000E+00 -0.00000000000E+00 -0.45593999997E+02  0.45594000000E+02  0.51100000000E-03 0.  1.
    9900012    2    1    2    0    0  0.32130031082E+02  0.18126728492E+02  0.22862780199E+02  0.47787263813E+02  0.19999967028E+02 0.  0.
        -12    1    1    2    0    0 -0.32130031082E+02 -0.18126728492E+02 -0.22862780199E+02  0.43400736187E+02  0.00000000000E+00 0.  1.
         11    1    3    3    0    0  0.89439017669E+01 -0.12609970578E+01  0.12770727814E+02  0.15642090064E+02  0.51100000000E-03 0. -1.
        -11    1    3    3    0    0  0.21489384324E+02  0.18843013337E+02  0.10233596829E+02  0.30357524513E+02  0.51100000000E-03 0.  1.
        -12    1    3    3    0    0  0.16967449915E+01  0.54471221273E+00 -0.14154444455E+00  0.17876492360E+01  0.00000000000E+00 0.  1.
</event>
<event>
 7    1  0.7357971E-011  0.4778727E+02  0.7816164E-02  0.1312668E+00
        -11   -1    0    0    0    0  0.00000000000E+00  0.00000000000E+00  0.45593999997E+02  0.45594000000E+02  0.51100000000E-03 0. -1.
         11   -1    0    0    0    0 -0.00000000000E+00 -0.00000000000E+00 -0.45593999997E+02  0.45594000000E+02  0.51100000000E-03 0.  1.
    9900012    2    1    2    0    0  0.16313244038E+02  0.28064111696E+02 -0.28808113846E+02  0.47787265908E+02  0.19999976580E+02 0.  0.
         12    1    1    2    0    0 -0.16313244038E+02 -0.28064111696E+02  0.28808113846E+02  0.43400734092E+02  0.00000000000E+00 0. -1.
         11    1    3    3    0    0  0.86953080367E+01  0.32857514451E+01 -0.14027629144E+02  0.16827920967E+02  0.51100000000E-03 0. -1.
        -11    1    3    3    0    0  0.29669235679E+01  0.29964435605E+01 -0.52480752436E+01  0.67322807051E+01  0.51100000000E-03 0.  1.
         12    1    3    3    0    0  0.46510124339E+01  0.21781916691E+02 -0.95324094584E+01  0.24227064235E+02  0.00000000000E+00 0. -1.
</event>
<event>
 7    1  0.7357971E-011  0.4778728E+02  0.7816164E-02  0.1312668E+00
        -11   -1    0    0    0    0  0.00000000000E+00  0.00000000000E+00  0.45593999997E+02  0.45594000000E+02  0.51100000000E-03 0. -1.
         11   -1    0    0    0    0 -0.00000000000E+00 -0.00000000000E+00 -0.45593999997E+02  0.45594000000E+02  0.51100000000E-03 0.  1.
    9900012    2    1    2    0    0 -0.11277363135E+01 -0.34023937160E+02 -0.26920663773E+02  0.47787283104E+02  0.20000054986E+02 0.  0.
         12    1    1    2    0    0  0.11277363135E+01  0.34023937160E+02  0.26920663773E+02  0.43400716896E+02  0.00000000000E+00 0. -1.
         11    1    3    3    0    0  0.80845787364E+01 -0.78130985792E+01 -0.89521958194E+01  0.14371733820E+02  0.51100000000E-03 0. -1.
        -11    1    3    3    0    0 -0.75475862645E+01 -0.15417613800E+02 -0.12245283607E+02  0.21085915787E+02  0.51100000000E-03 0.  1.
         12    1    3    3    0    0 -0.16647287853E+01 -0.10793224781E+02 -0.57231843467E+01  0.12329633496E+02  0.00000000000E+00 0. -1.
</event>
<event>
 7    1  0.7357971E-011  0.4778728E+02  0.7816164E-02  0.1312668E+00
        -11   -1    0    0    0    0  0.00000000000E+00  0.00000000000E+00  0.45593999997E+02  0.45594000000E+02  0.51100000000E-03 0. -1.
         11   -1    0    0    0    0 -0.00000000000E+00 -0.00000000000E+00 -0.45593999997E+02  0.45594000000E+02  0.51100000000E-03 0.  1.
    9900012    2    1    2    0    0  0.22886625778E+02  0.15482981941E+02 -0.33467927198E+02  0.47787279727E+02  0.20000039587E+02 0.  0.
         12    1    1    2    0    0 -0.22886625778E+02 -0.15482981941E+02  0.33467927198E+02  0.43400720273E+02  0.00000000000E+00 0. -1.
         11    1    3    3    0    0  0.13864642787E+02  0.14645302705E+02 -0.17323987393E+02  0.26586345187E+02  0.51100000000E-03 0. -1.
        -11    1    3    3    0    0 -0.15672057832E+01 -0.20356033175E+01 -0.46387974340E+01  0.53026650590E+01  0.51100000000E-03 0.  1.
        -12    1    3    3    0    0  0.10589188773E+02  0.28732825539E+01 -0.11505142371E+02  0.15898269481E+02  0.00000000000E+00 0.  1.
</event>
<event>
 7    1  0.7357971E-011  0.4778727E+02  0.7816164E-02  0.1312668E+00
        -11   -1    0    0    0    0  0.00000000000E+00  0.00000000000E+00  0.45593999997E+02  0.45594000000E+02  0.51100000000E-03 0. -1.
         11   -1    0    0    0    0 -0.00000000000E+00 -0.00000000000E+00 -0.45593999997E+02  0.45594000000E+02  0.51100000000E-03 0.  1.
    9900012    2    1    2    0    0  0.17662730133E+02  0.93764988417E+01 -0.38519249892E+02  0.47787269839E+02  0.19999994502E+02 0.  0.
         12    1    1    2    0    0 -0.17662730133E+02 -0.93764988417E+01  0.38519249892E+02  0.43400730161E+02  0.00000000000E+00 0. -1.
         11    1    3    3    0    0 -0.33752653254E+01  0.44536944635E+01 -0.61249301682E+01  0.82911145341E+01  0.51100000000E-03 0. -1.
        -11    1    3    3    0    0  0.13275290877E+02  0.61157034542E+01 -0.22999908332E+02  0.27251256120E+02  0.51100000000E-03 0.  1.
        -12    1    3    3    0    0  0.77627045811E+01 -0.11928990759E+01 -0.93944113927E+01  0.12244899184E+02  0.00000000000E+00 0.  1.
</event>
<event>
 7    1  0.7357971E-011  0.4778730E+02  0.7816164E-02  0.1312668E+00
        -11   -1    0    0    0    0  0.00000000000E+00  0.00000000000E+00  0.45593999997E+02  0.45594000000E+02  0.51100000000E-03 0. -1.
         11   -1    0    0    0    0 -0.00000000000E+00 -0.00000000000E+00 -0.45593999997E+02  0.45594000000E+02  0.51100000000E-03 0.  1.
    9900012    2    1    2    0    0 -0.12659022100E+02  0.34992535614E+01 -0.41365743945E+02  0.47787304290E+02  0.20000151579E+02 0.  0.
         12    1    1    2    0    0  0.12659022100E+02 -0.34992535614E+01  0.41365743945E+02  0.43400695710E+02  0.00000000000E+00 0. -1.
         11    1    3    3    0    0 -0.39767887521E+01  0.10022668929E+02 -0.27448888518E+02  0.29490849807E+02  0.51100000000E-03 0. -1.
        -11    1    3    3    0    0 -0.80664886902E+01 -0.55649021670E+01 -0.14070516259E+02  0.17146889047E+02  0.51100000000E-03 0.  1.
         12    1    3    3    0    0 -0.61574465771E+00 -0.95851320096E+00  0.15366083211E+00  0.11495654358E+01  0.00000000000E+00 0. -1.
</event>
<event>
 7    1  0.7357971E-011  0.4778727E+02  0.7816164E-02  0.1312668E+00
        -11   -1    0    0    0    0  0.00000000000E+00  0.00000000000E+00  0.45593999997E+02  0.45594000000E+02  0.51100000000E-03 0. -1.
         11   -1    0    0    0    0 -0.00000000000E+00 -0.00000000000E+00 -0.45593999997E+02  0.45594000000E+02  0.51100000000E-03 0.  1.
    9900012    2    1    2    0    0 -0.38553095936E+02 -0.18000589138E+02  0.85592632058E+01  0.47787269566E+02  0.19999993260E+02 0.  0.
        -12    1    1    2    0    0  0.38553095936E+02  0.18000589138E+02 -0.85592632058E+01  0.43400730434E+02  0.00000000000E+00 0.  1.
         11    1    3    3    0    0 -0.59217497820E+01  0.47614870983E+00  0.27832802025E+01  0.65605249044E+01  0.51100000000E-03 0. -1.
        -11    1    3    3    0    0 -0.96860454813E+01  0.13937046875E+01 -0.17818090998E+01  0.99466946144E+01  0.51100000000E-03 0.  1.
        -12    1    3    3    0    0 -0.22945300673E+02 -0.19870442535E+02  0.75577921031E+01  0.31280050047E+02  0.00000000000E+00 0.  1.
</event>
<event>
 7    1  0.7734098E-011  0.4778728E+02  0.7816164E-02  0.1312668E+00
        -11   -1    0    0    0    0  0.00000000000E+00  0.00000000000E+00  0.45593999997E+02  0.45594000000E+02  0.51100000000E-03 0. -1.
         11   -1    0    0    0    0 -0.00000000000E+00 -0.00000000000E+00 -0.45593999997E+02  0.45594000000E+02  0.51100000000E-03 0.  1.
    9900012    2    1    2    0    0 -0.23369973490E+02 -0.19083126232E+02 -0.31197776712E+02  0.47787278353E+02  0.20000033323E+02 0.  0.
         12    1    1    2    0    0  0.23369973490E+02  0.19083126232E+02  0.31197776712E+02  0.43400721647E+02  0.00000000000E+00 0. -1.
         11    1    3    3    0    0  0.19531641510E+00 -0.54159158646E+01 -0.92043438229E+01  0.10681303227E+02  0.51100000000E-03 0. -1.
        -11    1    3    3    0    0 -0.22250757467E+02 -0.78674808158E+01 -0.19664108420E+02  0.30719222361E+02  0.51100000000E-03 0.  1.
        -12    1    3    3    0    0 -0.13145324380E+01 -0.57997295512E+01 -0.23293244692E+01  0.63867527649E+01  0.00000000000E+00 0.  1.
</event>
<event>
 7    1  0.7357971E-011  0.4778727E+02  0.7816164E-02  0.1312668E+00
        -11   -1    0    0    0    0  0.00000000000E+00  0.00000000000E+00  0.45593999997E+02  0.45594000000E+02  0.51100000000E-03 0. -1.
         11   -1    0    0    0    0 -0.00000000000E+00 -0.00000000000E+00 -0.45593999997E+02  0.45594000000E+02  0.51100000000E-03 0.  1.
    9900012    2    1    2    0    0 -0.25989574997E+02 -0.75558771754E+01  0.33927480721E+02  0.47787271475E+02  0.20000001965E+02 0.  0.
        -12    1    1    2    0    0  0.25989574997E+02  0.75558771754E+01 -0.33927480721E+02  0.43400728525E+02  0.00000000000E+00 0.  1.
         11    1    3    3    0    0 -0.86083326545E+01 -0.73195613150E+00  0.23737497744E+02  0.25260798686E+02  0.51100000000E-03 0. -1.
        -11    1    3    3    0    0 -0.10756025745E+02 -0.51421364530E+00  0.40338741788E+01  0.11499071556E+02  0.51100000000E-03 0.  1.
         12    1    3    3    0    0 -0.66252165967E+01 -0.63097073986E+01  0.61561087986E+01  0.11027401233E+02  0.00000000000E+00 0. -1.
</event>
<event>
 7    1  0.7357971E-011  0.4778727E+02  0.7816164E-02  0.1312668E+00
        -11   -1    0    0    0    0  0.00000000000E+00  0.00000000000E+00  0.45593999997E+02  0.45594000000E+02  0.51100000000E-03 0. -1.
         11   -1    0    0    0    0 -0.00000000000E+00 -0.00000000000E+00 -0.45593999997E+02  0.45594000000E+02  0.51100000000E-03 0.  1.
    9900012    2    1    2    0    0 -0.48280502861E+01  0.41821144233E+02 -0.10550146659E+02  0.47787265340E+02  0.19999973991E+02 0.  0.
         12    1    1    2    0    0  0.48280502861E+01 -0.41821144233E+02  0.10550146659E+02  0.43400734660E+02  0.00000000000E+00 0. -1.
         11    1    3    3    0    0  0.10497556308E+01  0.24814856198E+02 -0.41384188162E+00  0.24840497990E+02  0.51100000000E-03 0. -1.
        -11    1    3    3    0    0 -0.56306194330E+01  0.14632833506E+02 -0.12141160593E+02  0.19830064862E+02  0.51100000000E-03 0.  1.
         12    1    3    3    0    0 -0.24718648394E+00  0.23734545290E+01  0.20048558161E+01  0.31167024886E+01  0.00000000000E+00 0. -1.
</event>
<event>
 7    1  0.7357971E-011  0.4778727E+02  0.7816164E-02  0.1312668E+00
        -11   -1    0    0    0    0  0.00000000000E+00  0.00000000000E+00  0.45593999997E+02  0.45594000000E+02  0.51100000000E-03 0. -1.
         11   -1    0    0    0    0 -0.00000000000E+00 -0.00000000000E+00 -0.45593999997E+02  0.45594000000E+02  0.51100000000E-03 0.  1.
    9900012    2    1    2    0    0  0.97629234264E+01 -0.61418274224E+01  0.41840011104E+02  0.47787271353E+02  0.20000001405E+02 0.  0.
        -12    1    1    2    0    0 -0.97629234264E+01  0.61418274224E+01 -0.41840011104E+02  0.43400728647E+02  0.00000000000E+00 0.  1.
         11    1    3    3    0    0 -0.34220401289E+00 -0.90692390509E+01  0.25550160255E+02  0.27114182448E+02  0.51100000000E-03 0. -1.
        -11    1    3    3    0    0  0.39843673290E+01  0.48303370867E+01  0.70710648252E+01  0.94449614826E+01  0.51100000000E-03 0.  1.
         12    1    3    3    0    0  0.61207601103E+01 -0.19029254583E+01  0.92187860245E+01  0.11228127422E+02  0.00000000000E+00 0. -1.
</event>
<event>
 7    1  0.7357971E-011  0.4778727E+02  0.7816164E-02  0.1312668E+00
        -11   -1    0    0    0    0  0.00000000000E+00  0.00000000000E+00  0.45593999997E+02  0.45594000000E+02  0.51100000000E-03 0. -1.
         11   -1    0    0    0    0 -0.00000000000E+00 -0.00000000000E+00 -0.45593999997E+02  0.45594000000E+02  0.51100000000E-03 0.  1.
    9900012    2    1    2    0    0 -0.32340962329E+02 -0.23032942386E+02  0.17526242613E+02  0.47787268906E+02  0.19999990252E+02 0.  0.
        -12    1    1    2    0    0  0.32340962329E+02  0.23032942386E+02 -0.17526242613E+02  0.43400731094E+02  0.00000000000E+00 0.  1.
         11    1    3    3    0    0 -0.18533122248E+02 -0.94175405342E+01  0.16147139271E+02  0.26322932908E+02  0.51100000000E-03 0. -1.
        -11    1    3    3    0    0  0.58680074542E+00 -0.34739165454E+00  0.17562984476E+01  0.18840383687E+01  0.51100000000E-03 0.  1.
         12    1    3    3    0    0 -0.14394640827E+02 -0.13268010197E+02 -0.37719510619E+00  0.19580297630E+02  0.00000000000E+00 0. -1.
</event>
<event>
 7    1  0.7357971E-011  0.4778727E+02  0.7816164E-02  0.1312668E+00
        -11   -1    0    0    0    0  0.00000000000E+00  0.00000000000E+00  0.45593999997E+02  0.45594000000E+02  0.51100000000E-03 0. -1.
         11   -1    0    0    0    0 -0.00000000000E+00 -0.00000000000E+00 -0.45593999997E+02  0.45594000000E+02  0.51100000000E-03 0.  1.
    9900012    2    1    2    0    0 -0.18106818264E+02  0.74320876871E+01  0.38736681219E+02  0.47787271125E+02  0.20000000368E+02 0.  0.
        -12    1    1    2    0    0  0.18106818264E+02 -0.74320876871E+01 -0.38736681219E+02  0.43400728875E+02  0.00000000000E+00 0.  1.
         11    1    3    3    0    0 -0.82395858470E+01  0.43010287929E+00  0.21254749365E+02  0.22800002944E+02  0.51100000000E-03 0. -1.
        -11    1    3    3    0    0  0.11263827369E+01  0.28210488467E+01 -0.89673408062E+00  0.31672049093E+01  0.51100000000E-03 0.  1.
        -12    1    3    3    0    0 -0.10993615154E+02  0.41809359612E+01  0.18378665935E+02  0.21820063272E+02  0.00000000000E+00 0.  1.
</event>
<event>
 7    1  0.7357971E-011  0.4778727E+02  0.7816164E-02  0.1312668E+00
        -11   -1    0    0    0    0  0.00000000000E+00  0.00000000000E+00  0.45593999997E+02  0.45594000000E+02  0.51100000000E-03 0. -1.
         11   -1    0    0    0    0 -0.00000000000E+00 -0.00000000000E+00 -0.45593999997E+02  0.45594000000E+02  0.51100000000E-03 0.  1.
    9900012    2    1    2    0    0 -0.11521330754E+02  0.32734048856E+02  0.26064626077E+02  0.47787265567E+02  0.19999975026E+02 0.  0.
        -12    1    1    2    0    0  0.11521330754E+02 -0.32734048856E+02 -0.26064626077E+02  0.43400734433E+02  0.00000000000E+00 0.  1.
         11    1    3    3    0    0 -0.78080231314E+01  0.79640196899E+01  0.16974809585E+02  0.20310957524E+02  0.51100000000E-03 0. -1.
        -11    1    3    3    0    0  0.16734438951E+01  0.87394777132E+01  0.18937217603E+01  0.90975308483E+01  0.51100000000E-03 0.  1.
         12    1    3    3    0    0 -0.53867515172E+01  0.16030551452E+02  0.71960947310E+01  0.18378777194E+02  0.00000000000E+00 0. -1.
</event>
<event>
 7    1  0.7357971E-011  0.4778728E+02  0.7816164E-02  0.1312668E+00
        -11   -1    0    0    0    0  0.00000000000E+00  0.00000000000E+00  0.45593999997E+02  0.45594000000E+02  0.51100000000E-03 0. -1.
         11   -1    0    0    0    0 -0.00000000000E+00 -0.00000000000E+00 -0.45593999997E+02  0.45594000000E+02  0.51100000000E-03 0.  1.
    9900012    2    1    2    0    0 -0.16335795398E+02 -0.32270888060E+02 -0.23986538454E+02  0.47787280484E+02  0.20000043040E+02 0.  0.
         12    1    1    2    0    0  0.16335795398E+02  0.32270888060E+02  0.23986538454E+02  0.43400719516E+02  0.00000000000E+00 0. -1.
         11    1    3    3    0    0 -0.16458792572E+02 -0.25466116512E+02 -0.11971863693E+02  0.32599700362E+02  0.51100000000E-03 0.  1.
        -11    1    3    3    0    0 -0.10105013531E+00  0.37172786300E+00 -0.54354148045E+01  0.54490482740E+01  0.51100000000E-03 0. -1.
         12    1    3    3    0    0  0.22404730967E+00 -0.71764994115E+01 -0.65792599559E+01  0.97385318487E+01  0.00000000000E+00 0. -1.
</event>
<event>
 7    1  0.7357971E-011  0.4778728E+02  0.7816164E-02  0.1312668E+00
        -11   -1    0    0    0    0  0.00000000000E+00  0.00000000000E+00  0.45593999997E+02  0.45594000000E+02  0.51100000000E-03 0. -1.
         11   -1    0    0    0    0 -0.00000000000E+00 -0.00000000000E+00 -0.45593999997E+02  0.45594000000E+02  0.51100000000E-03 0.  1.
    9900012    2    1    2    0    0  0.20475665523E+02  0.15306886187E+02  0.35072337779E+02  0.47787279722E+02  0.20000039565E+02 0.  0.
        -12    1    1    2    0    0 -0.20475665523E+02 -0.15306886187E+02 -0.35072337779E+02  0.43400720278E+02  0.00000000000E+00 0.  1.
         11    1    3    3    0    0  0.89565689723E+01  0.43916100801E+01  0.21352952872E+02  0.23568092062E+02  0.51100000000E-03 0. -1.
        -11    1    3    3    0    0  0.27219330524E+01  0.57520514930E+01 -0.86451193124E+00  0.64220243740E+01  0.51100000000E-03 0.  1.
        -12    1    3    3    0    0  0.87971634981E+01  0.51632246137E+01  0.14583896839E+02  0.17797163286E+02  0.00000000000E+00 0.  1.
</event>
<event>
 7    1  0.1126585E-010  0.4778726E+02  0.7816164E-02  0.1312668E+00
        -11   -1    0    0    0    0  0.00000000000E+00  0.00000000000E+00  0.45593999997E+02  0.45594000000E+02  0.51100000000E-03 0. -1.
         11   -1    0    0    0    0 -0.00000000000E+00 -0.00000000000E+00 -0.45593999997E+02  0.45594000000E+02  0.51100000000E-03 0.  1.
    9900012    2    1    2    0    0 -0.17867621794E+02 -0.19956913895E+02 -0.34148116752E+02  0.47787260392E+02  0.19999951432E+02 0.  0.
         12    1    1    2    0    0  0.17867621794E+02  0.19956913895E+02  0.34148116752E+02  0.43400739608E+02  0.00000000000E+00 0. -1.
         11    1    3    3    0    0 -0.13405212866E+01  0.23339177148E+01 -0.89394707193E+00  0.28360731387E+01  0.51100000000E-03 0. -1.
        -11    1    3    3    0    0 -0.14092562516E+02 -0.15988029109E+02 -0.16715298967E+02  0.27085394826E+02  0.51100000000E-03 0.  1.
        -12    1    3    3    0    0 -0.24345379912E+01 -0.63028025011E+01 -0.16538870713E+02  0.17865792428E+02  0.00000000000E+00 0.  1.
</event>
<event>
 7    1  0.7357971E-011  0.4778727E+02  0.7816164E-02  0.1312668E+00
        -11   -1    0    0    0    0  0.00000000000E+00  0.00000000000E+00  0.45593999997E+02  0.45594000000E+02  0.51100000000E-03 0. -1.
         11   -1    0    0    0    0 -0.00000000000E+00 -0.00000000000E+00 -0.45593999997E+02  0.45594000000E+02  0.51100000000E-03 0.  1.
    9900012    2    1    2    0    0 -0.25181868406E+02 -0.33926993653E+02  0.99224866058E+01  0.47787272642E+02  0.20000007284E+02 0.  0.
        -12    1    1    2    0    0  0.25181868406E+02  0.33926993653E+02 -0.99224866058E+01  0.43400727358E+02  0.00000000000E+00 0.  1.
         11    1    3    3    0    0 -0.18614048348E+02 -0.17173398412E+02  0.42549020400E+01  0.25680977406E+02  0.51100000000E-03 0. -1.
        -11    1    3    3    0    0  0.27611386246E+01 -0.26788292810E+01  0.32741983629E+01  0.50517707789E+01  0.51100000000E-03 0.  1.
        -12    1    3    3    0    0 -0.93289586829E+01 -0.14074765960E+02  0.23933862028E+01  0.17054524457E+02  0.00000000000E+00 0.  1.
</event>
<event>
 7    1  0.7357971E-011  0.4778723E+02  0.7816164E-02  0.1312668E+00
        -11   -1    0    0    0    0  0.00000000000E+00  0.00000000000E+00  0.45593999997E+02  0.45594000000E+02  0.51100000000E-03 0. -1.
         11   -1    0    0    0    0 -0.00000000000E+00 -0.00000000000E+00 -0.45593999997E+02  0.45594000000E+02  0.51100000000E-03 0.  1.
    9900012    2    1    2    0    0  0.11032245143E+02 -0.31224933511E+02 -0.28052086424E+02  0.47787234357E+02  0.19999832727E+02 0.  0.
         12    1    1    2    0    0 -0.11032245143E+02  0.31224933511E+02  0.28052086424E+02  0.43400765643E+02  0.00000000000E+00 0. -1.
         11    1    3    3    0    0  0.67229050274E+01 -0.26952011905E+02 -0.14648024477E+02  0.31403391840E+02  0.51100000000E-03 0. -1.
        -11    1    3    3    0    0  0.25493020225E+01 -0.60859455963E+01 -0.76694525575E+01  0.10117221822E+02  0.51100000000E-03 0.  1.
         12    1    3    3    0    0  0.17600380928E+01  0.18130239907E+01 -0.57346093899E+01  0.62666206949E+01  0.00000000000E+00 0. -1.
</event>
<event>
 7    1  0.7357971E-011  0.4778727E+02  0.7816164E-02  0.1312668E+00
        -11   -1    0    0    0    0  0.00000000000E+00  0.00000000000E+00  0.45593999997E+02  0.45594000000E+02  0.51100000000E-03 0. -1.
         11   -1    0    0    0    0 -0.00000000000E+00 -0.00000000000E+00 -0.45593999997E+02  0.45594000000E+02  0.51100000000E-03 0.  1.
    9900012    2    1    2    0    0  0.12249536272E+01 -0.36229704706E+02 -0.23864858704E+02  0.47787268492E+02  0.19999988364E+02 0.  0.
         12    1    1    2    0    0 -0.12249536272E+01  0.36229704706E+02  0.23864858704E+02  0.43400731508E+02  0.00000000000E+00 0. -1.
         11    1    3    3    0    0 -0.57931333250E+01 -0.12392776794E+02 -0.34239650545E+01  0.14101944807E+02  0.51100000000E-03 0. -1.
        -11    1    3    3    0    0  0.87670563219E+01 -0.15578776042E+02 -0.10861037548E+02  0.20917018822E+02  0.51100000000E-03 0.  1.
        -12    1    3    3    0    0 -0.17489693697E+01 -0.82581518699E+01 -0.95798561012E+01  0.12768304863E+02  0.00000000000E+00 0.  1.
</event>
<event>
 7    1  0.7357971E-011  0.4778729E+02  0.7816164E-02  0.1312668E+00
        -11   -1    0    0    0    0  0.00000000000E+00  0.00000000000E+00  0.45593999997E+02  0.45594000000E+02  0.51100000000E-03 0. -1.
         11   -1    0    0    0    0 -0.00000000000E+00 -0.00000000000E+00 -0.45593999997E+02  0.45594000000E+02  0.51100000000E-03 0.  1.
    9900012    2    1    2    0    0  0.18884675155E+02  0.47901738404E+01  0.38782018127E+02  0.47787289739E+02  0.20000085237E+02 0.  0.
        -12    1    1    2    0    0 -0.18884675155E+02 -0.47901738404E+01 -0.38782018127E+02  0.43400710261E+02  0.00000000000E+00 0.  1.
         11    1    3    3    0    0  0.10679290107E+02  0.63046909851E+01  0.35740407347E+02  0.37830848301E+02  0.51100000000E-03 0. -1.
        -11    1    3    3    0    0  0.48575974515E+01 -0.29824809066E+01  0.10581536058E+01  0.57975110758E+01  0.51100000000E-03 0.  1.
         12    1    3    3    0    0  0.33477875962E+01  0.14679637619E+01  0.19834571746E+01  0.41589303624E+01  0.00000000000E+00 0. -1.
</event>
<event>
 7    1  0.7357971E-011  0.4778727E+02  0.7816164E-02  0.1312668E+00
        -11   -1    0    0    0    0  0.00000000000E+00  0.00000000000E+00  0.45593999997E+02  0.45594000000E+02  0.51100000000E-03 0. -1.
         11   -1    0    0    0    0 -0.00000000000E+00 -0.00000000000E+00 -0.45593999997E+02  0.45594000000E+02  0.51100000000E-03 0.  1.
    9900012    2    1    2    0    0 -0.75923398576E+01  0.70641921164E+01 -0.42143527402E+02  0.47787270321E+02  0.19999996701E+02 0.  0.
         12    1    1    2    0    0  0.75923398576E+01 -0.70641921164E+01  0.42143527402E+02  0.43400729679E+02  0.00000000000E+00 0. -1.
         11    1    3    3    0    0 -0.23823611529E+01  0.60126140725E+01 -0.33500868268E+01  0.72835605754E+01  0.51100000000E-03 0. -1.
        -11    1    3    3    0    0 -0.80691367726E+01  0.21226242432E+01 -0.31729186705E+02  0.32807892208E+02  0.51100000000E-03 0.  1.
         12    1    3    3    0    0  0.28591580679E+01 -0.10710461993E+01 -0.70642538706E+01  0.76958175372E+01  0.00000000000E+00 0. -1.
</event>
<event>
 7    1  0.7357971E-011  0.4778727E+02  0.7816164E-02  0.1312668E+00
        -11   -1    0    0    0    0  0.00000000000E+00  0.00000000000E+00  0.45593999997E+02  0.45594000000E+02  0.51100000000E-03 0. -1.
         11   -1    0    0    0    0 -0.00000000000E+00 -0.00000000000E+00 -0.45593999997E+02  0.45594000000E+02  0.51100000000E-03 0.  1.
    9900012    2    1    2    0    0 -0.27877930304E+02  0.90296152818E+01  0.32014221716E+02  0.47787270257E+02  0.19999996409E+02 0.  0.
        -12    1    1    2    0    0  0.27877930304E+02 -0.90296152818E+01 -0.32014221716E+02  0.43400729743E+02  0.00000000000E+00 0.  1.
         11    1    3    3    0    0 -0.38687084109E+00  0.25270476138E+01  0.21560715043E+01  0.33442911480E+01  0.51100000000E-03 0. -1.
        -11    1    3    3    0    0 -0.15089986059E+02  0.56041479057E+01  0.53526226635E+01  0.16963629406E+02  0.51100000000E-03 0.  1.
        -12    1    3    3    0    0 -0.12401073404E+02  0.89841976230E+00  0.24505527548E+02  0.27479349702E+02  0.00000000000E+00 0.  1.
</event>
<event>
 7    1  0.7357971E-011  0.4778727E+02  0.7816164E-02  0.1312668E+00
        -11   -1    0    0    0    0  0.00000000000E+00  0.00000000000E+00  0.45593999997E+02  0.45594000000E+02  0.51100000000E-03 0. -1.
         11   -1    0    0    0    0 -0.00000000000E+00 -0.00000000000E+00 -0.45593999997E+02  0.45594000000E+02  0.51100000000E-03 0.  1.
    9900012    2    1    2    0    0 -0.65413687461E-01 -0.11759820327E+02 -0.41777091466E+02  0.47787273918E+02  0.20000013101E+02 0.  0.
         12    1    1    2    0    0  0.65413687461E-01  0.11759820327E+02  0.41777091466E+02  0.43400726082E+02  0.00000000000E+00 0. -1.
         11    1    3    3    0    0 -0.45097608907E+01 -0.31358487689E+01 -0.20269367399E+01  0.58549093589E+01  0.51100000000E-03 0. -1.
        -11    1    3    3    0    0 -0.12454691602E+01 -0.64313346846E+01 -0.27221540728E+02  0.27998670310E+02  0.51100000000E-03 0.  1.
         12    1    3    3    0    0  0.56898163635E+01 -0.21926368731E+01 -0.12528613998E+02  0.13933694249E+02  0.00000000000E+00 0. -1.
</event>
<event>
 7    1  0.7357971E-011  0.4778727E+02  0.7816164E-02  0.1312668E+00
        -11   -1    0    0    0    0  0.00000000000E+00  0.00000000000E+00  0.45593999997E+02  0.45594000000E+02  0.51100000000E-03 0. -1.
         11   -1    0    0    0    0 -0.00000000000E+00 -0.00000000000E+00 -0.45593999997E+02  0.45594000000E+02  0.51100000000E-03 0.  1.
    9900012    2    1    2    0    0 -0.98927714137E+01 -0.24067328051E+02  0.34734994802E+02  0.47787273397E+02  0.20000010727E+02 0.  0.
        -12    1    1    2    0    0  0.98927714137E+01  0.24067328051E+02 -0.34734994802E+02  0.43400726603E+02  0.00000000000E+00 0.  1.
         11    1    3    3    0    0 -0.21574321315E+01 -0.85376237049E+01  0.21353400134E+02  0.23097905305E+02  0.51100000000E-03 0. -1.
        -11    1    3    3    0    0 -0.76714077781E+01 -0.16340556720E+02  0.88850492870E+01  0.20119850703E+02  0.51100000000E-03 0.  1.
        -12    1    3    3    0    0 -0.63931504141E-01  0.81085237355E+00  0.44965453813E+01  0.45695173897E+01  0.00000000000E+00 0.  1.
</event>
<event>
 7    1  0.7357971E-011  0.4778727E+02  0.7816164E-02  0.1312668E+00
        -11   -1    0    0    0    0  0.00000000000E+00  0.00000000000E+00  0.45593999997E+02  0.45594000000E+02  0.51100000000E-03 0.  1.
         11   -1    0    0    0    0 -0.00000000000E+00 -0.00000000000E+00 -0.45593999997E+02  0.45594000000E+02  0.51100000000E-03 0. -1.
    9900012    2    1    2    0    0  0.14593521747E+02 -0.31154674702E+02  0.26458246610E+02  0.47787269056E+02  0.19999990936E+02 0.  0.
        -12    1    1    2    0    0 -0.14593521747E+02  0.31154674702E+02 -0.26458246610E+02  0.43400730944E+02  0.00000000000E+00 0.  1.
         11    1    3    3    0    0  0.81674990238E+01 -0.10725076739E+02  0.91444510491E+01  0.16289760484E+02  0.51100000000E-03 0. -1.
        -11    1    3    3    0    0  0.44680845712E+01 -0.93305051099E+01 -0.56751167900E+00  0.10360703408E+02  0.51100000000E-03 0.  1.
        -12    1    3    3    0    0  0.19579381519E+01 -0.11099092853E+02  0.17881307240E+02  0.21136805164E+02  0.00000000000E+00 0.  1.
</event>
<event>
 7    1  0.7357971E-011  0.4778727E+02  0.7816164E-02  0.1312668E+00
        -11   -1    0    0    0    0  0.00000000000E+00  0.00000000000E+00  0.45593999997E+02  0.45594000000E+02  0.51100000000E-03 0. -1.
         11   -1    0    0    0    0 -0.00000000000E+00 -0.00000000000E+00 -0.45593999997E+02  0.45594000000E+02  0.51100000000E-03 0.  1.
    9900012    2    1    2    0    0  0.72797310973E+01 -0.10775704939E+02  0.41406677243E+02  0.47787271641E+02  0.20000002718E+02 0.  0.
        -12    1    1    2    0    0 -0.72797310973E+01  0.10775704939E+02 -0.41406677243E+02  0.43400728359E+02  0.00000000000E+00 0.  1.
         11    1    3    3    0    0 -0.21806116832E+01 -0.10647106562E+02  0.18245011071E+02  0.21236675227E+02  0.51100000000E-03 0. -1.
        -11    1    3    3    0    0  0.12192396739E+01  0.36214803206E+01  0.54128446172E+01  0.66257491807E+01  0.51100000000E-03 0.  1.
         12    1    3    3    0    0  0.82411031067E+01 -0.37500786970E+01  0.17748821556E+02  0.19924847233E+02  0.00000000000E+00 0. -1.
</event>
<event>
 7    1  0.7357971E-011  0.4778727E+02  0.7816164E-02  0.1312668E+00
        -11   -1    0    0    0    0  0.00000000000E+00  0.00000000000E+00  0.45593999997E+02  0.45594000000E+02  0.51100000000E-03 0. -1.
         11   -1    0    0    0    0 -0.00000000000E+00 -0.00000000000E+00 -0.45593999997E+02  0.45594000000E+02  0.51100000000E-03 0.  1.
    9900012    2    1    2    0    0  0.61746950976E+01 -0.35922041955E+02 -0.23560624682E+02  0.47787274278E+02  0.20000014745E+02 0.  0.
         12    1    1    2    0    0 -0.61746950976E+01  0.35922041955E+02  0.23560624682E+02  0.43400725722E+02  0.00000000000E+00 0. -1.
         11    1    3    3    0    0 -0.66625008457E+01 -0.82827290818E+01 -0.42139868093E+01  0.11434605531E+02  0.51100000000E-03 0. -1.
        -11    1    3    3    0    0  0.62170841793E+01 -0.17398794743E+02 -0.10160039231E+02  0.21085459247E+02  0.51100000000E-03 0.  1.
         12    1    3    3    0    0  0.66201117641E+01 -0.10240518130E+02 -0.91865986410E+01  0.15267209500E+02  0.00000000000E+00 0. -1.
</event>
<event>
 7    1  0.7357971E-011  0.4778724E+02  0.7816164E-02  0.1312668E+00
        -11   -1    0    0    0    0  0.00000000000E+00  0.00000000000E+00  0.45593999997E+02  0.45594000000E+02  0.51100000000E-03 0. -1.
         11   -1    0    0    0    0 -0.00000000000E+00 -0.00000000000E+00 -0.45593999997E+02  0.45594000000E+02  0.51100000000E-03 0.  1.
    9900012    2    1    2    0    0  0.74466710803E+01 -0.28127264541E+02 -0.32202957220E+02  0.47787235324E+02  0.19999837136E+02 0.  0.
         12    1    1    2    0    0 -0.74466710803E+01  0.28127264541E+02  0.32202957220E+02  0.43400764676E+02  0.00000000000E+00 0. -1.
         11    1    3    3    0    0 -0.22430449598E+01 -0.77084827319E+01 -0.11492132442E+01  0.81100337891E+01  0.51100000000E-03 0. -1.
        -11    1    3    3    0    0  0.10700419515E+02 -0.11752152535E+02 -0.18512400058E+02  0.24399201281E+02  0.51100000000E-03 0.  1.
        -12    1    3    3    0    0 -0.10107034748E+01 -0.86666292746E+01 -0.12541343918E+02  0.15278000254E+02  0.00000000000E+00 0.  1.
</event>
<event>
 7    1  0.7357971E-011  0.4778727E+02  0.7816164E-02  0.1312668E+00
        -11   -1    0    0    0    0  0.00000000000E+00  0.00000000000E+00  0.45593999997E+02  0.45594000000E+02  0.51100000000E-03 0. -1.
         11   -1    0    0    0    0 -0.00000000000E+00 -0.00000000000E+00 -0.45593999997E+02  0.45594000000E+02  0.51100000000E-03 0.  1.
    9900012    2    1    2    0    0 -0.89442956277E+01  0.21901148912E+02 -0.36386296373E+02  0.47787270609E+02  0.19999998014E+02 0.  0.
         12    1    1    2    0    0  0.89442956277E+01 -0.21901148912E+02  0.36386296373E+02  0.43400729391E+02  0.00000000000E+00 0. -1.
         11    1    3    3    0    0  0.28165680282E+01  0.20820848574E+01 -0.62670873396E+01  0.71794510092E+01  0.51100000000E-03 0. -1.
        -11    1    3    3    0    0 -0.12359368899E+01  0.89546794155E+01 -0.21202009109E+02  0.23048622821E+02  0.51100000000E-03 0.  1.
        -12    1    3    3    0    0 -0.10524926766E+02  0.10864384639E+02 -0.89171999248E+01  0.17559196779E+02  0.00000000000E+00 0.  1.
</event>
<event>
 7    1  0.7357971E-011  0.4778728E+02  0.7816164E-02  0.1312668E+00
        -11   -1    0    0    0    0  0.00000000000E+00  0.00000000000E+00  0.45593999997E+02  0.45594000000E+02  0.51100000000E-03 0. -1.
         11   -1    0    0    0    0 -0.00000000000E+00 -0.00000000000E+00 -0.45593999997E+02  0.45594000000E+02  0.51100000000E-03 0.  1.
    9900012    2    1    2    0    0  0.37313096741E+02 -0.33537913789E+01  0.21911359236E+02  0.47787276866E+02  0.20000026544E+02 0.  0.
        -12    1    1    2    0    0 -0.37313096741E+02  0.33537913789E+01 -0.21911359236E+02  0.43400723134E+02  0.00000000000E+00 0.  1.
         11    1    3    3    0    0  0.26057109982E+02  0.43617836216E+00  0.56643394683E+01  0.26669232723E+02  0.51100000000E-03 0. -1.
        -11    1    3    3    0    0  0.32256364009E+01  0.16139971716E+01  0.28860761570E+01  0.46194320978E+01  0.51100000000E-03 0.  1.
         12    1    3    3    0    0  0.80303503577E+01 -0.54039669127E+01  0.13360943610E+02  0.16498612045E+02  0.00000000000E+00 0. -1.
</event>
<event>
 7    1  0.7357971E-011  0.4778727E+02  0.7816164E-02  0.1312668E+00
        -11   -1    0    0    0    0  0.00000000000E+00  0.00000000000E+00  0.45593999997E+02  0.45594000000E+02  0.51100000000E-03 0. -1.
         11   -1    0    0    0    0 -0.00000000000E+00 -0.00000000000E+00 -0.45593999997E+02  0.45594000000E+02  0.51100000000E-03 0.  1.
    9900012    2    1    2    0    0 -0.14319770512E+02  0.20101572603E+01  0.40920987581E+02  0.47787265164E+02  0.19999973189E+02 0.  0.
        -12    1    1    2    0    0  0.14319770512E+02 -0.20101572603E+01 -0.40920987581E+02  0.43400734836E+02  0.00000000000E+00 0.  1.
         11    1    3    3    0    0 -0.19036324439E+01  0.86230314071E+01  0.25127053674E+02  0.26633612480E+02  0.51100000000E-03 0. -1.
        -11    1    3    3    0    0 -0.97737448364E+01 -0.51323534933E+01  0.12599013869E+02  0.16751187756E+02  0.51100000000E-03 0.  1.
         12    1    3    3    0    0 -0.26423932319E+01 -0.14805206535E+01  0.31949200375E+01  0.44024649281E+01  0.00000000000E+00 0. -1.
</event>
<event>
 7    1  0.7357971E-011  0.4778727E+02  0.7816164E-02  0.1312668E+00
        -11   -1    0    0    0    0  0.00000000000E+00  0.00000000000E+00  0.45593999997E+02  0.45594000000E+02  0.51100000000E-03 0. -1.
         11   -1    0    0    0    0 -0.00000000000E+00 -0.00000000000E+00 -0.45593999997E+02  0.45594000000E+02  0.51100000000E-03 0.  1.
    9900012    2    1    2    0    0 -0.10234082953E+02  0.13714270455E+02 -0.39884910655E+02  0.47787265375E+02  0.19999974153E+02 0.  0.
         12    1    1    2    0    0  0.10234082953E+02 -0.13714270455E+02  0.39884910655E+02  0.43400734625E+02  0.00000000000E+00 0. -1.
         11    1    3    3    0    0  0.18921772242E+01 -0.35383025821E+01 -0.96467723478E+01  0.10447972856E+02  0.51100000000E-03 0. -1.
        -11    1    3    3    0    0 -0.84822508603E+01  0.14214235907E+02 -0.19360590007E+02  0.25472053858E+02  0.51100000000E-03 0.  1.
         12    1    3    3    0    0 -0.36440093172E+01  0.30383371294E+01 -0.10877548300E+02  0.11867238661E+02  0.00000000000E+00 0. -1.
</event>
<event>
 7    1  0.7357971E-011  0.4778727E+02  0.7816164E-02  0.1312668E+00
        -11   -1    0    0    0    0  0.00000000000E+00  0.00000000000E+00  0.45593999997E+02  0.45594000000E+02  0.51100000000E-03 0. -1.
         11   -1    0    0    0    0 -0.00000000000E+00 -0.00000000000E+00 -0.45593999997E+02  0.45594000000E+02  0.51100000000E-03 0.  1.
    9900012    2    1    2    0    0  0.27581874873E+02 -0.15002690471E+02 -0.29963030027E+02  0.47787266006E+02  0.19999977026E+02 0.  0.
         12    1    1    2    0    0 -0.27581874873E+02  0.15002690471E+02  0.29963030027E+02  0.43400733994E+02  0.00000000000E+00 0. -1.
         11    1    3    3    0    0  0.70760133754E+01 -0.58430639796E+01 -0.38960113027E+01  0.99694667004E+01  0.51100000000E-03 0. -1.
        -11    1    3    3    0    0  0.97644422135E+01  0.11503519690E+01 -0.18876753615E+02  0.21283784172E+02  0.51100000000E-03 0.  1.
        -12    1    3    3    0    0  0.10741419284E+02 -0.10309978460E+02 -0.71902651094E+01  0.16534015133E+02  0.00000000000E+00 0.  1.
</event>
<event>
 7    1  0.7357971E-011  0.4778727E+02  0.7816164E-02  0.1312668E+00
        -11   -1    0    0    0    0  0.00000000000E+00  0.00000000000E+00  0.45593999997E+02  0.45594000000E+02  0.51100000000E-03 0. -1.
         11   -1    0    0    0    0 -0.00000000000E+00 -0.00000000000E+00 -0.45593999997E+02  0.45594000000E+02  0.51100000000E-03 0.  1.
    9900012    2    1    2    0    0 -0.26933499911E+01 -0.38231231764E+02 -0.20365226414E+02  0.47787266558E+02  0.19999979547E+02 0.  0.
         12    1    1    2    0    0  0.26933499911E+01  0.38231231764E+02  0.20365226414E+02  0.43400733442E+02  0.00000000000E+00 0. -1.
         11    1    3    3    0    0 -0.83091603760E+01 -0.12323437124E+02 -0.68965089619E+01  0.16385087269E+02  0.51100000000E-03 0. -1.
        -11    1    3    3    0    0  0.35026038309E+01 -0.26016353809E+02 -0.12464334685E+02  0.29059912914E+02  0.51100000000E-03 0.  1.
         12    1    3    3    0    0  0.21132065540E+01  0.10855916906E+00 -0.10043827667E+01  0.23422663758E+01  0.00000000000E+00 0. -1.
</event>
<event>
 7    1  0.7357971E-011  0.4778726E+02  0.7816164E-02  0.1312668E+00
        -11   -1    0    0    0    0  0.00000000000E+00  0.00000000000E+00  0.45593999997E+02  0.45594000000E+02  0.51100000000E-03 0. -1.
         11   -1    0    0    0    0 -0.00000000000E+00 -0.00000000000E+00 -0.45593999997E+02  0.45594000000E+02  0.51100000000E-03 0.  1.
    9900012    2    1    2    0    0 -0.30183738163E+02 -0.17479560561E+02  0.25826952444E+02  0.47787256234E+02  0.19999932474E+02 0.  0.
        -12    1    1    2    0    0  0.30183738163E+02  0.17479560561E+02 -0.25826952444E+02  0.43400743766E+02  0.00000000000E+00 0.  1.
         11    1    3    3    0    0 -0.29650982663E+01  0.15365032216E+01  0.97233605002E+01  0.10280874941E+02  0.51100000000E-03 0. -1.
        -11    1    3    3    0    0 -0.26083160561E+02 -0.17385642874E+02  0.16583035068E+02  0.35462499846E+02  0.51100000000E-03 0.  1.
        -12    1    3    3    0    0 -0.11354793357E+01 -0.16304209085E+01 -0.47944312447E+00  0.20438814472E+01  0.00000000000E+00 0.  1.
</event>
<event>
 7    1  0.7357971E-011  0.4778727E+02  0.7816164E-02  0.1312668E+00
        -11   -1    0    0    0    0  0.00000000000E+00  0.00000000000E+00  0.45593999997E+02  0.45594000000E+02  0.51100000000E-03 0. -1.
         11   -1    0    0    0    0 -0.00000000000E+00 -0.00000000000E+00 -0.45593999997E+02  0.45594000000E+02  0.51100000000E-03 0.  1.
    9900012    2    1    2    0    0 -0.24431975310E+02 -0.25812449939E+02 -0.24908216264E+02  0.47787271586E+02  0.20000002468E+02 0.  0.
         12    1    1    2    0    0  0.24431975310E+02  0.25812449939E+02  0.24908216264E+02  0.43400728414E+02  0.00000000000E+00 0. -1.
         11    1    3    3    0    0 -0.25354551294E+02 -0.27833090025E+02 -0.23348962442E+02  0.44302462901E+02  0.51100000000E-03 0. -1.
        -11    1    3    3    0    0  0.12874349825E+00  0.10099425062E+01 -0.18996827475E+01  0.21553082277E+01  0.51100000000E-03 0.  1.
         12    1    3    3    0    0  0.79383248562E+00  0.10106975799E+01  0.34042892528E+00  0.13295004575E+01  0.00000000000E+00 0. -1.
</event>
<event>
 7    1  0.7357971E-011  0.4778727E+02  0.7816164E-02  0.1312668E+00
        -11   -1    0    0    0    0  0.00000000000E+00  0.00000000000E+00  0.45593999997E+02  0.45594000000E+02  0.51100000000E-03 0. -1.
         11   -1    0    0    0    0 -0.00000000000E+00 -0.00000000000E+00 -0.45593999997E+02  0.45594000000E+02  0.51100000000E-03 0.  1.
    9900012    2    1    2    0    0  0.26011682861E+02 -0.30718818026E+02  0.16228673110E+02  0.47787271238E+02  0.20000000884E+02 0.  0.
        -12    1    1    2    0    0 -0.26011682861E+02  0.30718818026E+02 -0.16228673110E+02  0.43400728762E+02  0.00000000000E+00 0.  1.
         11    1    3    3    0    0  0.13457738370E+02 -0.24033885828E+02  0.98211549749E+01  0.29243691205E+02  0.51100000000E-03 0. -1.
        -11    1    3    3    0    0  0.45186375100E+00 -0.39153814039E+01 -0.10268011991E+01  0.40729244224E+01  0.51100000000E-03 0.  1.
         12    1    3    3    0    0  0.12102080740E+02 -0.27695507940E+01  0.74343193339E+01  0.14470655611E+02  0.00000000000E+00 0. -1.
</event>
<event>
 7    1  0.7357971E-011  0.4778727E+02  0.7816164E-02  0.1312668E+00
        -11   -1    0    0    0    0  0.00000000000E+00  0.00000000000E+00  0.45593999997E+02  0.45594000000E+02  0.51100000000E-03 0.  1.
         11   -1    0    0    0    0 -0.00000000000E+00 -0.00000000000E+00 -0.45593999997E+02  0.45594000000E+02  0.51100000000E-03 0. -1.
    9900012    2    1    2    0    0  0.43137813991E+02  0.46864140432E+01 -0.88881334295E+00  0.47787268881E+02  0.19999990137E+02 0.  0.
        -12    1    1    2    0    0 -0.43137813991E+02 -0.46864140432E+01  0.88881334295E+00  0.43400731119E+02  0.00000000000E+00 0.  1.
         11    1    3    3    0    0  0.20449684071E+02 -0.52533022604E+01 -0.60481138877E+01  0.21962842373E+02  0.51100000000E-03 0. -1.
        -11    1    3    3    0    0  0.12640910811E+02  0.82430842374E+01  0.25359804096E+01  0.15302688024E+02  0.51100000000E-03 0.  1.
         12    1    3    3    0    0  0.10047219109E+02  0.16966320662E+01  0.26233201352E+01  0.10521738484E+02  0.00000000000E+00 0. -1.
</event>
<event>
 7    1  0.7357971E-011  0.4778727E+02  0.7816164E-02  0.1312668E+00
        -11   -1    0    0    0    0  0.00000000000E+00  0.00000000000E+00  0.45593999997E+02  0.45594000000E+02  0.51100000000E-03 0.  1.
         11   -1    0    0    0    0 -0.00000000000E+00 -0.00000000000E+00 -0.45593999997E+02  0.45594000000E+02  0.51100000000E-03 0. -1.
    9900012    2    1    2    0    0 -0.34147910966E+02 -0.11479857594E+01 -0.26762390816E+02  0.47787271241E+02  0.20000000895E+02 0.  0.
         12    1    1    2    0    0  0.34147910966E+02  0.11479857594E+01  0.26762390816E+02  0.43400728759E+02  0.00000000000E+00 0. -1.
         11    1    3    3    0    0 -0.21148391587E+02  0.22781348286E+01 -0.19239080037E+02  0.28680769968E+02  0.51100000000E-03 0. -1.
        -11    1    3    3    0    0  0.17816134507E+01  0.10765353993E+01 -0.54306797055E+00  0.21512782330E+01  0.51100000000E-03 0.  1.
         12    1    3    3    0    0 -0.14781132830E+02 -0.45026559873E+01 -0.69802428085E+01  0.16955223040E+02  0.00000000000E+00 0. -1.
</event>
<event>
 7    1  0.7483569E-011  0.4778728E+02  0.7816164E-02  0.1312668E+00
        -11   -1    0    0    0    0  0.00000000000E+00  0.00000000000E+00  0.45593999997E+02  0.45594000000E+02  0.51100000000E-03 0. -1.
         11   -1    0    0    0    0 -0.00000000000E+00 -0.00000000000E+00 -0.45593999997E+02  0.45594000000E+02  0.51100000000E-03 0.  1.
    9900012    2    1    2    0    0  0.96638167731E+01 -0.18311389935E+02  0.38143499679E+02  0.47787275078E+02  0.20000018392E+02 0.  0.
        -12    1    1    2    0    0 -0.96638167731E+01  0.18311389935E+02 -0.38143499679E+02  0.43400724922E+02  0.00000000000E+00 0.  1.
         11    1    3    3    0    0  0.20484578985E+01 -0.35720601181E+01  0.11809615959E+02  0.12506910993E+02  0.51100000000E-03 0. -1.
        -11    1    3    3    0    0  0.89404184336E+01 -0.16696273823E+02  0.26853644738E+02  0.32860536778E+02  0.51100000000E-03 0.  1.
        -12    1    3    3    0    0 -0.13250595590E+01  0.19569440066E+01 -0.51976101794E+00  0.24198273069E+01  0.00000000000E+00 0.  1.
</event>
<event>
 7    1  0.7357971E-011  0.4778727E+02  0.7816164E-02  0.1312668E+00
        -11   -1    0    0    0    0  0.00000000000E+00  0.00000000000E+00  0.45593999997E+02  0.45594000000E+02  0.51100000000E-03 0. -1.
         11   -1    0    0    0    0 -0.00000000000E+00 -0.00000000000E+00 -0.45593999997E+02  0.45594000000E+02  0.51100000000E-03 0.  1.
    9900012    2    1    2    0    0  0.78507033790E+01  0.10300960689E+02  0.41423179842E+02  0.47787272323E+02  0.20000005831E+02 0.  0.
        -12    1    1    2    0    0 -0.78507033790E+01 -0.10300960689E+02 -0.41423179842E+02  0.43400727677E+02  0.00000000000E+00 0.  1.
         11    1    3    3    0    0  0.91834883492E+01 -0.77420602026E+00  0.11056909034E+02  0.14394133905E+02  0.51100000000E-03 0. -1.
        -11    1    3    3    0    0 -0.35262391159E+01  0.41291047808E+01  0.66598782071E+01  0.85928951226E+01  0.51100000000E-03 0.  1.
         12    1    3    3    0    0  0.21934541457E+01  0.69460619283E+01  0.23706392601E+02  0.24800243296E+02  0.00000000000E+00 0. -1.
</event>
<event>
 7    1  0.7357971E-011  0.4778727E+02  0.7816164E-02  0.1312668E+00
        -11   -1    0    0    0    0  0.00000000000E+00  0.00000000000E+00  0.45593999997E+02  0.45594000000E+02  0.51100000000E-03 0. -1.
         11   -1    0    0    0    0 -0.00000000000E+00 -0.00000000000E+00 -0.45593999997E+02  0.45594000000E+02  0.51100000000E-03 0.  1.
    9900012    2    1    2    0    0 -0.27163555479E+02 -0.12475667745E+02 -0.31466204642E+02  0.47787273433E+02  0.20000010890E+02 0.  0.
         12    1    1    2    0    0  0.27163555479E+02  0.12475667745E+02  0.31466204642E+02  0.43400726567E+02  0.00000000000E+00 0. -1.
         11    1    3    3    0    0 -0.18936950458E+02 -0.77956539873E+00 -0.19297241943E+02  0.27048093495E+02  0.51100000000E-03 0. -1.
        -11    1    3    3    0    0 -0.97211617768E+01 -0.11540120950E+02 -0.10004708804E+02  0.18104407650E+02  0.51100000000E-03 0.  1.
        -12    1    3    3    0    0  0.14945567552E+01 -0.15598139666E+00 -0.21642538951E+01  0.26347722886E+01  0.00000000000E+00 0.  1.
</event>
<event>
 7    1  0.8647980E-011  0.4778728E+02  0.7816164E-02  0.1312668E+00
        -11   -1    0    0    0    0  0.00000000000E+00  0.00000000000E+00  0.45593999997E+02  0.45594000000E+02  0.51100000000E-03 0. -1.
         11   -1    0    0    0    0 -0.00000000000E+00 -0.00000000000E+00 -0.45593999997E+02  0.45594000000E+02  0.51100000000E-03 0.  1.
    9900012    2    1    2    0    0 -0.11103365265E+02 -0.29175239113E+01  0.41854822908E+02  0.47787275736E+02  0.20000021390E+02 0.  0.
        -12    1    1    2    0    0  0.11103365265E+02  0.29175239113E+01 -0.41854822908E+02  0.43400724264E+02  0.00000000000E+00 0.  1.
         11    1    3    3    0    0 -0.40699904574E+01 -0.19909855338E+01  0.14140769966E+02  0.14848913132E+02  0.51100000000E-03 0. -1.
        -11    1    3    3    0    0 -0.81672682222E+01  0.61825495603E+01  0.19418873697E+02  0.21954973132E+02  0.51100000000E-03 0.  1.
        -12    1    3    3    0    0  0.11338934150E+01 -0.71090879378E+01  0.82951792453E+01  0.10983389472E+02  0.00000000000E+00 0.  1.
</event>
<event>
 7    1  0.1197255E-010  0.4778727E+02  0.7816164E-02  0.1312668E+00
        -11   -1    0    0    0    0  0.00000000000E+00  0.00000000000E+00  0.45593999997E+02  0.45594000000E+02  0.51100000000E-03 0. -1.
         11   -1    0    0    0    0 -0.00000000000E+00 -0.00000000000E+00 -0.45593999997E+02  0.45594000000E+02  0.51100000000E-03 0.  1.
    9900012    2    1    2    0    0  0.19292893386E+02 -0.13566399568E+02 -0.36432958375E+02  0.47787269725E+02  0.19999993985E+02 0.  0.
         12    1    1    2    0    0 -0.19292893386E+02  0.13566399568E+02  0.36432958375E+02  0.43400730275E+02  0.00000000000E+00 0. -1.
         11    1    3    3    0    0 -0.16269151125E+00  0.20494890124E+01  0.38307736883E+00  0.20913207003E+01  0.51100000000E-03 0. -1.
        -11    1    3    3    0    0  0.12655737846E+02 -0.15632862230E+02 -0.29536177526E+02  0.35734295362E+02  0.51100000000E-03 0.  1.
        -12    1    3    3    0    0  0.67998470518E+01  0.16973649442E-01 -0.72798582175E+01  0.99616536628E+01  0.00000000000E+00 0.  1.
</event>
<event>
 7    1  0.7357971E-011  0.4778726E+02  0.7816164E-02  0.1312668E+00
        -11   -1    0    0    0    0  0.00000000000E+00  0.00000000000E+00  0.45593999997E+02  0.45594000000E+02  0.51100000000E-03 0. -1.
         11   -1    0    0    0    0 -0.00000000000E+00 -0.00000000000E+00 -0.45593999997E+02  0.45594000000E+02  0.51100000000E-03 0.  1.
    9900012    2    1    2    0    0 -0.19826687828E+02  0.65968064146E+00 -0.38601698411E+02  0.47787264419E+02  0.19999969790E+02 0.  0.
         12    1    1    2    0    0  0.19826687828E+02 -0.65968064146E+00  0.38601698411E+02  0.43400735581E+02  0.00000000000E+00 0. -1.
         11    1    3    3    0    0 -0.11082279510E+02  0.23220975761E+01 -0.81403417120E+01  0.13945401384E+02  0.51100000000E-03 0. -1.
        -11    1    3    3    0    0 -0.78463379629E+01 -0.18768745044E+01 -0.80004712053E+01  0.11362007618E+02  0.51100000000E-03 0.  1.
         12    1    3    3    0    0 -0.89807035441E+00  0.21445756974E+00 -0.22460885494E+02  0.22479855418E+02  0.00000000000E+00 0. -1.
</event>
<event>
 7    1  0.7357971E-011  0.4778729E+02  0.7816164E-02  0.1312668E+00
        -11   -1    0    0    0    0  0.00000000000E+00  0.00000000000E+00  0.45593999997E+02  0.45594000000E+02  0.51100000000E-03 0. -1.
         11   -1    0    0    0    0 -0.00000000000E+00 -0.00000000000E+00 -0.45593999997E+02  0.45594000000E+02  0.51100000000E-03 0.  1.
    9900012    2    1    2    0    0 -0.33995992689E+02 -0.25960211625E+02 -0.73458681622E+01  0.47787287038E+02  0.20000072922E+02 0.  0.
         12    1    1    2    0    0  0.33995992689E+02  0.25960211625E+02  0.73458681622E+01  0.43400712962E+02  0.00000000000E+00 0. -1.
         11    1    3    3    0    0 -0.15388449203E+02 -0.21606589207E+02 -0.15739327896E+01  0.26573037665E+02  0.51100000000E-03 0. -1.
        -11    1    3    3    0    0 -0.10982009909E+02 -0.13258434607E+01  0.20456471571E+00  0.11063645399E+02  0.51100000000E-03 0.  1.
         12    1    3    3    0    0 -0.76255335765E+01 -0.30277789572E+01 -0.59765000882E+01  0.10150603974E+02  0.00000000000E+00 0. -1.
</event>
<event>
 7    1  0.7357971E-011  0.4778727E+02  0.7816164E-02  0.1312668E+00
        -11   -1    0    0    0    0  0.00000000000E+00  0.00000000000E+00  0.45593999997E+02  0.45594000000E+02  0.51100000000E-03 0. -1.
         11   -1    0    0    0    0 -0.00000000000E+00 -0.00000000000E+00 -0.45593999997E+02  0.45594000000E+02  0.51100000000E-03 0.  1.
    9900012    2    1    2    0    0 -0.41925060332E+01 -0.10347690586E+02 -0.41940093538E+02  0.47787271281E+02  0.20000001081E+02 0.  0.
         12    1    1    2    0    0  0.41925060332E+01  0.10347690586E+02  0.41940093538E+02  0.43400728719E+02  0.00000000000E+00 0. -1.
         11    1    3    3    0    0 -0.16059762049E+01 -0.84718985137E+01 -0.78732308939E+01  0.11676471598E+02  0.51100000000E-03 0. -1.
        -11    1    3    3    0    0 -0.56885113845E+01  0.27234001032E+01 -0.15534291304E+02  0.16765747119E+02  0.51100000000E-03 0.  1.
        -12    1    3    3    0    0  0.31019815562E+01 -0.45991921756E+01 -0.18532571341E+02  0.19345052565E+02  0.00000000000E+00 0.  1.
</event>
<event>
 7    1  0.7357971E-011  0.4778727E+02  0.7816164E-02  0.1312668E+00
        -11   -1    0    0    0    0  0.00000000000E+00  0.00000000000E+00  0.45593999997E+02  0.45594000000E+02  0.51100000000E-03 0. -1.
         11   -1    0    0    0    0 -0.00000000000E+00 -0.00000000000E+00 -0.45593999997E+02  0.45594000000E+02  0.51100000000E-03 0.  1.
    9900012    2    1    2    0    0 -0.10256429658E+02 -0.41423507606E+02 -0.79070842626E+01  0.47787270591E+02  0.19999997932E+02 0.  0.
         12    1    1    2    0    0  0.10256429658E+02  0.41423507606E+02  0.79070842626E+01  0.43400729409E+02  0.00000000000E+00 0. -1.
         11    1    3    3    0    0 -0.10244791938E+02 -0.33923165374E+02 -0.93255335224E+01  0.36642904996E+02  0.51100000000E-03 0.  1.
        -11    1    3    3    0    0  0.10075758365E+01 -0.38089025835E+01  0.46775284905E+01  0.61157355239E+01  0.51100000000E-03 0. -1.
        -12    1    3    3    0    0 -0.10192135565E+01 -0.36914396487E+01 -0.32590792307E+01  0.50286300705E+01  0.00000000000E+00 0.  1.
</event>
<event>
 7    1  0.1239922E-010  0.4778727E+02  0.7816164E-02  0.1312668E+00
        -11   -1    0    0    0    0  0.00000000000E+00  0.00000000000E+00  0.45593999997E+02  0.45594000000E+02  0.51100000000E-03 0. -1.
         11   -1    0    0    0    0 -0.00000000000E+00 -0.00000000000E+00 -0.45593999997E+02  0.45594000000E+02  0.51100000000E-03 0.  1.
    9900012    2    1    2    0    0  0.20382073865E+02 -0.67834449608E+01 -0.37711789112E+02  0.47787273063E+02  0.20000009206E+02 0.  0.
         12    1    1    2    0    0 -0.20382073865E+02  0.67834449608E+01  0.37711789112E+02  0.43400726937E+02  0.00000000000E+00 0. -1.
         11    1    3    3    0    0  0.26663301649E+00 -0.28240739165E+01  0.82952893268E+00  0.29554365435E+01  0.51100000000E-03 0. -1.
        -11    1    3    3    0    0  0.17872963540E+02 -0.55788950149E+01 -0.26313223281E+02  0.32294776900E+02  0.51100000000E-03 0.  1.
        -12    1    3    3    0    0  0.22424773081E+01  0.16195239706E+01 -0.12228094764E+02  0.12537059620E+02  0.00000000000E+00 0.  1.
</event>
<event>
 7    1  0.7357971E-011  0.4778727E+02  0.7816164E-02  0.1312668E+00
        -11   -1    0    0    0    0  0.00000000000E+00  0.00000000000E+00  0.45593999997E+02  0.45594000000E+02  0.51100000000E-03 0. -1.
         11   -1    0    0    0    0 -0.00000000000E+00 -0.00000000000E+00 -0.45593999997E+02  0.45594000000E+02  0.51100000000E-03 0.  1.
    9900012    2    1    2    0    0  0.38976881609E+01  0.28700899916E+02  0.32321663192E+02  0.47787267973E+02  0.19999985998E+02 0.  0.
        -12    1    1    2    0    0 -0.38976881609E+01 -0.28700899916E+02 -0.32321663192E+02  0.43400732027E+02  0.00000000000E+00 0.  1.
         11    1    3    3    0    0 -0.38653807115E+01  0.98367945526E+00  0.53381997510E+01  0.66637204442E+01  0.51100000000E-03 0.  1.
        -11    1    3    3    0    0  0.41871989121E+01  0.25684130753E+02  0.26216357583E+02  0.36939201567E+02  0.51100000000E-03 0. -1.
        -12    1    3    3    0    0  0.35758699602E+01  0.20330897070E+01  0.76710585827E+00  0.41843459616E+01  0.00000000000E+00 0.  1.
</event>
<event>
 7    1  0.7357971E-011  0.4778728E+02  0.7816164E-02  0.1312668E+00
        -11   -1    0    0    0    0  0.00000000000E+00  0.00000000000E+00  0.45593999997E+02  0.45594000000E+02  0.51100000000E-03 0. -1.
         11   -1    0    0    0    0 -0.00000000000E+00 -0.00000000000E+00 -0.45593999997E+02  0.45594000000E+02  0.51100000000E-03 0.  1.
    9900012    2    1    2    0    0 -0.54581755578E+01  0.27009331917E+02 -0.33530988261E+02  0.47787275758E+02  0.20000021490E+02 0.  0.
         12    1    1    2    0    0  0.54581755578E+01 -0.27009331917E+02  0.33530988261E+02  0.43400724242E+02  0.00000000000E+00 0. -1.
         11    1    3    3    0    0 -0.20383868575E+01  0.13885330023E+01  0.10117911282E+01  0.26658519140E+01  0.51100000000E-03 0. -1.
        -11    1    3    3    0    0 -0.26771591717E+00  0.25083884559E+02 -0.33299177380E+02  0.41690624256E+02  0.51100000000E-03 0.  1.
        -12    1    3    3    0    0 -0.31520727831E+01  0.53691435515E+00 -0.12436020084E+01  0.34307995876E+01  0.00000000000E+00 0.  1.
</event>
<event>
 7    1  0.7357971E-011  0.4778727E+02  0.7816164E-02  0.1312668E+00
        -11   -1    0    0    0    0  0.00000000000E+00  0.00000000000E+00  0.45593999997E+02  0.45594000000E+02  0.51100000000E-03 0. -1.
         11   -1    0    0    0    0 -0.00000000000E+00 -0.00000000000E+00 -0.45593999997E+02  0.45594000000E+02  0.51100000000E-03 0.  1.
    9900012    2    1    2    0    0  0.30737727600E+02 -0.22037976265E+02 -0.21287154647E+02  0.47787271333E+02  0.20000001315E+02 0.  0.
         12    1    1    2    0    0 -0.30737727600E+02  0.22037976265E+02  0.21287154647E+02  0.43400728667E+02  0.00000000000E+00 0. -1.
         11    1    3    3    0    0  0.83637562105E+01 -0.11117419414E+02 -0.23160209315E+01  0.14103665679E+02  0.51100000000E-03 0. -1.
        -11    1    3    3    0    0  0.10322273424E+02 -0.56486823719E+01 -0.16552673941E+02  0.20308814737E+02  0.51100000000E-03 0.  1.
        -12    1    3    3    0    0  0.12051697966E+02 -0.52718744792E+01 -0.24184597753E+01  0.13374790917E+02  0.00000000000E+00 0.  1.
</event>
<event>
 7    1  0.7357971E-011  0.4778726E+02  0.7816164E-02  0.1312668E+00
        -11   -1    0    0    0    0  0.00000000000E+00  0.00000000000E+00  0.45593999997E+02  0.45594000000E+02  0.51100000000E-03 0. -1.
         11   -1    0    0    0    0 -0.00000000000E+00 -0.00000000000E+00 -0.45593999997E+02  0.45594000000E+02  0.51100000000E-03 0.  1.
    9900012    2    1    2    0    0  0.15001646925E+02  0.13852186136E+02 -0.38297408282E+02  0.47787263229E+02  0.19999964364E+02 0.  0.
         12    1    1    2    0    0 -0.15001646925E+02 -0.13852186136E+02  0.38297408282E+02  0.43400736771E+02  0.00000000000E+00 0. -1.
         11    1    3    3    0    0  0.69364675953E-01  0.15457007113E+01 -0.14424755316E+02  0.14507500417E+02  0.51100000000E-03 0. -1.
        -11    1    3    3    0    0  0.14424774553E+02  0.13789499395E+02 -0.16952117746E+02  0.26183939940E+02  0.51100000000E-03 0.  1.
        -12    1    3    3    0    0  0.50750769638E+00 -0.14830139704E+01 -0.69205352198E+01  0.70958228717E+01  0.00000000000E+00 0.  1.
</event>
<event>
 7    1  0.7357971E-011  0.4778726E+02  0.7816164E-02  0.1312668E+00
        -11   -1    0    0    0    0  0.00000000000E+00  0.00000000000E+00  0.45593999997E+02  0.45594000000E+02  0.51100000000E-03 0. -1.
         11   -1    0    0    0    0 -0.00000000000E+00 -0.00000000000E+00 -0.45593999997E+02  0.45594000000E+02  0.51100000000E-03 0.  1.
    9900012    2    1    2    0    0 -0.33066051354E+02  0.11356060357E+02 -0.25715763156E+02  0.47787258835E+02  0.19999944333E+02 0.  0.
         12    1    1    2    0    0  0.33066051354E+02 -0.11356060357E+02  0.25715763156E+02  0.43400741165E+02  0.00000000000E+00 0. -1.
         11    1    3    3    0    0 -0.44537869366E+01  0.86404575326E+01 -0.11835270874E+02  0.15315592100E+02  0.51100000000E-03 0. -1.
        -11    1    3    3    0    0 -0.14706881556E+02 -0.16051002486E+01 -0.69728313685E+01  0.16355093686E+02  0.51100000000E-03 0.  1.
         12    1    3    3    0    0 -0.13905382861E+02  0.43207030727E+01 -0.69076609136E+01  0.16116573049E+02  0.00000000000E+00 0. -1.
</event>
<event>
 7    1  0.7357971E-011  0.4778727E+02  0.7816164E-02  0.1312668E+00
        -11   -1    0    0    0    0  0.00000000000E+00  0.00000000000E+00  0.45593999997E+02  0.45594000000E+02  0.51100000000E-03 0. -1.
         11   -1    0    0    0    0 -0.00000000000E+00 -0.00000000000E+00 -0.45593999997E+02  0.45594000000E+02  0.51100000000E-03 0.  1.
    9900012    2    1    2    0    0 -0.81517549366E+01 -0.22340150172E+02 -0.36305506439E+02  0.47787271711E+02  0.20000003041E+02 0.  0.
         12    1    1    2    0    0  0.81517549366E+01  0.22340150172E+02  0.36305506439E+02  0.43400728289E+02  0.00000000000E+00 0. -1.
         11    1    3    3    0    0  0.15222695148E+00  0.41613160352E+00 -0.12343267230E+00  0.45997221864E+00  0.51100000000E-03 0. -1.
        -11    1    3    3    0    0 -0.68076898001E+01 -0.50733109664E+01 -0.24877562301E+02  0.26286426742E+02  0.51100000000E-03 0.  1.
        -12    1    3    3    0    0 -0.14962920879E+01 -0.17682970809E+02 -0.11304511465E+02  0.21040872751E+02  0.00000000000E+00 0.  1.
</event>
<event>
 7    1  0.7357971E-011  0.4778728E+02  0.7816164E-02  0.1312668E+00
        -11   -1    0    0    0    0  0.00000000000E+00  0.00000000000E+00  0.45593999997E+02  0.45594000000E+02  0.51100000000E-03 0. -1.
         11   -1    0    0    0    0 -0.00000000000E+00 -0.00000000000E+00 -0.45593999997E+02  0.45594000000E+02  0.51100000000E-03 0.  1.
    9900012    2    1    2    0    0 -0.44957780119E+01 -0.24057564233E+02 -0.35841935091E+02  0.47787277336E+02  0.20000028684E+02 0.  0.
         12    1    1    2    0    0  0.44957780119E+01  0.24057564233E+02  0.35841935091E+02  0.43400722664E+02  0.00000000000E+00 0. -1.
         11    1    3    3    0    0 -0.78284976326E+01 -0.85542065879E+01 -0.13189076874E+02  0.17561650680E+02  0.51100000000E-03 0. -1.
        -11    1    3    3    0    0  0.60019980703E+01 -0.98157330375E+01 -0.20636676967E+02  0.23627209577E+02  0.51100000000E-03 0.  1.
        -12    1    3    3    0    0 -0.26692784496E+01 -0.56876246074E+01 -0.20161812494E+01  0.65984170789E+01  0.00000000000E+00 0.  1.
</event>
<event>
 7    1  0.7597704E-011  0.4778727E+02  0.7816164E-02  0.1312668E+00
        -11   -1    0    0    0    0  0.00000000000E+00  0.00000000000E+00  0.45593999997E+02  0.45594000000E+02  0.51100000000E-03 0. -1.
         11   -1    0    0    0    0 -0.00000000000E+00 -0.00000000000E+00 -0.45593999997E+02  0.45594000000E+02  0.51100000000E-03 0.  1.
    9900012    2    1    2    0    0 -0.22184761028E+02 -0.14734385721E+02 -0.34268901701E+02  0.47787269957E+02  0.19999995043E+02 0.  0.
         12    1    1    2    0    0  0.22184761028E+02  0.14734385721E+02  0.34268901701E+02  0.43400730043E+02  0.00000000000E+00 0. -1.
         11    1    3    3    0    0 -0.64595703663E+01  0.21539080385E+01 -0.41136219153E+01  0.79553286971E+01  0.51100000000E-03 0. -1.
        -11    1    3    3    0    0 -0.59398395285E+01 -0.11241507192E+02 -0.81679496805E+01  0.15111868839E+02  0.51100000000E-03 0.  1.
        -12    1    3    3    0    0 -0.97853511331E+01 -0.56467865679E+01 -0.21987330105E+02  0.24720072421E+02  0.00000000000E+00 0.  1.
</event>
<event>
 7    1  0.7357971E-011  0.4778728E+02  0.7816164E-02  0.1312668E+00
        -11   -1    0    0    0    0  0.00000000000E+00  0.00000000000E+00  0.45593999997E+02  0.45594000000E+02  0.51100000000E-03 0. -1.
         11   -1    0    0    0    0 -0.00000000000E+00 -0.00000000000E+00 -0.45593999997E+02  0.45594000000E+02  0.51100000000E-03 0.  1.
    9900012    2    1    2    0    0 -0.68784796141E+01  0.68672005874E+01 -0.42298356466E+02  0.47787275520E+02  0.20000020405E+02 0.  0.
         12    1    1    2    0    0  0.68784796141E+01 -0.68672005874E+01  0.42298356466E+02  0.43400724480E+02  0.00000000000E+00 0. -1.
         11    1    3    3    0    0  0.74788140670E+00  0.23469489882E+01 -0.25970050368E+00  0.24768812576E+01  0.51100000000E-03 0. -1.
        -11    1    3    3    0    0 -0.22479063039E+01  0.14412269077E+01 -0.37582425186E+02  0.37677166837E+02  0.51100000000E-03 0.  1.
        -12    1    3    3    0    0 -0.53784547169E+01  0.30790246915E+01 -0.44562307757E+01  0.76332274248E+01  0.00000000000E+00 0.  1.
</event>
<event>
 7    1  0.7357971E-011  0.4778728E+02  0.7816164E-02  0.1312668E+00
        -11   -1    0    0    0    0  0.00000000000E+00  0.00000000000E+00  0.45593999997E+02  0.45594000000E+02  0.51100000000E-03 0. -1.
         11   -1    0    0    0    0 -0.00000000000E+00 -0.00000000000E+00 -0.45593999997E+02  0.45594000000E+02  0.51100000000E-03 0.  1.
    9900012    2    1    2    0    0 -0.23203227292E+02  0.33971012744E+02 -0.13827631326E+02  0.47787275908E+02  0.20000022174E+02 0.  0.
         12    1    1    2    0    0  0.23203227292E+02 -0.33971012744E+02  0.13827631326E+02  0.43400724092E+02  0.00000000000E+00 0. -1.
         11    1    3    3    0    0 -0.28861108351E+01 -0.22898137989E+01 -0.17205604826E+01  0.40661052153E+01  0.51100000000E-03 0. -1.
        -11    1    3    3    0    0 -0.16681674741E+02  0.29021574623E+02 -0.12176152297E+02  0.35620061072E+02  0.51100000000E-03 0.  1.
         12    1    3    3    0    0 -0.36354417154E+01  0.72392519202E+01  0.69081453994E-01  0.81011096201E+01  0.00000000000E+00 0. -1.
</event>
<event>
 7    1  0.7357971E-011  0.4778728E+02  0.7816164E-02  0.1312668E+00
        -11   -1    0    0    0    0  0.00000000000E+00  0.00000000000E+00  0.45593999997E+02  0.45594000000E+02  0.51100000000E-03 0. -1.
         11   -1    0    0    0    0 -0.00000000000E+00 -0.00000000000E+00 -0.45593999997E+02  0.45594000000E+02  0.51100000000E-03 0.  1.
    9900012    2    1    2    0    0 -0.12785643458E+02  0.79693841977E+01 -0.40701832416E+02  0.47787275062E+02  0.20000018318E+02 0.  0.
         12    1    1    2    0    0  0.12785643458E+02 -0.79693841977E+01  0.40701832416E+02  0.43400724938E+02  0.00000000000E+00 0. -1.
         11    1    3    3    0    0  0.17030916076E+01  0.77486525967E+00 -0.35972130021E+00  0.19053442916E+01  0.51100000000E-03 0. -1.
        -11    1    3    3    0    0 -0.40521864684E+01  0.10214680571E+02 -0.19997521537E+02  0.22817992511E+02  0.51100000000E-03 0.  1.
        -12    1    3    3    0    0 -0.10436548598E+02 -0.30201616331E+01 -0.20344589578E+02  0.23063938259E+02  0.00000000000E+00 0.  1.
</event>
<event>
 7    1  0.7357971E-011  0.4778727E+02  0.7816164E-02  0.1312668E+00
        -11   -1    0    0    0    0  0.00000000000E+00  0.00000000000E+00  0.45593999997E+02  0.45594000000E+02  0.51100000000E-03 0. -1.
         11   -1    0    0    0    0 -0.00000000000E+00 -0.00000000000E+00 -0.45593999997E+02  0.45594000000E+02  0.51100000000E-03 0.  1.
    9900012    2    1    2    0    0  0.22269857870E+02 -0.77356490193E+01 -0.36439494190E+02  0.47787267609E+02  0.19999984335E+02 0.  0.
         12    1    1    2    0    0 -0.22269857870E+02  0.77356490193E+01  0.36439494190E+02  0.43400732391E+02  0.00000000000E+00 0. -1.
         11    1    3    3    0    0  0.96053426762E+01 -0.45638992977E+01 -0.26854632232E+01  0.10968295114E+02  0.51100000000E-03 0. -1.
        -11    1    3    3    0    0  0.14437340952E+01  0.11925077060E+01 -0.10154980142E+02  0.10326183453E+02  0.51100000000E-03 0.  1.
         12    1    3    3    0    0  0.11220781098E+02 -0.43642574277E+01 -0.23599050825E+02  0.26492789041E+02  0.00000000000E+00 0. -1.
</event>
<event>
 7    1  0.7357971E-011  0.4778727E+02  0.7816164E-02  0.1312668E+00
        -11   -1    0    0    0    0  0.00000000000E+00  0.00000000000E+00  0.45593999997E+02  0.45594000000E+02  0.51100000000E-03 0.  1.
         11   -1    0    0    0    0 -0.00000000000E+00 -0.00000000000E+00 -0.45593999997E+02  0.45594000000E+02  0.51100000000E-03 0. -1.
    9900012    2    1    2    0    0 -0.29326141452E+02 -0.31822034683E+02  0.33103872992E+01  0.47787272726E+02  0.20000007667E+02 0.  0.
        -12    1    1    2    0    0  0.29326141452E+02  0.31822034683E+02 -0.33103872992E+01  0.43400727274E+02  0.00000000000E+00 0.  1.
         11    1    3    3    0    0 -0.49714833451E+01 -0.58227176525E+01  0.32269139038E+01  0.83085895984E+01  0.51100000000E-03 0. -1.
        -11    1    3    3    0    0 -0.14840394564E+02 -0.17044796136E+02  0.82639853644E+01  0.24063579129E+02  0.51100000000E-03 0.  1.
        -12    1    3    3    0    0 -0.95142635429E+01 -0.89545208943E+01 -0.81805119690E+01  0.15415103999E+02  0.00000000000E+00 0.  1.
</event>
<event>
 7    1  0.7357971E-011  0.4778732E+02  0.7816164E-02  0.1312668E+00
        -11   -1    0    0    0    0  0.00000000000E+00  0.00000000000E+00  0.45593999997E+02  0.45594000000E+02  0.51100000000E-03 0. -1.
         11   -1    0    0    0    0 -0.00000000000E+00 -0.00000000000E+00 -0.45593999997E+02  0.45594000000E+02  0.51100000000E-03 0.  1.
    9900012    2    1    2    0    0 -0.21519600201E+02 -0.35569653401E+02 -0.12462976507E+02  0.47787317755E+02  0.20000212973E+02 0.  0.
         12    1    1    2    0    0  0.21519600201E+02  0.35569653401E+02  0.12462976507E+02  0.43400682245E+02  0.00000000000E+00 0. -1.
         11    1    3    3    0    0 -0.16711408672E+02 -0.12031832994E+02 -0.57993562768E+00  0.20600303653E+02  0.51100000000E-03 0. -1.
        -11    1    3    3    0    0 -0.49351174878E+01 -0.18670590338E+02 -0.11042927786E+02  0.22246181303E+02  0.51100000000E-03 0.  1.
         12    1    3    3    0    0  0.12692595923E+00 -0.48672300692E+01 -0.84011309295E+00  0.49408327997E+01  0.00000000000E+00 0. -1.
</event>
<event>
 7    1  0.7357971E-011  0.4778729E+02  0.7816164E-02  0.1312668E+00
        -11   -1    0    0    0    0  0.00000000000E+00  0.00000000000E+00  0.45593999997E+02  0.45594000000E+02  0.51100000000E-03 0. -1.
         11   -1    0    0    0    0 -0.00000000000E+00 -0.00000000000E+00 -0.45593999997E+02  0.45594000000E+02  0.51100000000E-03 0.  1.
    9900012    2    1    2    0    0  0.38533077312E+02  0.20836277335E+00  0.19969475034E+02  0.47787292686E+02  0.20000098674E+02 0.  0.
        -12    1    1    2    0    0 -0.38533077312E+02 -0.20836277335E+00 -0.19969475034E+02  0.43400707314E+02  0.00000000000E+00 0.  1.
         11    1    3    3    0    0  0.12200086134E+02 -0.40512985388E+01  0.11149669889E+02  0.17016764100E+02  0.51100000000E-03 0. -1.
        -11    1    3    3    0    0  0.22317437709E+02  0.77144071198E+01  0.94543323221E+01  0.25435496909E+02  0.51100000000E-03 0.  1.
        -12    1    3    3    0    0  0.40155534694E+01 -0.34547458077E+01 -0.63452717738E+00  0.53350316775E+01  0.00000000000E+00 0.  1.
</event>
<event>
 7    1  0.7357971E-011  0.4778727E+02  0.7816164E-02  0.1312668E+00
        -11   -1    0    0    0    0  0.00000000000E+00  0.00000000000E+00  0.45593999997E+02  0.45594000000E+02  0.51100000000E-03 0. -1.
         11   -1    0    0    0    0 -0.00000000000E+00 -0.00000000000E+00 -0.45593999997E+02  0.45594000000E+02  0.51100000000E-03 0.  1.
    9900012    2    1    2    0    0  0.37262837684E+02  0.14696491566E+02 -0.16706814310E+02  0.47787267506E+02  0.19999983868E+02 0.  0.
         12    1    1    2    0    0 -0.37262837684E+02 -0.14696491566E+02  0.16706814310E+02  0.43400732494E+02  0.00000000000E+00 0. -1.
         11    1    3    3    0    0  0.18609062133E+02  0.16149886079E+02 -0.46228691197E+01  0.25069641661E+02  0.51100000000E-03 0.  1.
        -11    1    3    3    0    0  0.15857568273E+02 -0.58946230663E+00 -0.82221390852E+01  0.17872143372E+02  0.51100000000E-03 0. -1.
        -12    1    3    3    0    0  0.27962072779E+01 -0.86393220660E+00 -0.38618061055E+01  0.48454824729E+01  0.00000000000E+00 0.  1.
</event>
<event>
 7    1  0.7357971E-011  0.4778727E+02  0.7816164E-02  0.1312668E+00
        -11   -1    0    0    0    0  0.00000000000E+00  0.00000000000E+00  0.45593999997E+02  0.45594000000E+02  0.51100000000E-03 0.  1.
         11   -1    0    0    0    0 -0.00000000000E+00 -0.00000000000E+00 -0.45593999997E+02  0.45594000000E+02  0.51100000000E-03 0. -1.
    9900012    2    1    2    0    0 -0.31165296597E+02 -0.29458266146E+02 -0.66751830344E+01  0.47787271609E+02  0.20000002576E+02 0.  0.
         12    1    1    2    0    0  0.31165296597E+02  0.29458266146E+02  0.66751830344E+01  0.43400728391E+02  0.00000000000E+00 0. -1.
         11    1    3    3    0    0 -0.13820766529E+00 -0.26084990736E+01  0.26152090356E+01  0.36963072568E+01  0.51100000000E-03 0. -1.
        -11    1    3    3    0    0 -0.17576916488E+02 -0.19788080615E+02 -0.11278542073E+02  0.28770151880E+02  0.51100000000E-03 0.  1.
        -12    1    3    3    0    0 -0.13450172444E+02 -0.70616864569E+01  0.19881500027E+01  0.15320812473E+02  0.00000000000E+00 0.  1.
</event>
<event>
 7    1  0.7357971E-011  0.4778727E+02  0.7816164E-02  0.1312668E+00
        -11   -1    0    0    0    0  0.00000000000E+00  0.00000000000E+00  0.45593999997E+02  0.45594000000E+02  0.51100000000E-03 0. -1.
         11   -1    0    0    0    0 -0.00000000000E+00 -0.00000000000E+00 -0.45593999997E+02  0.45594000000E+02  0.51100000000E-03 0.  1.
    9900012    2    1    2    0    0 -0.22710482179E+02 -0.12983064825E+02 -0.34630868946E+02  0.47787273543E+02  0.20000011394E+02 0.  0.
         12    1    1    2    0    0  0.22710482179E+02  0.12983064825E+02  0.34630868946E+02  0.43400726457E+02  0.00000000000E+00 0. -1.
         11    1    3    3    0    0 -0.60150915343E+00  0.45888269747E+01 -0.53885332011E+01  0.71031990388E+01  0.51100000000E-03 0. -1.
        -11    1    3    3    0    0 -0.13596662125E+02 -0.99915887695E+01 -0.16814561511E+02  0.23820800703E+02  0.51100000000E-03 0.  1.
         12    1    3    3    0    0 -0.85123108997E+01 -0.75803030305E+01 -0.12427774234E+02  0.16863273801E+02  0.00000000000E+00 0. -1.
</event>
<event>
 7    1  0.7357971E-011  0.4778727E+02  0.7816164E-02  0.1312668E+00
        -11   -1    0    0    0    0  0.00000000000E+00  0.00000000000E+00  0.45593999997E+02  0.45594000000E+02  0.51100000000E-03 0. -1.
         11   -1    0    0    0    0 -0.00000000000E+00 -0.00000000000E+00 -0.45593999997E+02  0.45594000000E+02  0.51100000000E-03 0.  1.
    9900012    2    1    2    0    0 -0.33652299997E+02  0.26804645620E+02 -0.57146151725E+01  0.47787272489E+02  0.20000006588E+02 0.  0.
         12    1    1    2    0    0  0.33652299997E+02 -0.26804645620E+02  0.57146151725E+01  0.43400727511E+02  0.00000000000E+00 0. -1.
         11    1    3    3    0    0 -0.11009363572E+02  0.28509906092E+01 -0.18961599481E+01  0.11529512414E+02  0.51100000000E-03 0. -1.
        -11    1    3    3    0    0 -0.10809163083E+02  0.21023127760E+02 -0.59099234631E+00  0.23646546885E+02  0.51100000000E-03 0.  1.
        -12    1    3    3    0    0 -0.11833773343E+02  0.29305272505E+01 -0.32274628781E+01  0.12611213190E+02  0.00000000000E+00 0.  1.
</event>
<event>
 7    1  0.7357971E-011  0.4778729E+02  0.7816164E-02  0.1312668E+00
        -11   -1    0    0    0    0  0.00000000000E+00  0.00000000000E+00  0.45593999997E+02  0.45594000000E+02  0.51100000000E-03 0. -1.
         11   -1    0    0    0    0 -0.00000000000E+00 -0.00000000000E+00 -0.45593999997E+02  0.45594000000E+02  0.51100000000E-03 0.  1.
    9900012    2    1    2    0    0  0.93593046153E+01 -0.24030771183E+02  0.34907694427E+02  0.47787289444E+02  0.20000083893E+02 0.  0.
        -12    1    1    2    0    0 -0.93593046153E+01  0.24030771183E+02 -0.34907694427E+02  0.43400710556E+02  0.00000000000E+00 0.  1.
         11    1    3    3    0    0 -0.40765949012E+01 -0.14453671828E+02  0.15352851686E+02  0.21476436167E+02  0.51100000000E-03 0. -1.
        -11    1    3    3    0    0  0.21869022469E+01 -0.29605213706E+01  0.13693553050E+01  0.39271315786E+01  0.51100000000E-03 0.  1.
         12    1    3    3    0    0  0.11248997270E+02 -0.66165779846E+01  0.18185487436E+02  0.22383721699E+02  0.00000000000E+00 0. -1.
</event>
<event>
 7    1  0.9229348E-011  0.4778727E+02  0.7816164E-02  0.1312668E+00
        -11   -1    0    0    0    0  0.00000000000E+00  0.00000000000E+00  0.45593999997E+02  0.45594000000E+02  0.51100000000E-03 0. -1.
         11   -1    0    0    0    0 -0.00000000000E+00 -0.00000000000E+00 -0.45593999997E+02  0.45594000000E+02  0.51100000000E-03 0.  1.
    9900012    2    1    2    0    0 -0.62398144564E+01  0.28099338144E+02 -0.32482536961E+02  0.47787270790E+02  0.19999998838E+02 0.  0.
         12    1    1    2    0    0  0.62398144564E+01 -0.28099338144E+02  0.32482536961E+02  0.43400729210E+02  0.00000000000E+00 0. -1.
         11    1    3    3    0    0 -0.45048347839E+01 -0.86597711132E+00 -0.25336151987E+01  0.52404827090E+01  0.51100000000E-03 0. -1.
        -11    1    3    3    0    0 -0.50720905022E+01  0.20350857448E+02 -0.21267605011E+02  0.29869625443E+02  0.51100000000E-03 0.  1.
         12    1    3    3    0    0  0.33371108297E+01  0.86144578072E+01 -0.86813167506E+01  0.12677162637E+02  0.00000000000E+00 0. -1.
</event>
<event>
 7    1  0.7357971E-011  0.4778726E+02  0.7816164E-02  0.1312668E+00
        -11   -1    0    0    0    0  0.00000000000E+00  0.00000000000E+00  0.45593999997E+02  0.45594000000E+02  0.51100000000E-03 0. -1.
         11   -1    0    0    0    0 -0.00000000000E+00 -0.00000000000E+00 -0.45593999997E+02  0.45594000000E+02  0.51100000000E-03 0.  1.
    9900012    2    1    2    0    0 -0.45976868834E+01 -0.29555496630E+02  0.31447699388E+02  0.47787263802E+02  0.19999966979E+02 0.  0.
        -12    1    1    2    0    0  0.45976868834E+01  0.29555496630E+02 -0.31447699388E+02  0.43400736198E+02  0.00000000000E+00 0.  1.
         11    1    3    3    0    0 -0.48686725015E+01 -0.76629037658E+01  0.15859120715E+02  0.18273909712E+02  0.51100000000E-03 0. -1.
        -11    1    3    3    0    0  0.38162821614E+01 -0.21067977796E+02  0.13610830445E+02  0.25370817953E+02  0.51100000000E-03 0.  1.
        -12    1    3    3    0    0 -0.35452965434E+01 -0.82461506829E+00  0.19777482278E+01  0.41425361367E+01  0.00000000000E+00 0.  1.
</event>
<event>
 7    1  0.7357971E-011  0.4778727E+02  0.7816164E-02  0.1312668E+00
        -11   -1    0    0    0    0  0.00000000000E+00  0.00000000000E+00  0.45593999997E+02  0.45594000000E+02  0.51100000000E-03 0.  1.
         11   -1    0    0    0    0 -0.00000000000E+00 -0.00000000000E+00 -0.45593999997E+02  0.45594000000E+02  0.51100000000E-03 0. -1.
    9900012    2    1    2    0    0 -0.76574107697E+01  0.40720532770E+02  0.12916094257E+02  0.47787271669E+02  0.20000002848E+02 0.  0.
        -12    1    1    2    0    0  0.76574107697E+01 -0.40720532770E+02 -0.12916094257E+02  0.43400728331E+02  0.00000000000E+00 0.  1.
         11    1    3    3    0    0 -0.65579378497E+00  0.29641076248E+02  0.15897990113E+02  0.33641782897E+02  0.51100000000E-03 0. -1.
        -11    1    3    3    0    0 -0.67647387862E+01  0.70086037123E+01 -0.18666699396E+01  0.99179974675E+01  0.51100000000E-03 0.  1.
        -12    1    3    3    0    0 -0.23687819854E+00  0.40708528103E+01 -0.11152259161E+01  0.42274913043E+01  0.00000000000E+00 0.  1.
</event>
<event>
 7    1  0.7357971E-011  0.4778727E+02  0.7816164E-02  0.1312668E+00
        -11   -1    0    0    0    0  0.00000000000E+00  0.00000000000E+00  0.45593999997E+02  0.45594000000E+02  0.51100000000E-03 0. -1.
         11   -1    0    0    0    0 -0.00000000000E+00 -0.00000000000E+00 -0.45593999997E+02  0.45594000000E+02  0.51100000000E-03 0.  1.
    9900012    2    1    2    0    0 -0.73742967692E+01  0.26132443510E+02 -0.33857618355E+02  0.47787272157E+02  0.20000005073E+02 0.  0.
         12    1    1    2    0    0  0.73742967692E+01 -0.26132443510E+02  0.33857618355E+02  0.43400727843E+02  0.00000000000E+00 0. -1.
         11    1    3    3    0    0 -0.25572514787E+01  0.18499151738E+02 -0.11654335891E+02  0.22013216382E+02  0.51100000000E-03 0. -1.
        -11    1    3    3    0    0 -0.62405046716E+01  0.36891205234E+01 -0.19451757115E+02  0.20758717781E+02  0.51100000000E-03 0.  1.
        -12    1    3    3    0    0  0.14234593812E+01  0.39441712486E+01 -0.27515253482E+01  0.50153379936E+01  0.00000000000E+00 0.  1.
</event>
<event>
 7    1  0.7357971E-011  0.4778727E+02  0.7816164E-02  0.1312668E+00
        -11   -1    0    0    0    0  0.00000000000E+00  0.00000000000E+00  0.45593999997E+02  0.45594000000E+02  0.51100000000E-03 0.  1.
         11   -1    0    0    0    0 -0.00000000000E+00 -0.00000000000E+00 -0.45593999997E+02  0.45594000000E+02  0.51100000000E-03 0. -1.
    9900012    2    1    2    0    0  0.12230093115E+02  0.38834992976E+02  0.15029678836E+02  0.47787273013E+02  0.20000008977E+02 0.  0.
        -12    1    1    2    0    0 -0.12230093115E+02 -0.38834992976E+02 -0.15029678836E+02  0.43400726987E+02  0.00000000000E+00 0.  1.
         11    1    3    3    0    0  0.94383092592E+01  0.15257851581E+02  0.19559801949E+01  0.18047425726E+02  0.51100000000E-03 0. -1.
        -11    1    3    3    0    0  0.32267654386E+01  0.23791718971E+02  0.14625916315E+02  0.28113614764E+02  0.51100000000E-03 0.  1.
        -12    1    3    3    0    0 -0.43498158297E+00 -0.21457757611E+00 -0.15522176737E+01  0.16262325234E+01  0.00000000000E+00 0.  1.
</event>
<event>
 7    1  0.7357971E-011  0.4778727E+02  0.7816164E-02  0.1312668E+00
        -11   -1    0    0    0    0  0.00000000000E+00  0.00000000000E+00  0.45593999997E+02  0.45594000000E+02  0.51100000000E-03 0. -1.
         11   -1    0    0    0    0 -0.00000000000E+00 -0.00000000000E+00 -0.45593999997E+02  0.45594000000E+02  0.51100000000E-03 0.  1.
    9900012    2    1    2    0    0  0.25608139721E+02 -0.55871341033E+00 -0.35036184762E+02  0.47787271627E+02  0.20000002655E+02 0.  0.
         12    1    1    2    0    0 -0.25608139721E+02  0.55871341033E+00  0.35036184762E+02  0.43400728373E+02  0.00000000000E+00 0. -1.
         11    1    3    3    0    0  0.36831075638E+01  0.39103560404E+01 -0.14172533900E+02  0.15156413926E+02  0.51100000000E-03 0. -1.
        -11    1    3    3    0    0  0.18206112739E+02 -0.69099479784E+00 -0.10598658270E+02  0.21077750645E+02  0.51100000000E-03 0.  1.
         12    1    3    3    0    0  0.37189194182E+01 -0.37780746528E+01 -0.10264992592E+02  0.11553107056E+02  0.00000000000E+00 0. -1.
</event>
<event>
 7    1  0.7357971E-011  0.4778727E+02  0.7816164E-02  0.1312668E+00
        -11   -1    0    0    0    0  0.00000000000E+00  0.00000000000E+00  0.45593999997E+02  0.45594000000E+02  0.51100000000E-03 0.  1.
         11   -1    0    0    0    0 -0.00000000000E+00 -0.00000000000E+00 -0.45593999997E+02  0.45594000000E+02  0.51100000000E-03 0. -1.
    9900012    2    1    2    0    0  0.41178899296E+02  0.83996206511E+01  0.10833648430E+02  0.47787270599E+02  0.19999997967E+02 0.  0.
        -12    1    1    2    0    0 -0.41178899296E+02 -0.83996206511E+01 -0.10833648430E+02  0.43400729401E+02  0.00000000000E+00 0.  1.
         11    1    3    3    0    0  0.23095603955E+02  0.68318395320E+01  0.92523463859E+01  0.25800908266E+02  0.51100000000E-03 0.  1.
        -11    1    3    3    0    0  0.27371840716E+01 -0.29233367440E+01 -0.33843534372E+01  0.52432740544E+01  0.51100000000E-03 0. -1.
         12    1    3    3    0    0  0.15346111269E+02  0.44911178631E+01  0.49656554809E+01  0.16743088278E+02  0.00000000000E+00 0. -1.
</event>
<event>
 7    1  0.7357971E-011  0.4778727E+02  0.7816164E-02  0.1312668E+00
        -11   -1    0    0    0    0  0.00000000000E+00  0.00000000000E+00  0.45593999997E+02  0.45594000000E+02  0.51100000000E-03 0. -1.
         11   -1    0    0    0    0 -0.00000000000E+00 -0.00000000000E+00 -0.45593999997E+02  0.45594000000E+02  0.51100000000E-03 0.  1.
    9900012    2    1    2    0    0  0.15666305769E+02 -0.19301586975E+02 -0.35575820187E+02  0.47787269843E+02  0.19999994520E+02 0.  0.
         12    1    1    2    0    0 -0.15666305769E+02  0.19301586975E+02  0.35575820187E+02  0.43400730157E+02  0.00000000000E+00 0. -1.
         11    1    3    3    0    0  0.36465062268E+01 -0.96759665846E+01 -0.10270793475E+02  0.14574310820E+02  0.51100000000E-03 0. -1.
        -11    1    3    3    0    0  0.15039723027E+02 -0.81563919143E+01 -0.24278396491E+02  0.29701187421E+02  0.51100000000E-03 0.  1.
        -12    1    3    3    0    0 -0.30199234848E+01 -0.14692284760E+01 -0.10266302207E+01  0.35117716012E+01  0.00000000000E+00 0.  1.
</event>
<event>
 7    1  0.7357971E-011  0.4778728E+02  0.7816164E-02  0.1312668E+00
        -11   -1    0    0    0    0  0.00000000000E+00  0.00000000000E+00  0.45593999997E+02  0.45594000000E+02  0.51100000000E-03 0. -1.
         11   -1    0    0    0    0 -0.00000000000E+00 -0.00000000000E+00 -0.45593999997E+02  0.45594000000E+02  0.51100000000E-03 0.  1.
    9900012    2    1    2    0    0  0.10757893765E+02  0.63458749963E+01  0.41564653695E+02  0.47787275991E+02  0.20000022553E+02 0.  0.
        -12    1    1    2    0    0 -0.10757893765E+02 -0.63458749963E+01 -0.41564653695E+02  0.43400724009E+02  0.00000000000E+00 0.  1.
         11    1    3    3    0    0 -0.17139630357E+00 -0.45516999169E+01  0.10341508316E+02  0.11300183332E+02  0.51100000000E-03 0.  1.
        -11    1    3    3    0    0  0.87247760900E+01  0.24263457964E+01  0.21901097004E+02  0.23699513117E+02  0.51100000000E-03 0. -1.
        -12    1    3    3    0    0  0.22045139790E+01  0.84712291169E+01  0.93220483749E+01  0.12787579542E+02  0.00000000000E+00 0.  1.
</event>
<event>
 7    1  0.7357971E-011  0.4778727E+02  0.7816164E-02  0.1312668E+00
        -11   -1    0    0    0    0  0.00000000000E+00  0.00000000000E+00  0.45593999997E+02  0.45594000000E+02  0.51100000000E-03 0. -1.
         11   -1    0    0    0    0 -0.00000000000E+00 -0.00000000000E+00 -0.45593999997E+02  0.45594000000E+02  0.51100000000E-03 0.  1.
    9900012    2    1    2    0    0  0.31405665338E+02 -0.20348639723E+02  0.21982730662E+02  0.47787269577E+02  0.19999993308E+02 0.  0.
        -12    1    1    2    0    0 -0.31405665338E+02  0.20348639723E+02 -0.21982730662E+02  0.43400730423E+02  0.00000000000E+00 0.  1.
         11    1    3    3    0    0  0.78529945714E+01 -0.10738070985E+02  0.12476711651E+02  0.18238531359E+02  0.51100000000E-03 0. -1.
        -11    1    3    3    0    0  0.14885271361E+02 -0.10155552874E+02  0.21120516092E+01  0.18142968885E+02  0.51100000000E-03 0.  1.
         12    1    3    3    0    0  0.86673994050E+01  0.54498413628E+00  0.73939674017E+01  0.11405769334E+02  0.00000000000E+00 0. -1.
</event>
<event>
 7    1  0.7357971E-011  0.4778727E+02  0.7816164E-02  0.1312668E+00
        -11   -1    0    0    0    0  0.00000000000E+00  0.00000000000E+00  0.45593999997E+02  0.45594000000E+02  0.51100000000E-03 0. -1.
         11   -1    0    0    0    0 -0.00000000000E+00 -0.00000000000E+00 -0.45593999997E+02  0.45594000000E+02  0.51100000000E-03 0.  1.
    9900012    2    1    2    0    0 -0.52164150457E+01 -0.35585996863E+02  0.24290924459E+02  0.47787272244E+02  0.20000005468E+02 0.  0.
        -12    1    1    2    0    0  0.52164150457E+01  0.35585996863E+02 -0.24290924459E+02  0.43400727756E+02  0.00000000000E+00 0.  1.
         11    1    3    3    0    0  0.22795947646E+01 -0.17312488082E+02  0.12579430038E+02  0.21521172278E+02  0.51100000000E-03 0. -1.
        -11    1    3    3    0    0  0.10501738394E+01 -0.13257611400E+02  0.46126662113E+01  0.14076356594E+02  0.51100000000E-03 0.  1.
        -12    1    3    3    0    0 -0.85461836497E+01 -0.50158973817E+01  0.70988282101E+01  0.12189743372E+02  0.00000000000E+00 0.  1.
</event>
<event>
 7    1  0.7357971E-011  0.4778728E+02  0.7816164E-02  0.1312668E+00
        -11   -1    0    0    0    0  0.00000000000E+00  0.00000000000E+00  0.45593999997E+02  0.45594000000E+02  0.51100000000E-03 0. -1.
         11   -1    0    0    0    0 -0.00000000000E+00 -0.00000000000E+00 -0.45593999997E+02  0.45594000000E+02  0.51100000000E-03 0.  1.
    9900012    2    1    2    0    0 -0.11820913779E+02 -0.36897259487E+02 -0.19557125685E+02  0.47787275060E+02  0.20000018310E+02 0.  0.
         12    1    1    2    0    0  0.11820913779E+02  0.36897259487E+02  0.19557125685E+02  0.43400724940E+02  0.00000000000E+00 0. -1.
         11    1    3    3    0    0 -0.30057359108E-01 -0.28376269620E+02 -0.13626943402E+02  0.31478677986E+02  0.51100000000E-03 0. -1.
        -11    1    3    3    0    0 -0.97171948939E+01 -0.67249163499E+01 -0.65285474624E+01  0.13500752155E+02  0.51100000000E-03 0.  1.
         12    1    3    3    0    0 -0.20736615260E+01 -0.17960735173E+01  0.59836517956E+00  0.28078449195E+01  0.00000000000E+00 0. -1.
</event>
<event>
 7    1  0.7357971E-011  0.4778727E+02  0.7816164E-02  0.1312668E+00
        -11   -1    0    0    0    0  0.00000000000E+00  0.00000000000E+00  0.45593999997E+02  0.45594000000E+02  0.51100000000E-03 0. -1.
         11   -1    0    0    0    0 -0.00000000000E+00 -0.00000000000E+00 -0.45593999997E+02  0.45594000000E+02  0.51100000000E-03 0.  1.
    9900012    2    1    2    0    0 -0.36466527408E+02  0.25417208918E+01 -0.23395622471E+02  0.47787272850E+02  0.20000008234E+02 0.  0.
         12    1    1    2    0    0  0.36466527408E+02 -0.25417208918E+01  0.23395622471E+02  0.43400727150E+02  0.00000000000E+00 0. -1.
         11    1    3    3    0    0 -0.26853184231E+01 -0.31889382965E+01 -0.67520984257E+01  0.79354329374E+01  0.51100000000E-03 0. -1.
        -11    1    3    3    0    0 -0.33695401408E+02  0.40576320110E+01 -0.13980180021E+02  0.36705447651E+02  0.51100000000E-03 0.  1.
        -12    1    3    3    0    0 -0.85807577321E-01  0.16730271773E+01 -0.26633440239E+01  0.31463922619E+01  0.00000000000E+00 0.  1.
</event>
<event>
 7    1  0.7357971E-011  0.4778727E+02  0.7816164E-02  0.1312668E+00
        -11   -1    0    0    0    0  0.00000000000E+00  0.00000000000E+00  0.45593999997E+02  0.45594000000E+02  0.51100000000E-03 0. -1.
         11   -1    0    0    0    0 -0.00000000000E+00 -0.00000000000E+00 -0.45593999997E+02  0.45594000000E+02  0.51100000000E-03 0.  1.
    9900012    2    1    2    0    0 -0.37209181728E+02 -0.21451952292E+02  0.62380853415E+01  0.47787272233E+02  0.20000005420E+02 0.  0.
        -12    1    1    2    0    0  0.37209181728E+02  0.21451952292E+02 -0.62380853415E+01  0.43400727767E+02  0.00000000000E+00 0.  1.
         11    1    3    3    0    0 -0.17098002644E+01 -0.29515457390E+01 -0.41390107144E+01  0.53634363191E+01  0.51100000000E-03 0. -1.
        -11    1    3    3    0    0 -0.33199345141E+02 -0.16904513483E+02  0.12058511049E+02  0.39158227525E+02  0.51100000000E-03 0.  1.
        -12    1    3    3    0    0 -0.23000363223E+01 -0.15958930694E+01 -0.16814149932E+01  0.32656083893E+01  0.00000000000E+00 0.  1.
</event>
<event>
 7    1  0.7357971E-011  0.4778727E+02  0.7816164E-02  0.1312668E+00
        -11   -1    0    0    0    0  0.00000000000E+00  0.00000000000E+00  0.45593999997E+02  0.45594000000E+02  0.51100000000E-03 0. -1.
         11   -1    0    0    0    0 -0.00000000000E+00 -0.00000000000E+00 -0.45593999997E+02  0.45594000000E+02  0.51100000000E-03 0.  1.
    9900012    2    1    2    0    0  0.31197956934E+02  0.11445584788E+02 -0.27916108317E+02  0.47787273836E+02  0.20000012729E+02 0.  0.
         12    1    1    2    0    0 -0.31197956934E+02 -0.11445584788E+02  0.27916108317E+02  0.43400726164E+02  0.00000000000E+00 0. -1.
         11    1    3    3    0    0  0.61169407578E+01  0.45745267575E+01 -0.96095354012E+00  0.76984862965E+01  0.51100000000E-03 0. -1.
        -11    1    3    3    0    0  0.26501277302E+02  0.54943931007E+01 -0.22433705750E+02  0.35153622973E+02  0.51100000000E-03 0.  1.
        -12    1    3    3    0    0 -0.14202611264E+01  0.13766649299E+01 -0.45214490274E+01  0.49351645670E+01  0.00000000000E+00 0.  1.
</event>
<event>
 7    1  0.7357971E-011  0.4778727E+02  0.7816164E-02  0.1312668E+00
        -11   -1    0    0    0    0  0.00000000000E+00  0.00000000000E+00  0.45593999997E+02  0.45594000000E+02  0.51100000000E-03 0. -1.
         11   -1    0    0    0    0 -0.00000000000E+00 -0.00000000000E+00 -0.45593999997E+02  0.45594000000E+02  0.51100000000E-03 0.  1.
    9900012    2    1    2    0    0  0.38163352909E+01 -0.43148772242E+02  0.26911551006E+01  0.47787271010E+02  0.19999999843E+02 0.  0.
         12    1    1    2    0    0 -0.38163352909E+01  0.43148772242E+02 -0.26911551006E+01  0.43400728990E+02  0.00000000000E+00 0. -1.
         11    1    3    3    0    0 -0.81876056477E+00 -0.13232455435E+02 -0.44791643816E+01  0.13993968684E+02  0.51100000000E-03 0. -1.
        -11    1    3    3    0    0  0.12282600028E+01  0.55667650192E+00  0.24121069151E+01  0.27634708960E+01  0.51100000000E-03 0.  1.
        -12    1    3    3    0    0  0.34068358529E+01 -0.30472993309E+02  0.47582125671E+01  0.31029831430E+02  0.00000000000E+00 0.  1.
</event>
<event>
 7    1  0.7357971E-011  0.4778728E+02  0.7816164E-02  0.1312668E+00
        -11   -1    0    0    0    0  0.00000000000E+00  0.00000000000E+00  0.45593999997E+02  0.45594000000E+02  0.51100000000E-03 0. -1.
         11   -1    0    0    0    0 -0.00000000000E+00 -0.00000000000E+00 -0.45593999997E+02  0.45594000000E+02  0.51100000000E-03 0.  1.
    9900012    2    1    2    0    0 -0.11097279926E+02  0.41641925473E+02 -0.51402959963E+01  0.47787283165E+02  0.20000055262E+02 0.  0.
         12    1    1    2    0    0  0.11097279926E+02 -0.41641925473E+02  0.51402959963E+01  0.43400716835E+02  0.00000000000E+00 0. -1.
         11    1    3    3    0    0 -0.15812337032E+01  0.44599910185E+01  0.34670875166E+01  0.58662182041E+01  0.51100000000E-03 0. -1.
        -11    1    3    3    0    0  0.27556101465E+01  0.16374125719E+02 -0.11718900252E+01  0.16645681327E+02  0.51100000000E-03 0.  1.
        -12    1    3    3    0    0 -0.12271656369E+02  0.20807808735E+02 -0.74354934878E+01  0.25275383634E+02  0.00000000000E+00 0.  1.
</event>
<event>
 7    1  0.7357971E-011  0.4778727E+02  0.7816164E-02  0.1312668E+00
        -11   -1    0    0    0    0  0.00000000000E+00  0.00000000000E+00  0.45593999997E+02  0.45594000000E+02  0.51100000000E-03 0. -1.
         11   -1    0    0    0    0 -0.00000000000E+00 -0.00000000000E+00 -0.45593999997E+02  0.45594000000E+02  0.51100000000E-03 0.  1.
    9900012    2    1    2    0    0  0.23299697158E+02 -0.19453445216E+02  0.31021133579E+02  0.47787272507E+02  0.20000006666E+02 0.  0.
        -12    1    1    2    0    0 -0.23299697158E+02  0.19453445216E+02 -0.31021133579E+02  0.43400727493E+02  0.00000000000E+00 0.  1.
         11    1    3    3    0    0  0.17227599250E+02 -0.28880681044E+01  0.11429985364E+02  0.20875240812E+02  0.51100000000E-03 0.  1.
        -11    1    3    3    0    0  0.12445854622E+01 -0.10963778264E+02  0.11079058677E+02  0.15636462778E+02  0.51100000000E-03 0. -1.
        -12    1    3    3    0    0  0.48275124456E+01 -0.56015988475E+01  0.85120895390E+01  0.11275568916E+02  0.00000000000E+00 0.  1.
</event>
<event>
 7    1  0.7357971E-011  0.4778728E+02  0.7816164E-02  0.1312668E+00
        -11   -1    0    0    0    0  0.00000000000E+00  0.00000000000E+00  0.45593999997E+02  0.45594000000E+02  0.51100000000E-03 0. -1.
         11   -1    0    0    0    0 -0.00000000000E+00 -0.00000000000E+00 -0.45593999997E+02  0.45594000000E+02  0.51100000000E-03 0.  1.
    9900012    2    1    2    0    0  0.27541648596E+02  0.30569409510E+02  0.13805492172E+02  0.47787276282E+02  0.20000023878E+02 0.  0.
        -12    1    1    2    0    0 -0.27541648596E+02 -0.30569409510E+02 -0.13805492172E+02  0.43400723718E+02  0.00000000000E+00 0.  1.
         11    1    3    3    0    0  0.15230592523E+02  0.14968881720E+02  0.60476430800E+01  0.22194872282E+02  0.51100000000E-03 0. -1.
        -11    1    3    3    0    0  0.28734558452E+01  0.14371595336E+02  0.63461041407E+01  0.15970990546E+02  0.51100000000E-03 0.  1.
        -12    1    3    3    0    0  0.94376002278E+01  0.12289324545E+01  0.14117449511E+01  0.96214134536E+01  0.00000000000E+00 0.  1.
</event>
<event>
 7    1  0.7357971E-011  0.4778727E+02  0.7816164E-02  0.1312668E+00
        -11   -1    0    0    0    0  0.00000000000E+00  0.00000000000E+00  0.45593999997E+02  0.45594000000E+02  0.51100000000E-03 0. -1.
         11   -1    0    0    0    0 -0.00000000000E+00 -0.00000000000E+00 -0.45593999997E+02  0.45594000000E+02  0.51100000000E-03 0.  1.
    9900012    2    1    2    0    0 -0.14519815249E+02  0.34099713661E+02 -0.22583361165E+02  0.47787266042E+02  0.19999977192E+02 0.  0.
         12    1    1    2    0    0  0.14519815249E+02 -0.34099713661E+02  0.22583361165E+02  0.43400733958E+02  0.00000000000E+00 0. -1.
         11    1    3    3    0    0 -0.65316549094E+01  0.11830315357E+02  0.10308047782E+00  0.13514048363E+02  0.51100000000E-03 0. -1.
        -11    1    3    3    0    0 -0.74248582252E+01  0.82034428312E+01 -0.65443145768E+01  0.12855078665E+02  0.51100000000E-03 0.  1.
         12    1    3    3    0    0 -0.56330211472E+00  0.14065955472E+02 -0.16142127066E+02  0.21418139014E+02  0.00000000000E+00 0. -1.
</event>
<event>
 7    1  0.7357971E-011  0.4778727E+02  0.7816164E-02  0.1312668E+00
        -11   -1    0    0    0    0  0.00000000000E+00  0.00000000000E+00  0.45593999997E+02  0.45594000000E+02  0.51100000000E-03 0.  1.
         11   -1    0    0    0    0 -0.00000000000E+00 -0.00000000000E+00 -0.45593999997E+02  0.45594000000E+02  0.51100000000E-03 0. -1.
    9900012    2    1    2    0    0  0.87289431723E+01 -0.42343045878E+02  0.38072991974E+01  0.47787268321E+02  0.19999987582E+02 0.  0.
         12    1    1    2    0    0 -0.87289431723E+01  0.42343045878E+02 -0.38072991974E+01  0.43400731679E+02  0.00000000000E+00 0. -1.
         11    1    3    3    0    0 -0.17633953355E+01 -0.34423148894E+01  0.40323572812E+01  0.55873965684E+01  0.51100000000E-03 0. -1.
        -11    1    3    3    0    0  0.61509894302E+01 -0.32770875259E+02  0.39990961147E+01  0.33582103958E+02  0.51100000000E-03 0.  1.
         12    1    3    3    0    0  0.43413490776E+01 -0.61298557291E+01 -0.42241541986E+01  0.86177677948E+01  0.00000000000E+00 0. -1.
</event>
<event>
 7    1  0.7357971E-011  0.4778727E+02  0.7816164E-02  0.1312668E+00
        -11   -1    0    0    0    0  0.00000000000E+00  0.00000000000E+00  0.45593999997E+02  0.45594000000E+02  0.51100000000E-03 0. -1.
         11   -1    0    0    0    0 -0.00000000000E+00 -0.00000000000E+00 -0.45593999997E+02  0.45594000000E+02  0.51100000000E-03 0.  1.
    9900012    2    1    2    0    0 -0.49296682224E+01  0.25326730021E+02  0.34898112884E+02  0.47787272296E+02  0.20000005708E+02 0.  0.
        -12    1    1    2    0    0  0.49296682224E+01 -0.25326730021E+02 -0.34898112884E+02  0.43400727704E+02  0.00000000000E+00 0.  1.
         11    1    3    3    0    0  0.22684012039E+01  0.13072002501E+02  0.12454908668E+02  0.18197462559E+02  0.51100000000E-03 0. -1.
        -11    1    3    3    0    0 -0.87798721111E+01  0.62884679547E+01  0.20410121800E+02  0.23091211654E+02  0.51100000000E-03 0.  1.
        -12    1    3    3    0    0  0.15818026848E+01  0.59662595653E+01  0.20330824161E+01  0.64985980830E+01  0.00000000000E+00 0.  1.
</event>
<event>
 7    1  0.7357971E-011  0.4778728E+02  0.7816164E-02  0.1312668E+00
        -11   -1    0    0    0    0  0.00000000000E+00  0.00000000000E+00  0.45593999997E+02  0.45594000000E+02  0.51100000000E-03 0. -1.
         11   -1    0    0    0    0 -0.00000000000E+00 -0.00000000000E+00 -0.45593999997E+02  0.45594000000E+02  0.51100000000E-03 0.  1.
    9900012    2    1    2    0    0  0.22113343207E+02  0.19620222629E+02  0.31775302283E+02  0.47787275133E+02  0.20000018641E+02 0.  0.
        -12    1    1    2    0    0 -0.22113343207E+02 -0.19620222629E+02 -0.31775302283E+02  0.43400724867E+02  0.00000000000E+00 0.  1.
         11    1    3    3    0    0  0.45852062915E+01  0.73083922503E+01  0.46114142772E+01  0.97827325384E+01  0.51100000000E-03 0. -1.
        -11    1    3    3    0    0  0.16415949581E+02  0.15541787105E+02  0.25860755807E+02  0.34348351318E+02  0.51100000000E-03 0.  1.
        -12    1    3    3    0    0  0.11121873348E+01 -0.32299567268E+01  0.13031321986E+01  0.36561912767E+01  0.00000000000E+00 0.  1.
</event>
<event>
 7    1  0.7357971E-011  0.4778727E+02  0.7816164E-02  0.1312668E+00
        -11   -1    0    0    0    0  0.00000000000E+00  0.00000000000E+00  0.45593999997E+02  0.45594000000E+02  0.51100000000E-03 0. -1.
         11   -1    0    0    0    0 -0.00000000000E+00 -0.00000000000E+00 -0.45593999997E+02  0.45594000000E+02  0.51100000000E-03 0.  1.
    9900012    2    1    2    0    0 -0.16004726006E+02  0.10758165109E+02  0.38881021250E+02  0.47787272075E+02  0.20000004697E+02 0.  0.
        -12    1    1    2    0    0  0.16004726006E+02 -0.10758165109E+02 -0.38881021250E+02  0.43400727925E+02  0.00000000000E+00 0.  1.
         11    1    3    3    0    0 -0.87143427902E+00 -0.42783972568E+01  0.12712294742E+02  0.13441224596E+02  0.51100000000E-03 0. -1.
        -11    1    3    3    0    0 -0.41962544741E+01  0.76804647859E+01  0.77052758791E+01  0.11660590361E+02  0.51100000000E-03 0.  1.
         12    1    3    3    0    0 -0.10937037253E+02  0.73560975798E+01  0.18463450629E+02  0.22685457117E+02  0.00000000000E+00 0. -1.
</event>
<event>
 7    1  0.7357971E-011  0.4778727E+02  0.7816164E-02  0.1312668E+00
        -11   -1    0    0    0    0  0.00000000000E+00  0.00000000000E+00  0.45593999997E+02  0.45594000000E+02  0.51100000000E-03 0. -1.
         11   -1    0    0    0    0 -0.00000000000E+00 -0.00000000000E+00 -0.45593999997E+02  0.45594000000E+02  0.51100000000E-03 0.  1.
    9900012    2    1    2    0    0  0.25606613030E+02 -0.36891165578E+01  0.34847023682E+02  0.47787271073E+02  0.20000000132E+02 0.  0.
        -12    1    1    2    0    0 -0.25606613030E+02  0.36891165578E+01 -0.34847023682E+02  0.43400728927E+02  0.00000000000E+00 0.  1.
         11    1    3    3    0    0  0.76039682081E+01 -0.82224463480E+01  0.22287235298E+02  0.24942931142E+02  0.51100000000E-03 0. -1.
        -11    1    3    3    0    0  0.82063399624E+01  0.39995464396E+01  0.46677926416E+01  0.10253227575E+02  0.51100000000E-03 0.  1.
         12    1    3    3    0    0  0.97963048595E+01  0.53378335056E+00  0.78919957424E+01  0.12591112356E+02  0.00000000000E+00 0. -1.
</event>
<event>
 7    1  0.7357971E-011  0.4778727E+02  0.7816164E-02  0.1312668E+00
        -11   -1    0    0    0    0  0.00000000000E+00  0.00000000000E+00  0.45593999997E+02  0.45594000000E+02  0.51100000000E-03 0. -1.
         11   -1    0    0    0    0 -0.00000000000E+00 -0.00000000000E+00 -0.45593999997E+02  0.45594000000E+02  0.51100000000E-03 0.  1.
    9900012    2    1    2    0    0  0.28394155704E+02 -0.17618826834E+02  0.27694263442E+02  0.47787269998E+02  0.19999995228E+02 0.  0.
        -12    1    1    2    0    0 -0.28394155704E+02  0.17618826834E+02 -0.27694263442E+02  0.43400730002E+02  0.00000000000E+00 0.  1.
         11    1    3    3    0    0  0.11020002890E+02 -0.88402598677E+01  0.13931317850E+01  0.14196178171E+02  0.51100000000E-03 0. -1.
        -11    1    3    3    0    0  0.23816939245E+01 -0.22718336812E+01  0.99176716858E+01  0.10449588803E+02  0.51100000000E-03 0.  1.
         12    1    3    3    0    0  0.14992458890E+02 -0.65067332846E+01  0.16383459971E+02  0.23141503024E+02  0.00000000000E+00 0. -1.
</event>
<event>
 7    1  0.7357971E-011  0.4778727E+02  0.7816164E-02  0.1312668E+00
        -11   -1    0    0    0    0  0.00000000000E+00  0.00000000000E+00  0.45593999997E+02  0.45594000000E+02  0.51100000000E-03 0.  1.
         11   -1    0    0    0    0 -0.00000000000E+00 -0.00000000000E+00 -0.45593999997E+02  0.45594000000E+02  0.51100000000E-03 0. -1.
    9900012    2    1    2    0    0  0.36146888247E+02  0.92747281991E+01 -0.22158635939E+02  0.47787271207E+02  0.20000000739E+02 0.  0.
         12    1    1    2    0    0 -0.36146888247E+02 -0.92747281991E+01  0.22158635939E+02  0.43400728793E+02  0.00000000000E+00 0. -1.
         11    1    3    3    0    0  0.99112326400E-01  0.41541205772E+01 -0.62535239720E+01  0.75082024049E+01  0.51100000000E-03 0. -1.
        -11    1    3    3    0    0  0.25002259937E+02  0.95157310472E+00 -0.12628363358E+02  0.28026666849E+02  0.51100000000E-03 0.  1.
         12    1    3    3    0    0  0.11045515984E+02  0.41690345172E+01 -0.32767486095E+01  0.12252401953E+02  0.00000000000E+00 0. -1.
</event>
<event>
 7    1  0.7357971E-011  0.4778724E+02  0.7816164E-02  0.1312668E+00
        -11   -1    0    0    0    0  0.00000000000E+00  0.00000000000E+00  0.45593999997E+02  0.45594000000E+02  0.51100000000E-03 0. -1.
         11   -1    0    0    0    0 -0.00000000000E+00 -0.00000000000E+00 -0.45593999997E+02  0.45594000000E+02  0.51100000000E-03 0.  1.
    9900012    2    1    2    0    0  0.20246560999E+02  0.32085338701E+02 -0.21076856450E+02  0.47787238836E+02  0.19999853147E+02 0.  0.
         12    1    1    2    0    0 -0.20246560999E+02 -0.32085338701E+02  0.21076856450E+02  0.43400761164E+02  0.00000000000E+00 0. -1.
         11    1    3    3    0    0  0.99085121608E+01  0.52662481182E+01 -0.12910971205E+02  0.17105705487E+02  0.51100000000E-03 0. -1.
        -11    1    3    3    0    0  0.44364985929E+01  0.17315918376E+02 -0.77619018251E+01  0.19487705590E+02  0.51100000000E-03 0.  1.
         12    1    3    3    0    0  0.59015502450E+01  0.95031722068E+01 -0.40398341945E+00  0.11193827759E+02  0.00000000000E+00 0. -1.
</event>
<event>
 7    1  0.7357971E-011  0.4778728E+02  0.7816164E-02  0.1312668E+00
        -11   -1    0    0    0    0  0.00000000000E+00  0.00000000000E+00  0.45593999997E+02  0.45594000000E+02  0.51100000000E-03 0. -1.
         11   -1    0    0    0    0 -0.00000000000E+00 -0.00000000000E+00 -0.45593999997E+02  0.45594000000E+02  0.51100000000E-03 0.  1.
    9900012    2    1    2    0    0  0.69038385030E+01  0.42293621323E+02  0.68709121626E+01  0.47787276220E+02  0.20000023599E+02 0.  0.
        -12    1    1    2    0    0 -0.69038385030E+01 -0.42293621323E+02 -0.68709121626E+01  0.43400723780E+02  0.00000000000E+00 0.  1.
         11    1    3    3    0    0  0.99412385575E+01  0.18822210711E+02  0.25419192554E+01  0.21437471723E+02  0.51100000000E-03 0. -1.
        -11    1    3    3    0    0 -0.51356502066E+01  0.83352809808E+01  0.51202221333E+01  0.11048460844E+02  0.51100000000E-03 0.  1.
        -12    1    3    3    0    0  0.20982501520E+01  0.15136129631E+02 -0.79122922607E+00  0.15301343653E+02  0.00000000000E+00 0.  1.
</event>
<event>
 7    1  0.7357971E-011  0.4778727E+02  0.7816164E-02  0.1312668E+00
        -11   -1    0    0    0    0  0.00000000000E+00  0.00000000000E+00  0.45593999997E+02  0.45594000000E+02  0.51100000000E-03 0. -1.
         11   -1    0    0    0    0 -0.00000000000E+00 -0.00000000000E+00 -0.45593999997E+02  0.45594000000E+02  0.51100000000E-03 0.  1.
    9900012    2    1    2    0    0  0.31705215653E+02 -0.13611140149E+01  0.29606587585E+02  0.47787270059E+02  0.19999995508E+02 0.  0.
        -12    1    1    2    0    0 -0.31705215653E+02  0.13611140149E+01 -0.29606587585E+02  0.43400729941E+02  0.00000000000E+00 0.  1.
         11    1    3    3    0    0  0.22111338306E+02  0.11734546889E+01  0.12509951429E+02  0.25432010589E+02  0.51100000000E-03 0. -1.
        -11    1    3    3    0    0  0.65428682847E+01  0.35575204235E+01  0.73529810359E+01  0.10465725361E+02  0.51100000000E-03 0.  1.
         12    1    3    3    0    0  0.30510090623E+01 -0.60920891274E+01  0.97436551207E+01  0.11889534110E+02  0.00000000000E+00 0. -1.
</event>
<event>
 7    1  0.7357971E-011  0.4778727E+02  0.7816164E-02  0.1312668E+00
        -11   -1    0    0    0    0  0.00000000000E+00  0.00000000000E+00  0.45593999997E+02  0.45594000000E+02  0.51100000000E-03 0. -1.
         11   -1    0    0    0    0 -0.00000000000E+00 -0.00000000000E+00 -0.45593999997E+02  0.45594000000E+02  0.51100000000E-03 0.  1.
    9900012    2    1    2    0    0 -0.32604101088E+02 -0.26602427614E+02 -0.10625756622E+02  0.47787271130E+02  0.20000000388E+02 0.  0.
         12    1    1    2    0    0  0.32604101088E+02  0.26602427614E+02  0.10625756622E+02  0.43400728870E+02  0.00000000000E+00 0. -1.
         11    1    3    3    0    0  0.53863557524E+00 -0.17051213518E+01  0.28730538111E+01  0.33840812003E+01  0.51100000000E-03 0. -1.
        -11    1    3    3    0    0 -0.17796559753E+02 -0.90765091573E+01 -0.38608732789E+01  0.20347159513E+02  0.51100000000E-03 0.  1.
         12    1    3    3    0    0 -0.15346176910E+02 -0.15820797105E+02 -0.96379371539E+01  0.24056030416E+02  0.00000000000E+00 0. -1.
</event>
<event>
 7    1  0.7357971E-011  0.4778726E+02  0.7816164E-02  0.1312668E+00
        -11   -1    0    0    0    0  0.00000000000E+00  0.00000000000E+00  0.45593999997E+02  0.45594000000E+02  0.51100000000E-03 0. -1.
         11   -1    0    0    0    0 -0.00000000000E+00 -0.00000000000E+00 -0.45593999997E+02  0.45594000000E+02  0.51100000000E-03 0.  1.
    9900012    2    1    2    0    0  0.69612293231E+01  0.39656603296E+02 -0.16202445610E+02  0.47787261039E+02  0.19999954380E+02 0.  0.
         12    1    1    2    0    0 -0.69612293231E+01 -0.39656603296E+02  0.16202445610E+02  0.43400738961E+02  0.00000000000E+00 0. -1.
         11    1    3    3    0    0  0.10593225493E+01  0.19260492049E+02 -0.38865638168E+00  0.19293516328E+02  0.51100000000E-03 0. -1.
        -11    1    3    3    0    0 -0.11414840566E+01  0.55862289296E+01 -0.91733261069E+01  0.10800872725E+02  0.51100000000E-03 0.  1.
        -12    1    3    3    0    0  0.70433908304E+01  0.14809882317E+02 -0.66404631219E+01  0.17692871985E+02  0.00000000000E+00 0.  1.
</event>
<event>
 7    1  0.7357971E-011  0.4778729E+02  0.7816164E-02  0.1312668E+00
        -11   -1    0    0    0    0  0.00000000000E+00  0.00000000000E+00  0.45593999997E+02  0.45594000000E+02  0.51100000000E-03 0. -1.
         11   -1    0    0    0    0 -0.00000000000E+00 -0.00000000000E+00 -0.45593999997E+02  0.45594000000E+02  0.51100000000E-03 0.  1.
    9900012    2    1    2    0    0 -0.64703133413E+01  0.32715345309E+02  0.27775217326E+02  0.47787291815E+02  0.20000094703E+02 0.  0.
        -12    1    1    2    0    0  0.64703133413E+01 -0.32715345309E+02 -0.27775217326E+02  0.43400708185E+02  0.00000000000E+00 0.  1.
         11    1    3    3    0    0  0.25142495468E+01  0.81360740992E+01  0.15657778234E+02  0.17823668871E+02  0.51100000000E-03 0. -1.
        -11    1    3    3    0    0 -0.46400970648E+01  0.21044786947E+02  0.78999542699E+01  0.22952621552E+02  0.51100000000E-03 0.  1.
         12    1    3    3    0    0 -0.43444658233E+01  0.35344842635E+01  0.42174848221E+01  0.70110013924E+01  0.00000000000E+00 0. -1.
</event>
<event>
 7    1  0.7357971E-011  0.4778727E+02  0.7816164E-02  0.1312668E+00
        -11   -1    0    0    0    0  0.00000000000E+00  0.00000000000E+00  0.45593999997E+02  0.45594000000E+02  0.51100000000E-03 0. -1.
         11   -1    0    0    0    0 -0.00000000000E+00 -0.00000000000E+00 -0.45593999997E+02  0.45594000000E+02  0.51100000000E-03 0.  1.
    9900012    2    1    2    0    0 -0.37356608874E+00 -0.20660958536E+02 -0.38165540222E+02  0.47787271669E+02  0.20000002848E+02 0.  0.
         12    1    1    2    0    0  0.37356608874E+00  0.20660958536E+02  0.38165540222E+02  0.43400728331E+02  0.00000000000E+00 0. -1.
         11    1    3    3    0    0  0.11728566787E+01  0.33559102317E+01 -0.57163724009E+01  0.67316149592E+01  0.51100000000E-03 0. -1.
        -11    1    3    3    0    0 -0.84630496078E+00 -0.24339640518E+02 -0.31749495657E+02  0.40014557444E+02  0.51100000000E-03 0.  1.
        -12    1    3    3    0    0 -0.70011780665E+00  0.32277175071E+00 -0.69967216334E+00  0.10410992664E+01  0.00000000000E+00 0.  1.
</event>
<event>
 7    1  0.7954795E-011  0.4778727E+02  0.7816164E-02  0.1312668E+00
        -11   -1    0    0    0    0  0.00000000000E+00  0.00000000000E+00  0.45593999997E+02  0.45594000000E+02  0.51100000000E-03 0. -1.
         11   -1    0    0    0    0 -0.00000000000E+00 -0.00000000000E+00 -0.45593999997E+02  0.45594000000E+02  0.51100000000E-03 0.  1.
    9900012    2    1    2    0    0  0.20856290146E+02  0.22638132491E+01 -0.37993598494E+02  0.47787271716E+02  0.20000003061E+02 0.  0.
         12    1    1    2    0    0 -0.20856290146E+02 -0.22638132491E+01  0.37993598494E+02  0.43400728284E+02  0.00000000000E+00 0. -1.
         11    1    3    3    0    0  0.71695434138E+01  0.31821629766E+01 -0.34601700352E+01  0.85732893866E+01  0.51100000000E-03 0. -1.
        -11    1    3    3    0    0  0.13797886860E+02 -0.31709573811E+01 -0.34093447778E+02  0.36916118894E+02  0.51100000000E-03 0.  1.
        -12    1    3    3    0    0 -0.11114012746E+00  0.22526076536E+01 -0.43998068049E+00  0.22978634355E+01  0.00000000000E+00 0.  1.
</event>
<event>
 7    1  0.7357971E-011  0.4778727E+02  0.7816164E-02  0.1312668E+00
        -11   -1    0    0    0    0  0.00000000000E+00  0.00000000000E+00  0.45593999997E+02  0.45594000000E+02  0.51100000000E-03 0.  1.
         11   -1    0    0    0    0 -0.00000000000E+00 -0.00000000000E+00 -0.45593999997E+02  0.45594000000E+02  0.51100000000E-03 0. -1.
    9900012    2    1    2    0    0 -0.43307784179E+02 -0.20101998783E+01  0.20045776238E+01  0.47787269529E+02  0.19999993088E+02 0.  0.
         12    1    1    2    0    0  0.43307784179E+02  0.20101998783E+01 -0.20045776238E+01  0.43400730471E+02  0.00000000000E+00 0. -1.
         11    1    3    3    0    0 -0.27913785689E+02 -0.29066293754E+01 -0.50427871379E+01  0.28514165396E+02  0.51100000000E-03 0. -1.
        -11    1    3    3    0    0 -0.15435251025E+02  0.11142572434E+01  0.36910907123E+01  0.15909515842E+02  0.51100000000E-03 0.  1.
         12    1    3    3    0    0  0.41252535635E-01 -0.21782774635E+00  0.33562740494E+01  0.33635882913E+01  0.00000000000E+00 0. -1.
</event>
<event>
 7    1  0.7357971E-011  0.4778727E+02  0.7816164E-02  0.1312668E+00
        -11   -1    0    0    0    0  0.00000000000E+00  0.00000000000E+00  0.45593999997E+02  0.45594000000E+02  0.51100000000E-03 0. -1.
         11   -1    0    0    0    0 -0.00000000000E+00 -0.00000000000E+00 -0.45593999997E+02  0.45594000000E+02  0.51100000000E-03 0.  1.
    9900012    2    1    2    0    0  0.88811966449E+01 -0.14285744545E+02  0.40008316419E+02  0.47787268050E+02  0.19999986349E+02 0.  0.
        -12    1    1    2    0    0 -0.88811966449E+01  0.14285744545E+02 -0.40008316419E+02  0.43400731950E+02  0.00000000000E+00 0.  1.
         11    1    3    3    0    0 -0.12072353887E+01 -0.16495222426E+01  0.64473028815E+01  0.67635830460E+01  0.51100000000E-03 0. -1.
        -11    1    3    3    0    0  0.37455494260E+01 -0.15103129466E+02  0.28744308103E+02  0.32685913002E+02  0.51100000000E-03 0.  1.
        -12    1    3    3    0    0  0.63428826076E+01  0.24669071631E+01  0.48167054346E+01  0.83377720027E+01  0.00000000000E+00 0.  1.
</event>
<event>
 7    1  0.7357971E-011  0.4778727E+02  0.7816164E-02  0.1312668E+00
        -11   -1    0    0    0    0  0.00000000000E+00  0.00000000000E+00  0.45593999997E+02  0.45594000000E+02  0.51100000000E-03 0. -1.
         11   -1    0    0    0    0 -0.00000000000E+00 -0.00000000000E+00 -0.45593999997E+02  0.45594000000E+02  0.51100000000E-03 0.  1.
    9900012    2    1    2    0    0 -0.21965785480E+02  0.27761471266E+02  0.25108324944E+02  0.47787274199E+02  0.20000014381E+02 0.  0.
        -12    1    1    2    0    0  0.21965785480E+02 -0.27761471266E+02 -0.25108324944E+02  0.43400725801E+02  0.00000000000E+00 0.  1.
         11    1    3    3    0    0  0.11373711825E+01  0.42151049463E+01 -0.13726186371E+00  0.43680160251E+01  0.51100000000E-03 0. -1.
        -11    1    3    3    0    0 -0.31102342600E+01  0.10207751392E+01 -0.10492845201E+01  0.34375190621E+01  0.51100000000E-03 0.  1.
         12    1    3    3    0    0 -0.19992922403E+02  0.22525591180E+02  0.26294871328E+02  0.39981739111E+02  0.00000000000E+00 0. -1.
</event>
<event>
 7    1  0.7357971E-011  0.4778727E+02  0.7816164E-02  0.1312668E+00
        -11   -1    0    0    0    0  0.00000000000E+00  0.00000000000E+00  0.45593999997E+02  0.45594000000E+02  0.51100000000E-03 0. -1.
         11   -1    0    0    0    0 -0.00000000000E+00 -0.00000000000E+00 -0.45593999997E+02  0.45594000000E+02  0.51100000000E-03 0.  1.
    9900012    2    1    2    0    0  0.25357246471E+02 -0.26281320648E+02 -0.23450488072E+02  0.47787272421E+02  0.20000006276E+02 0.  0.
         12    1    1    2    0    0 -0.25357246471E+02  0.26281320648E+02  0.23450488072E+02  0.43400727579E+02  0.00000000000E+00 0. -1.
         11    1    3    3    0    0  0.61964406049E+01 -0.16635379761E+02 -0.10072101031E+02  0.20410265931E+02  0.51100000000E-03 0. -1.
        -11    1    3    3    0    0  0.17021134032E+02 -0.87296114805E+01 -0.15190659243E+02  0.24427059766E+02  0.51100000000E-03 0.  1.
         12    1    3    3    0    0  0.21396718341E+01 -0.91632940723E+00  0.18122722014E+01  0.29499467237E+01  0.00000000000E+00 0. -1.
</event>
<event>
 7    1  0.7357971E-011  0.4778727E+02  0.7816164E-02  0.1312668E+00
        -11   -1    0    0    0    0  0.00000000000E+00  0.00000000000E+00  0.45593999997E+02  0.45594000000E+02  0.51100000000E-03 0.  1.
         11   -1    0    0    0    0 -0.00000000000E+00 -0.00000000000E+00 -0.45593999997E+02  0.45594000000E+02  0.51100000000E-03 0. -1.
    9900012    2    1    2    0    0 -0.28121085711E+02 -0.10134571266E+02  0.31466148417E+02  0.47787268525E+02  0.19999988514E+02 0.  0.
        -12    1    1    2    0    0  0.28121085711E+02  0.10134571266E+02 -0.31466148417E+02  0.43400731475E+02  0.00000000000E+00 0.  1.
         11    1    3    3    0    0 -0.12606298820E+02 -0.13964324551E+02  0.19578816034E+02  0.27152369466E+02  0.51100000000E-03 0. -1.
        -11    1    3    3    0    0 -0.92944847182E+01  0.49723009581E+01  0.72940339477E+01  0.12818508279E+02  0.51100000000E-03 0.  1.
        -12    1    3    3    0    0 -0.62203021731E+01 -0.11425476728E+01  0.45932984360E+01  0.78163907804E+01  0.00000000000E+00 0.  1.
</event>
<event>
 7    1  0.7357971E-011  0.4778727E+02  0.7816164E-02  0.1312668E+00
        -11   -1    0    0    0    0  0.00000000000E+00  0.00000000000E+00  0.45593999997E+02  0.45594000000E+02  0.51100000000E-03 0.  1.
         11   -1    0    0    0    0 -0.00000000000E+00 -0.00000000000E+00 -0.45593999997E+02  0.45594000000E+02  0.51100000000E-03 0. -1.
    9900012    2    1    2    0    0 -0.73958311053E+00 -0.41880189122E+02  0.11363355317E+02  0.47787273415E+02  0.20000010808E+02 0.  0.
         12    1    1    2    0    0  0.73958311053E+00  0.41880189122E+02 -0.11363355317E+02  0.43400726585E+02  0.00000000000E+00 0. -1.
         11    1    3    3    0    0  0.50415128735E+01 -0.51755041351E+01 -0.56162493517E+00  0.72469385216E+01  0.51100000000E-03 0. -1.
        -11    1    3    3    0    0 -0.63000635358E+01 -0.21107574960E+02  0.21648778249E+01  0.22133847779E+02  0.51100000000E-03 0.  1.
         12    1    3    3    0    0  0.51896755172E+00 -0.15597110027E+02  0.97601024276E+01  0.18406487115E+02  0.00000000000E+00 0. -1.
</event>
<event>
 7    1  0.7357971E-011  0.4778727E+02  0.7816164E-02  0.1312668E+00
        -11   -1    0    0    0    0  0.00000000000E+00  0.00000000000E+00  0.45593999997E+02  0.45594000000E+02  0.51100000000E-03 0. -1.
         11   -1    0    0    0    0 -0.00000000000E+00 -0.00000000000E+00 -0.45593999997E+02  0.45594000000E+02  0.51100000000E-03 0.  1.
    9900012    2    1    2    0    0 -0.16848187308E+02  0.13873498910E+02 -0.37513841021E+02  0.47787266645E+02  0.19999979943E+02 0.  0.
         12    1    1    2    0    0  0.16848187308E+02 -0.13873498910E+02  0.37513841021E+02  0.43400733355E+02  0.00000000000E+00 0. -1.
         11    1    3    3    0    0 -0.13686205699E+02  0.10772459500E+02 -0.14587439146E+02  0.22718967653E+02  0.51100000000E-03 0. -1.
        -11    1    3    3    0    0 -0.33976489066E+01  0.31997815996E+01 -0.23750897126E+02  0.24205117949E+02  0.51100000000E-03 0.  1.
         12    1    3    3    0    0  0.23566729797E+00 -0.98742189947E-01  0.82449525081E+00  0.86318104359E+00  0.00000000000E+00 0. -1.
</event>
<event>
 7    1  0.7357971E-011  0.4778727E+02  0.7816164E-02  0.1312668E+00
        -11   -1    0    0    0    0  0.00000000000E+00  0.00000000000E+00  0.45593999997E+02  0.45594000000E+02  0.51100000000E-03 0.  1.
         11   -1    0    0    0    0 -0.00000000000E+00 -0.00000000000E+00 -0.45593999997E+02  0.45594000000E+02  0.51100000000E-03 0. -1.
    9900012    2    1    2    0    0  0.21496805534E+02  0.31364094700E+02 -0.20923762989E+02  0.47787274866E+02  0.20000017425E+02 0.  0.
         12    1    1    2    0    0 -0.21496805534E+02 -0.31364094700E+02  0.20923762989E+02  0.43400725134E+02  0.00000000000E+00 0. -1.
         11    1    3    3    0    0 -0.31876550614E+01  0.42176738972E+01 -0.51627322962E+00  0.53119164340E+01  0.51100000000E-03 0. -1.
        -11    1    3    3    0    0  0.16383337519E+02  0.21310185691E+02 -0.16838213779E+02  0.31718499428E+02  0.51100000000E-03 0.  1.
         12    1    3    3    0    0  0.83011230762E+01  0.58362351118E+01 -0.35692759805E+01  0.10756859004E+02  0.00000000000E+00 0. -1.
</event>
<event>
 7    1  0.7357971E-011  0.4778727E+02  0.7816164E-02  0.1312668E+00
        -11   -1    0    0    0    0  0.00000000000E+00  0.00000000000E+00  0.45593999997E+02  0.45594000000E+02  0.51100000000E-03 0. -1.
         11   -1    0    0    0    0 -0.00000000000E+00 -0.00000000000E+00 -0.45593999997E+02  0.45594000000E+02  0.51100000000E-03 0.  1.
    9900012    2    1    2    0    0 -0.35647175250E+02  0.11686070438E+02  0.21825169797E+02  0.47787269795E+02  0.19999994305E+02 0.  0.
        -12    1    1    2    0    0  0.35647175250E+02 -0.11686070438E+02 -0.21825169797E+02  0.43400730205E+02  0.00000000000E+00 0.  1.
         11    1    3    3    0    0 -0.27427130362E+02  0.14100235591E+02  0.86216155185E+01  0.32021810973E+02  0.51100000000E-03 0. -1.
        -11    1    3    3    0    0 -0.72471415670E+01 -0.19307378672E+01  0.11072205543E+02  0.13373202513E+02  0.51100000000E-03 0.  1.
         12    1    3    3    0    0 -0.97290332157E+00 -0.48342728613E+00  0.21313487357E+01  0.23922563088E+01  0.00000000000E+00 0. -1.
</event>
<event>
 7    1  0.7357971E-011  0.4778730E+02  0.7816164E-02  0.1312668E+00
        -11   -1    0    0    0    0  0.00000000000E+00  0.00000000000E+00  0.45593999997E+02  0.45594000000E+02  0.51100000000E-03 0. -1.
         11   -1    0    0    0    0 -0.00000000000E+00 -0.00000000000E+00 -0.45593999997E+02  0.45594000000E+02  0.51100000000E-03 0.  1.
    9900012    2    1    2    0    0 -0.20196605690E+00  0.32734994019E+02  0.28495610885E+02  0.47787303422E+02  0.20000147622E+02 0.  0.
        -12    1    1    2    0    0  0.20196605690E+00 -0.32734994019E+02 -0.28495610885E+02  0.43400696578E+02  0.00000000000E+00 0.  1.
         11    1    3    3    0    0 -0.39937552586E+01  0.20438010309E+02  0.13949603575E+02  0.25064991255E+02  0.51100000000E-03 0. -1.
        -11    1    3    3    0    0  0.38801445135E+01 -0.10220381104E+01  0.22777958563E+01  0.46139394848E+01  0.51100000000E-03 0.  1.
        -12    1    3    3    0    0 -0.88355311823E-01  0.13319021820E+02  0.12268211454E+02  0.18108372682E+02  0.00000000000E+00 0.  1.
</event>
<event>
 7    1  0.7357971E-011  0.4778727E+02  0.7816164E-02  0.1312668E+00
        -11   -1    0    0    0    0  0.00000000000E+00  0.00000000000E+00  0.45593999997E+02  0.45594000000E+02  0.51100000000E-03 0. -1.
         11   -1    0    0    0    0 -0.00000000000E+00 -0.00000000000E+00 -0.45593999997E+02  0.45594000000E+02  0.51100000000E-03 0.  1.
    9900012    2    1    2    0    0 -0.35585737363E+01  0.25152188844E+02 -0.35189875533E+02  0.47787269699E+02  0.19999993865E+02 0.  0.
         12    1    1    2    0    0  0.35585737363E+01 -0.25152188844E+02  0.35189875533E+02  0.43400730301E+02  0.00000000000E+00 0. -1.
         11    1    3    3    0    0 -0.75470193935E+01  0.99973506222E+01 -0.15529332839E+02  0.19951558833E+02  0.51100000000E-03 0. -1.
        -11    1    3    3    0    0  0.45974591152E+01  0.14884147334E+02 -0.21112788253E+02  0.26237840999E+02  0.51100000000E-03 0.  1.
        -12    1    3    3    0    0 -0.60901345792E+00  0.27069088709E+00  0.14522455592E+01  0.15978698672E+01  0.00000000000E+00 0.  1.
</event>
<event>
 7    1  0.7357971E-011  0.4778727E+02  0.7816164E-02  0.1312668E+00
        -11   -1    0    0    0    0  0.00000000000E+00  0.00000000000E+00  0.45593999997E+02  0.45594000000E+02  0.51100000000E-03 0. -1.
         11   -1    0    0    0    0 -0.00000000000E+00 -0.00000000000E+00 -0.45593999997E+02  0.45594000000E+02  0.51100000000E-03 0.  1.
    9900012    2    1    2    0    0 -0.19530521048E+02 -0.17875725153E+02  0.34389539887E+02  0.47787271252E+02  0.20000000948E+02 0.  0.
        -12    1    1    2    0    0  0.19530521048E+02  0.17875725153E+02 -0.34389539887E+02  0.43400728748E+02  0.00000000000E+00 0.  1.
         11    1    3    3    0    0 -0.16480099449E+02 -0.14816587574E+02  0.35366885940E+02  0.41736573488E+02  0.51100000000E-03 0. -1.
        -11    1    3    3    0    0 -0.23759505385E+01 -0.44424582987E-03 -0.15903742895E+01  0.28590963259E+01  0.51100000000E-03 0.  1.
         12    1    3    3    0    0 -0.67447106053E+00 -0.30586933341E+01  0.61302823678E+00  0.31916014386E+01  0.00000000000E+00 0. -1.
</event>
<event>
 7    1  0.7357971E-011  0.4778727E+02  0.7816164E-02  0.1312668E+00
        -11   -1    0    0    0    0  0.00000000000E+00  0.00000000000E+00  0.45593999997E+02  0.45594000000E+02  0.51100000000E-03 0.  1.
         11   -1    0    0    0    0 -0.00000000000E+00 -0.00000000000E+00 -0.45593999997E+02  0.45594000000E+02  0.51100000000E-03 0. -1.
    9900012    2    1    2    0    0 -0.20054188662E+02 -0.37038404753E+02  0.10469435494E+02  0.47787274325E+02  0.20000014957E+02 0.  0.
        -12    1    1    2    0    0  0.20054188662E+02  0.37038404753E+02 -0.10469435494E+02  0.43400725675E+02  0.00000000000E+00 0.  1.
         11    1    3    3    0    0 -0.11066410850E+02 -0.17789751174E+02 -0.45451353684E+01  0.21438259064E+02  0.51100000000E-03 0. -1.
        -11    1    3    3    0    0 -0.49129535970E+01 -0.14762188750E+02  0.11454073613E+02  0.19319811912E+02  0.51100000000E-03 0.  1.
         12    1    3    3    0    0 -0.40748242151E+01 -0.44864648293E+01  0.35604972496E+01  0.70292033484E+01  0.00000000000E+00 0. -1.
</event>
<event>
 7    1  0.7357971E-011  0.4778729E+02  0.7816164E-02  0.1312668E+00
        -11   -1    0    0    0    0  0.00000000000E+00  0.00000000000E+00  0.45593999997E+02  0.45594000000E+02  0.51100000000E-03 0. -1.
         11   -1    0    0    0    0 -0.00000000000E+00 -0.00000000000E+00 -0.45593999997E+02  0.45594000000E+02  0.51100000000E-03 0.  1.
    9900012    2    1    2    0    0 -0.13468738315E+02 -0.67314311869E+01  0.40705070694E+02  0.47787287358E+02  0.20000074382E+02 0.  0.
        -12    1    1    2    0    0  0.13468738315E+02  0.67314311869E+01 -0.40705070694E+02  0.43400712642E+02  0.00000000000E+00 0.  1.
         11    1    3    3    0    0  0.38765391823E-02  0.14375042326E+01  0.79935738207E+01  0.81218012863E+01  0.51100000000E-03 0. -1.
        -11    1    3    3    0    0 -0.35738101244E+01  0.32067217897E+01  0.17883699843E+02  0.18517070605E+02  0.51100000000E-03 0.  1.
        -12    1    3    3    0    0 -0.98988047295E+01 -0.11375657209E+02  0.14827797030E+02  0.21148415467E+02  0.00000000000E+00 0.  1.
</event>
<event>
 7    1  0.7357971E-011  0.4778727E+02  0.7816164E-02  0.1312668E+00
        -11   -1    0    0    0    0  0.00000000000E+00  0.00000000000E+00  0.45593999997E+02  0.45594000000E+02  0.51100000000E-03 0. -1.
         11   -1    0    0    0    0 -0.00000000000E+00 -0.00000000000E+00 -0.45593999997E+02  0.45594000000E+02  0.51100000000E-03 0.  1.
    9900012    2    1    2    0    0 -0.22557749186E+02  0.28203265849E+02  0.24069628441E+02  0.47787271133E+02  0.20000000404E+02 0.  0.
        -12    1    1    2    0    0  0.22557749186E+02 -0.28203265849E+02 -0.24069628441E+02  0.43400728867E+02  0.00000000000E+00 0.  1.
         11    1    3    3    0    0 -0.22365818247E+01  0.86530116930E+01  0.67916469071E+01  0.11225122609E+02  0.51100000000E-03 0. -1.
        -11    1    3    3    0    0 -0.16912867118E+02  0.57560620775E+01  0.78788303906E+01  0.19525708524E+02  0.51100000000E-03 0.  1.
        -12    1    3    3    0    0 -0.34083002440E+01  0.13794192079E+02  0.93991511431E+01  0.17036440000E+02  0.00000000000E+00 0.  1.
</event>
<event>
 7    1  0.7981874E-011  0.4778727E+02  0.7816164E-02  0.1312668E+00
        -11   -1    0    0    0    0  0.00000000000E+00  0.00000000000E+00  0.45593999997E+02  0.45594000000E+02  0.51100000000E-03 0. -1.
         11   -1    0    0    0    0 -0.00000000000E+00 -0.00000000000E+00 -0.45593999997E+02  0.45594000000E+02  0.51100000000E-03 0.  1.
    9900012    2    1    2    0    0  0.16275072930E+02 -0.68748825276E+01 -0.39641913707E+02  0.47787270386E+02  0.19999996998E+02 0.  0.
         12    1    1    2    0    0 -0.16275072930E+02  0.68748825276E+01  0.39641913707E+02  0.43400729614E+02  0.00000000000E+00 0. -1.
         11    1    3    3    0    0 -0.16362773727E+01  0.18831211592E+01 -0.59175935829E+01  0.64219516515E+01  0.51100000000E-03 0. -1.
        -11    1    3    3    0    0  0.16767016898E+02 -0.22382021520E+01 -0.27457609234E+02  0.32250003250E+02  0.51100000000E-03 0.  1.
        -12    1    3    3    0    0  0.11443334052E+01 -0.65198015348E+01 -0.62667108905E+01  0.91153154845E+01  0.00000000000E+00 0.  1.
</event>
<event>
 7    1  0.7357971E-011  0.4778727E+02  0.7816164E-02  0.1312668E+00
        -11   -1    0    0    0    0  0.00000000000E+00  0.00000000000E+00  0.45593999997E+02  0.45594000000E+02  0.51100000000E-03 0. -1.
         11   -1    0    0    0    0 -0.00000000000E+00 -0.00000000000E+00 -0.45593999997E+02  0.45594000000E+02  0.51100000000E-03 0.  1.
    9900012    2    1    2    0    0 -0.18726205076E+02  0.22465691828E+02 -0.32066265141E+02  0.47787269293E+02  0.19999992013E+02 0.  0.
         12    1    1    2    0    0  0.18726205076E+02 -0.22465691828E+02  0.32066265141E+02  0.43400730707E+02  0.00000000000E+00 0. -1.
         11    1    3    3    0    0  0.59679709494E+00  0.47702125650E+01 -0.34616131820E+00  0.48198467411E+01  0.51100000000E-03 0. -1.
        -11    1    3    3    0    0 -0.17298592745E+02  0.13886060081E+02 -0.31654231732E+02  0.38652999396E+02  0.51100000000E-03 0.  1.
        -12    1    3    3    0    0 -0.20244094254E+01  0.38094191823E+01 -0.65872090514E-01  0.43144231551E+01  0.00000000000E+00 0.  1.
</event>
<event>
 7    1  0.7357971E-011  0.4778727E+02  0.7816164E-02  0.1312668E+00
        -11   -1    0    0    0    0  0.00000000000E+00  0.00000000000E+00  0.45593999997E+02  0.45594000000E+02  0.51100000000E-03 0.  1.
         11   -1    0    0    0    0 -0.00000000000E+00 -0.00000000000E+00 -0.45593999997E+02  0.45594000000E+02  0.51100000000E-03 0. -1.
    9900012    2    1    2    0    0  0.20462299452E+02  0.14451454732E+02  0.35441120559E+02  0.47787271098E+02  0.20000000245E+02 0.  0.
        -12    1    1    2    0    0 -0.20462299452E+02 -0.14451454732E+02 -0.35441120559E+02  0.43400728902E+02  0.00000000000E+00 0.  1.
         11    1    3    3    0    0 -0.14157582218E+01 -0.27095063564E+01  0.12502998261E+01  0.33028844900E+01  0.51100000000E-03 0. -1.
        -11    1    3    3    0    0  0.20223888296E+02  0.15099066783E+02  0.27688023560E+02  0.37464838508E+02  0.51100000000E-03 0.  1.
        -12    1    3    3    0    0  0.16541693781E+01  0.20618943057E+01  0.65027971725E+01  0.70195480998E+01  0.00000000000E+00 0.  1.
</event>
<event>
 7    1  0.7357971E-011  0.4778730E+02  0.7816164E-02  0.1312668E+00
        -11   -1    0    0    0    0  0.00000000000E+00  0.00000000000E+00  0.45593999997E+02  0.45594000000E+02  0.51100000000E-03 0. -1.
         11   -1    0    0    0    0 -0.00000000000E+00 -0.00000000000E+00 -0.45593999997E+02  0.45594000000E+02  0.51100000000E-03 0.  1.
    9900012    2    1    2    0    0  0.38387721838E+01  0.10934501458E+02  0.41824890937E+02  0.47787297288E+02  0.20000119656E+02 0.  0.
        -12    1    1    2    0    0 -0.38387721838E+01 -0.10934501458E+02 -0.41824890937E+02  0.43400702712E+02  0.00000000000E+00 0.  1.
         11    1    3    3    0    0  0.34435056315E+01  0.51764768072E+01  0.31232178563E+02  0.31844977959E+02  0.51100000000E-03 0. -1.
        -11    1    3    3    0    0 -0.19953647843E+01  0.10255227032E+01 -0.15268376012E+01  0.27137447851E+01  0.51100000000E-03 0.  1.
        -12    1    3    3    0    0  0.23906313365E+01  0.47325019473E+01  0.12119549975E+02  0.13228574544E+02  0.00000000000E+00 0.  1.
</event>
<event>
 7    1  0.7357971E-011  0.4778727E+02  0.7816164E-02  0.1312668E+00
        -11   -1    0    0    0    0  0.00000000000E+00  0.00000000000E+00  0.45593999997E+02  0.45594000000E+02  0.51100000000E-03 0. -1.
         11   -1    0    0    0    0 -0.00000000000E+00 -0.00000000000E+00 -0.45593999997E+02  0.45594000000E+02  0.51100000000E-03 0.  1.
    9900012    2    1    2    0    0  0.22219214978E+01 -0.32747556111E+02 -0.28395140412E+02  0.47787269990E+02  0.19999995192E+02 0.  0.
         12    1    1    2    0    0 -0.22219214978E+01  0.32747556111E+02  0.28395140412E+02  0.43400730010E+02  0.00000000000E+00 0. -1.
         11    1    3    3    0    0  0.28724933540E+01 -0.36349541629E+01 -0.87473846283E+01  0.98985275638E+01  0.51100000000E-03 0. -1.
        -11    1    3    3    0    0 -0.62148146188E+01 -0.67154930344E+01 -0.38804185594E+01  0.99387834215E+01  0.51100000000E-03 0.  1.
        -12    1    3    3    0    0  0.55642427626E+01 -0.22397108914E+02 -0.15767337224E+02  0.27949959005E+02  0.00000000000E+00 0.  1.
</event>
<event>
 7    1  0.7357971E-011  0.4778726E+02  0.7816164E-02  0.1312668E+00
        -11   -1    0    0    0    0  0.00000000000E+00  0.00000000000E+00  0.45593999997E+02  0.45594000000E+02  0.51100000000E-03 0. -1.
         11   -1    0    0    0    0 -0.00000000000E+00 -0.00000000000E+00 -0.45593999997E+02  0.45594000000E+02  0.51100000000E-03 0.  1.
    9900012    2    1    2    0    0 -0.18471055434E+02 -0.30333231914E+02  0.24946727064E+02  0.47787262237E+02  0.19999959842E+02 0.  0.
        -12    1    1    2    0    0  0.18471055434E+02  0.30333231914E+02 -0.24946727064E+02  0.43400737763E+02  0.00000000000E+00 0.  1.
         11    1    3    3    0    0  0.27030926864E+01 -0.98425372946E+00  0.51906530230E+01  0.59345045742E+01  0.51100000000E-03 0. -1.
        -11    1    3    3    0    0 -0.10999806512E+02 -0.19526606072E+02  0.92979536586E+01  0.24263883252E+02  0.51100000000E-03 0.  1.
         12    1    3    3    0    0 -0.10174341607E+02 -0.98223721131E+01  0.10458120383E+02  0.17588874410E+02  0.00000000000E+00 0. -1.
</event>
<event>
 7    1  0.7357971E-011  0.4778727E+02  0.7816164E-02  0.1312668E+00
        -11   -1    0    0    0    0  0.00000000000E+00  0.00000000000E+00  0.45593999997E+02  0.45594000000E+02  0.51100000000E-03 0. -1.
         11   -1    0    0    0    0 -0.00000000000E+00 -0.00000000000E+00 -0.45593999997E+02  0.45594000000E+02  0.51100000000E-03 0.  1.
    9900012    2    1    2    0    0  0.24443202348E+02  0.80665441382E+01 -0.34944011245E+02  0.47787271928E+02  0.20000004027E+02 0.  0.
         12    1    1    2    0    0 -0.24443202348E+02 -0.80665441382E+01  0.34944011245E+02  0.43400728072E+02  0.00000000000E+00 0. -1.
         11    1    3    3    0    0 -0.26036029253E+00 -0.21285559340E+01  0.10071912453E+01  0.23691712289E+01  0.51100000000E-03 0. -1.
        -11    1    3    3    0    0  0.52916632307E+01 -0.83195111771E+00 -0.57153380621E+01  0.78331942294E+01  0.51100000000E-03 0.  1.
         12    1    3    3    0    0  0.19411899410E+02  0.11027051190E+02 -0.30235864428E+02  0.37584906469E+02  0.00000000000E+00 0. -1.
</event>
<event>
 7    1  0.7357971E-011  0.4778727E+02  0.7816164E-02  0.1312668E+00
        -11   -1    0    0    0    0  0.00000000000E+00  0.00000000000E+00  0.45593999997E+02  0.45594000000E+02  0.51100000000E-03 0. -1.
         11   -1    0    0    0    0 -0.00000000000E+00 -0.00000000000E+00 -0.45593999997E+02  0.45594000000E+02  0.51100000000E-03 0.  1.
    9900012    2    1    2    0    0 -0.35370541544E+02 -0.75393868263E+01 -0.23993868650E+02  0.47787270793E+02  0.19999998856E+02 0.  0.
         12    1    1    2    0    0  0.35370541544E+02  0.75393868263E+01  0.23993868650E+02  0.43400729207E+02  0.00000000000E+00 0. -1.
         11    1    3    3    0    0 -0.10717576305E+02 -0.10926079607E+01  0.55403133201E+00  0.10787362281E+02  0.51100000000E-03 0. -1.
        -11    1    3    3    0    0 -0.15471347652E+02 -0.57599050858E+01 -0.21888703541E+02  0.27416317180E+02  0.51100000000E-03 0.  1.
        -12    1    3    3    0    0 -0.91816175876E+01 -0.68687377975E+00 -0.26591964414E+01  0.95835913325E+01  0.00000000000E+00 0.  1.
</event>
<event>
 7    1  0.7357971E-011  0.4778727E+02  0.7816164E-02  0.1312668E+00
        -11   -1    0    0    0    0  0.00000000000E+00  0.00000000000E+00  0.45593999997E+02  0.45594000000E+02  0.51100000000E-03 0. -1.
         11   -1    0    0    0    0 -0.00000000000E+00 -0.00000000000E+00 -0.45593999997E+02  0.45594000000E+02  0.51100000000E-03 0.  1.
    9900012    2    1    2    0    0 -0.19819685728E+02  0.22599759712E+02 -0.31305815955E+02  0.47787271965E+02  0.20000004197E+02 0.  0.
         12    1    1    2    0    0  0.19819685728E+02 -0.22599759712E+02  0.31305815955E+02  0.43400728035E+02  0.00000000000E+00 0. -1.
         11    1    3    3    0    0 -0.14078350490E+02  0.88612302669E+01 -0.18089668148E+02  0.24575545738E+02  0.51100000000E-03 0.  1.
        -11    1    3    3    0    0  0.19616865380E+01  0.64097606825E+01 -0.62558452887E+00  0.67323548884E+01  0.51100000000E-03 0. -1.
         12    1    3    3    0    0 -0.77030217754E+01  0.73287687623E+01 -0.12590563278E+02  0.16479371338E+02  0.00000000000E+00 0. -1.
</event>
<event>
 7    1  0.7357971E-011  0.4778727E+02  0.7816164E-02  0.1312668E+00
        -11   -1    0    0    0    0  0.00000000000E+00  0.00000000000E+00  0.45593999997E+02  0.45594000000E+02  0.51100000000E-03 0. -1.
         11   -1    0    0    0    0 -0.00000000000E+00 -0.00000000000E+00 -0.45593999997E+02  0.45594000000E+02  0.51100000000E-03 0.  1.
    9900012    2    1    2    0    0 -0.22067089220E+02  0.53741861117E+01  0.36983576894E+02  0.47787271172E+02  0.20000000580E+02 0.  0.
        -12    1    1    2    0    0  0.22067089220E+02 -0.53741861117E+01 -0.36983576894E+02  0.43400728828E+02  0.00000000000E+00 0.  1.
         11    1    3    3    0    0 -0.28055303920E+01  0.84705118331E+01  0.10898186979E+02  0.14085135824E+02  0.51100000000E-03 0.  1.
        -11    1    3    3    0    0 -0.18790887310E+02 -0.14435928577E+01  0.20446484074E+02  0.27807195426E+02  0.51100000000E-03 0. -1.
         12    1    3    3    0    0 -0.47067151778E+00 -0.16527328637E+01  0.56389058407E+01  0.58949399214E+01  0.00000000000E+00 0. -1.
</event>
<event>
 7    1  0.7357971E-011  0.4778727E+02  0.7816164E-02  0.1312668E+00
        -11   -1    0    0    0    0  0.00000000000E+00  0.00000000000E+00  0.45593999997E+02  0.45594000000E+02  0.51100000000E-03 0. -1.
         11   -1    0    0    0    0 -0.00000000000E+00 -0.00000000000E+00 -0.45593999997E+02  0.45594000000E+02  0.51100000000E-03 0.  1.
    9900012    2    1    2    0    0 -0.17480442351E+02 -0.27708193559E+02  0.28466006276E+02  0.47787269956E+02  0.19999995036E+02 0.  0.
        -12    1    1    2    0    0  0.17480442351E+02  0.27708193559E+02 -0.28466006276E+02  0.43400730044E+02  0.00000000000E+00 0.  1.
         11    1    3    3    0    0 -0.11848027281E+02 -0.20568039738E+02  0.26654977865E+02  0.35691845768E+02  0.51100000000E-03 0. -1.
        -11    1    3    3    0    0 -0.40614182365E+01 -0.87786888372E+01  0.17140976162E+01  0.98233714524E+01  0.51100000000E-03 0.  1.
         12    1    3    3    0    0 -0.15709968333E+01  0.16385350167E+01  0.96930795259E-01  0.22720527349E+01  0.00000000000E+00 0. -1.
</event>
<event>
 7    1  0.7357971E-011  0.4778727E+02  0.7816164E-02  0.1312668E+00
        -11   -1    0    0    0    0  0.00000000000E+00  0.00000000000E+00  0.45593999997E+02  0.45594000000E+02  0.51100000000E-03 0. -1.
         11   -1    0    0    0    0 -0.00000000000E+00 -0.00000000000E+00 -0.45593999997E+02  0.45594000000E+02  0.51100000000E-03 0.  1.
    9900012    2    1    2    0    0  0.27008994643E+02 -0.27091127854E+02 -0.20498978057E+02  0.47787273031E+02  0.20000009058E+02 0.  0.
         12    1    1    2    0    0 -0.27008994643E+02  0.27091127854E+02  0.20498978057E+02  0.43400726969E+02  0.00000000000E+00 0. -1.
         11    1    3    3    0    0 -0.12365458670E+01 -0.12217509074E+01 -0.14043846260E+01  0.22347298270E+01  0.51100000000E-03 0. -1.
        -11    1    3    3    0    0  0.16907661749E+02 -0.22236448765E+02 -0.18746721337E+02  0.33641763341E+02  0.51100000000E-03 0.  1.
        -12    1    3    3    0    0  0.11337878760E+02 -0.36329281821E+01 -0.34787209375E+00  0.11910779863E+02  0.00000000000E+00 0.  1.
</event>
<event>
 7    1  0.7357971E-011  0.4778727E+02  0.7816164E-02  0.1312668E+00
        -11   -1    0    0    0    0  0.00000000000E+00  0.00000000000E+00  0.45593999997E+02  0.45594000000E+02  0.51100000000E-03 0.  1.
         11   -1    0    0    0    0 -0.00000000000E+00 -0.00000000000E+00 -0.45593999997E+02  0.45594000000E+02  0.51100000000E-03 0. -1.
    9900012    2    1    2    0    0 -0.38000262683E+02  0.10707095598E+02  0.18026685867E+02  0.47787271164E+02  0.20000000547E+02 0.  0.
        -12    1    1    2    0    0  0.38000262683E+02 -0.10707095598E+02 -0.18026685867E+02  0.43400728836E+02  0.00000000000E+00 0.  1.
         11    1    3    3    0    0 -0.13284357769E+02  0.92039053979E+01  0.91360702518E+01  0.18564854317E+02  0.51100000000E-03 0. -1.
        -11    1    3    3    0    0 -0.18538056708E+02 -0.42083620113E+01  0.37910515668E+01  0.19384063804E+02  0.51100000000E-03 0.  1.
        -12    1    3    3    0    0 -0.61778482059E+01  0.57115522111E+01  0.50995640481E+01  0.98383530429E+01  0.00000000000E+00 0.  1.
</event>
<event>
 7    1  0.7357971E-011  0.4778727E+02  0.7816164E-02  0.1312668E+00
        -11   -1    0    0    0    0  0.00000000000E+00  0.00000000000E+00  0.45593999997E+02  0.45594000000E+02  0.51100000000E-03 0. -1.
         11   -1    0    0    0    0 -0.00000000000E+00 -0.00000000000E+00 -0.45593999997E+02  0.45594000000E+02  0.51100000000E-03 0.  1.
    9900012    2    1    2    0    0  0.18613405750E+02  0.35480571861E-01 -0.39206669794E+02  0.47787273176E+02  0.20000009721E+02 0.  0.
         12    1    1    2    0    0 -0.18613405750E+02 -0.35480571861E-01  0.39206669794E+02  0.43400726824E+02  0.00000000000E+00 0. -1.
         11    1    3    3    0    0  0.60937457720E+01 -0.81477223754E+01 -0.85621467261E+01  0.13297724402E+02  0.51100000000E-03 0. -1.
        -11    1    3    3    0    0  0.93315417452E+01  0.72192781235E+01 -0.18884886231E+02  0.22267343267E+02  0.51100000000E-03 0.  1.
         12    1    3    3    0    0  0.31881182324E+01  0.96392482374E+00 -0.11759636837E+02  0.12222205508E+02  0.00000000000E+00 0. -1.
</event>
<event>
 7    1  0.7357971E-011  0.4778727E+02  0.7816164E-02  0.1312668E+00
        -11   -1    0    0    0    0  0.00000000000E+00  0.00000000000E+00  0.45593999997E+02  0.45594000000E+02  0.51100000000E-03 0. -1.
         11   -1    0    0    0    0 -0.00000000000E+00 -0.00000000000E+00 -0.45593999997E+02  0.45594000000E+02  0.51100000000E-03 0.  1.
    9900012    2    1    2    0    0  0.12342949932E+02 -0.92277800809E+01 -0.40572439864E+02  0.47787271725E+02  0.20000003103E+02 0.  0.
         12    1    1    2    0    0 -0.12342949932E+02  0.92277800809E+01  0.40572439864E+02  0.43400728275E+02  0.00000000000E+00 0. -1.
         11    1    3    3    0    0  0.61193017476E+01 -0.13362370787E+02 -0.14841818611E+02  0.20887278111E+02  0.51100000000E-03 0. -1.
        -11    1    3    3    0    0  0.48000823888E+01  0.21481600040E+01 -0.15017172080E+02  0.15911343120E+02  0.51100000000E-03 0.  1.
         12    1    3    3    0    0  0.14235657958E+01  0.19864307017E+01 -0.10713449173E+02  0.10988650494E+02  0.00000000000E+00 0. -1.
</event>
<event>
 7    1  0.7357971E-011  0.4778728E+02  0.7816164E-02  0.1312668E+00
        -11   -1    0    0    0    0  0.00000000000E+00  0.00000000000E+00  0.45593999997E+02  0.45594000000E+02  0.51100000000E-03 0.  1.
         11   -1    0    0    0    0 -0.00000000000E+00 -0.00000000000E+00 -0.45593999997E+02  0.45594000000E+02  0.51100000000E-03 0. -1.
    9900012    2    1    2    0    0 -0.38829204250E+02  0.12176345260E+02 -0.15088136223E+02  0.47787281789E+02  0.20000048987E+02 0.  0.
         12    1    1    2    0    0  0.38829204250E+02 -0.12176345260E+02  0.15088136223E+02  0.43400718211E+02  0.00000000000E+00 0. -1.
         11    1    3    3    0    0 -0.20703706127E+02 -0.14306040395E+01 -0.76825856172E+01  0.22129441867E+02  0.51100000000E-03 0. -1.
        -11    1    3    3    0    0 -0.10978124033E+02  0.26116136351E+01 -0.49188811392E+01  0.12309960397E+02  0.51100000000E-03 0.  1.
         12    1    3    3    0    0 -0.71473740902E+01  0.10995335665E+02 -0.24866694664E+01  0.13347879524E+02  0.00000000000E+00 0. -1.
</event>
<event>
 7    1  0.7357971E-011  0.4778727E+02  0.7816164E-02  0.1312668E+00
        -11   -1    0    0    0    0  0.00000000000E+00  0.00000000000E+00  0.45593999997E+02  0.45594000000E+02  0.51100000000E-03 0. -1.
         11   -1    0    0    0    0 -0.00000000000E+00 -0.00000000000E+00 -0.45593999997E+02  0.45594000000E+02  0.51100000000E-03 0.  1.
    9900012    2    1    2    0    0  0.82397128370E+01  0.26922616928E+02  0.33028818213E+02  0.47787274172E+02  0.20000014258E+02 0.  0.
        -12    1    1    2    0    0 -0.82397128370E+01 -0.26922616928E+02 -0.33028818213E+02  0.43400725828E+02  0.00000000000E+00 0.  1.
         11    1    3    3    0    0 -0.16164690590E+01  0.11842785934E+02  0.22663487036E+02  0.25622220743E+02  0.51100000000E-03 0. -1.
        -11    1    3    3    0    0 -0.93738738463E-01 -0.82426404281E+00  0.37012499796E+00  0.90840020839E+00  0.51100000000E-03 0.  1.
         12    1    3    3    0    0  0.99499206345E+01  0.15904095037E+02  0.99952061795E+01  0.21256653221E+02  0.00000000000E+00 0. -1.
</event>
<event>
 7    1  0.7357971E-011  0.4778727E+02  0.7816164E-02  0.1312668E+00
        -11   -1    0    0    0    0  0.00000000000E+00  0.00000000000E+00  0.45593999997E+02  0.45594000000E+02  0.51100000000E-03 0.  1.
         11   -1    0    0    0    0 -0.00000000000E+00 -0.00000000000E+00 -0.45593999997E+02  0.45594000000E+02  0.51100000000E-03 0. -1.
    9900012    2    1    2    0    0 -0.40999501973E+02  0.74702068439E+01  0.12118589749E+02  0.47787269939E+02  0.19999994962E+02 0.  0.
         12    1    1    2    0    0  0.40999501973E+02 -0.74702068439E+01 -0.12118589749E+02  0.43400730061E+02  0.00000000000E+00 0. -1.
         11    1    3    3    0    0 -0.61849641576E+01 -0.43939371620E+01  0.32469852064E+00  0.75938063450E+01  0.51100000000E-03 0. -1.
        -11    1    3    3    0    0 -0.15994736485E+02  0.11265034061E+02  0.68204651773E+01  0.20718381528E+02  0.51100000000E-03 0.  1.
        -12    1    3    3    0    0 -0.18819801330E+02  0.59910994471E+00  0.49734260510E+01  0.19475082067E+02  0.00000000000E+00 0.  1.
</event>
<event>
 7    1  0.7357971E-011  0.4778728E+02  0.7816164E-02  0.1312668E+00
        -11   -1    0    0    0    0  0.00000000000E+00  0.00000000000E+00  0.45593999997E+02  0.45594000000E+02  0.51100000000E-03 0. -1.
         11   -1    0    0    0    0 -0.00000000000E+00 -0.00000000000E+00 -0.45593999997E+02  0.45594000000E+02  0.51100000000E-03 0.  1.
    9900012    2    1    2    0    0 -0.83861121391E+01 -0.92498925633E+01  0.41566029852E+02  0.47787283106E+02  0.20000054995E+02 0.  0.
        -12    1    1    2    0    0  0.83861121391E+01  0.92498925633E+01 -0.41566029852E+02  0.43400716894E+02  0.00000000000E+00 0.  1.
         11    1    3    3    0    0 -0.90672773699E+00 -0.25357941740E+01  0.49284782186E+01  0.56162536530E+01  0.51100000000E-03 0. -1.
        -11    1    3    3    0    0 -0.96610086422E+01  0.35875080648E+01  0.19535873087E+02  0.22087454350E+02  0.51100000000E-03 0.  1.
        -12    1    3    3    0    0  0.21816242400E+01 -0.10301606454E+02  0.17101678546E+02  0.20083575104E+02  0.00000000000E+00 0.  1.
</event>
<event>
 7    1  0.7357971E-011  0.4778727E+02  0.7816164E-02  0.1312668E+00
        -11   -1    0    0    0    0  0.00000000000E+00  0.00000000000E+00  0.45593999997E+02  0.45594000000E+02  0.51100000000E-03 0. -1.
         11   -1    0    0    0    0 -0.00000000000E+00 -0.00000000000E+00 -0.45593999997E+02  0.45594000000E+02  0.51100000000E-03 0.  1.
    9900012    2    1    2    0    0  0.96242602023E+01  0.83168047100E+01 -0.41494911347E+02  0.47787270827E+02  0.19999999008E+02 0.  0.
         12    1    1    2    0    0 -0.96242602023E+01 -0.83168047100E+01  0.41494911347E+02  0.43400729173E+02  0.00000000000E+00 0. -1.
         11    1    3    3    0    0 -0.17067928958E+00 -0.19076257338E+01  0.13371484199E+01  0.23358367918E+01  0.51100000000E-03 0. -1.
        -11    1    3    3    0    0  0.69261377589E+01  0.37854795654E+01 -0.26798325676E+02  0.27936562048E+02  0.51100000000E-03 0.  1.
         12    1    3    3    0    0  0.28688017330E+01  0.64389508783E+01 -0.16033734092E+02  0.17514871987E+02  0.00000000000E+00 0. -1.
</event>
<event>
 7    1  0.7357971E-011  0.4778727E+02  0.7816164E-02  0.1312668E+00
        -11   -1    0    0    0    0  0.00000000000E+00  0.00000000000E+00  0.45593999997E+02  0.45594000000E+02  0.51100000000E-03 0. -1.
         11   -1    0    0    0    0 -0.00000000000E+00 -0.00000000000E+00 -0.45593999997E+02  0.45594000000E+02  0.51100000000E-03 0.  1.
    9900012    2    1    2    0    0  0.30136686500E+02 -0.23332681553E+02 -0.20760294804E+02  0.47787265651E+02  0.19999975411E+02 0.  0.
         12    1    1    2    0    0 -0.30136686500E+02  0.23332681553E+02  0.20760294804E+02  0.43400734349E+02  0.00000000000E+00 0. -1.
         11    1    3    3    0    0  0.14426860318E+02 -0.18165591228E+02 -0.84499005038E+01  0.24688536248E+02  0.51100000000E-03 0. -1.
        -11    1    3    3    0    0  0.16039594839E+02 -0.25365034751E+01 -0.81599642387E+01  0.18173812730E+02  0.51100000000E-03 0.  1.
         12    1    3    3    0    0 -0.32976865784E+00 -0.26305868504E+01 -0.41504300613E+01  0.49249166732E+01  0.00000000000E+00 0. -1.
</event>
<event>
 7    1  0.7357971E-011  0.4778727E+02  0.7816164E-02  0.1312668E+00
        -11   -1    0    0    0    0  0.00000000000E+00  0.00000000000E+00  0.45593999997E+02  0.45594000000E+02  0.51100000000E-03 0.  1.
         11   -1    0    0    0    0 -0.00000000000E+00 -0.00000000000E+00 -0.45593999997E+02  0.45594000000E+02  0.51100000000E-03 0. -1.
    9900012    2    1    2    0    0  0.41005399212E+02  0.12772435840E+02  0.62486372208E+01  0.47787270180E+02  0.19999996059E+02 0.  0.
        -12    1    1    2    0    0 -0.41005399212E+02 -0.12772435840E+02 -0.62486372208E+01  0.43400729820E+02  0.00000000000E+00 0.  1.
         11    1    3    3    0    0  0.16118105363E+02  0.15341545702E+02  0.13905785109E+01  0.22295516452E+02  0.51100000000E-03 0. -1.
        -11    1    3    3    0    0  0.17116944376E+02 -0.15349261280E+01  0.33636771687E+01  0.17511713432E+02  0.51100000000E-03 0.  1.
         12    1    3    3    0    0  0.77703494731E+01 -0.10341837337E+01  0.14943815412E+01  0.79800402956E+01  0.00000000000E+00 0. -1.
</event>
<event>
 7    1  0.7357971E-011  0.4778728E+02  0.7816164E-02  0.1312668E+00
        -11   -1    0    0    0    0  0.00000000000E+00  0.00000000000E+00  0.45593999997E+02  0.45594000000E+02  0.51100000000E-03 0. -1.
         11   -1    0    0    0    0 -0.00000000000E+00 -0.00000000000E+00 -0.45593999997E+02  0.45594000000E+02  0.51100000000E-03 0.  1.
    9900012    2    1    2    0    0 -0.76859244482E+01  0.25972321122E+02 -0.33911464243E+02  0.47787282193E+02  0.20000050829E+02 0.  0.
         12    1    1    2    0    0  0.76859244482E+01 -0.25972321122E+02  0.33911464243E+02  0.43400717807E+02  0.00000000000E+00 0. -1.
         11    1    3    3    0    0  0.46500794996E+01  0.14423393803E+02 -0.15979688273E+02  0.22022896397E+02  0.51100000000E-03 0. -1.
        -11    1    3    3    0    0 -0.11917661265E+02  0.86446675074E+01 -0.11455747121E+02  0.18654625933E+02  0.51100000000E-03 0.  1.
        -12    1    3    3    0    0 -0.41834268309E+00  0.29042598122E+01 -0.64760288490E+01  0.71097598630E+01  0.00000000000E+00 0.  1.
</event>
<event>
 7    1  0.7357971E-011  0.4778726E+02  0.7816164E-02  0.1312668E+00
        -11   -1    0    0    0    0  0.00000000000E+00  0.00000000000E+00  0.45593999997E+02  0.45594000000E+02  0.51100000000E-03 0. -1.
         11   -1    0    0    0    0 -0.00000000000E+00 -0.00000000000E+00 -0.45593999997E+02  0.45594000000E+02  0.51100000000E-03 0.  1.
    9900012    2    1    2    0    0 -0.12468112537E+02 -0.71642905294E+01  0.40949275682E+02  0.47787261897E+02  0.19999958291E+02 0.  0.
        -12    1    1    2    0    0  0.12468112537E+02  0.71642905294E+01 -0.40949275682E+02  0.43400738103E+02  0.00000000000E+00 0.  1.
         11    1    3    3    0    0 -0.46708166075E+01  0.40748473358E+01  0.18939061022E+02  0.19927592460E+02  0.51100000000E-03 0. -1.
        -11    1    3    3    0    0  0.21250786156E+01 -0.46665007728E+01  0.56736375751E+01  0.76473755093E+01  0.51100000000E-03 0.  1.
         12    1    3    3    0    0 -0.99223745446E+01 -0.65726370923E+01  0.16336577086E+02  0.20212293928E+02  0.00000000000E+00 0. -1.
</event>
<event>
 7    1  0.7357971E-011  0.4778728E+02  0.7816164E-02  0.1312668E+00
        -11   -1    0    0    0    0  0.00000000000E+00  0.00000000000E+00  0.45593999997E+02  0.45594000000E+02  0.51100000000E-03 0. -1.
         11   -1    0    0    0    0 -0.00000000000E+00 -0.00000000000E+00 -0.45593999997E+02  0.45594000000E+02  0.51100000000E-03 0.  1.
    9900012    2    1    2    0    0  0.36402614159E+02  0.18165750816E+02 -0.15115478126E+02  0.47787279968E+02  0.20000040687E+02 0.  0.
         12    1    1    2    0    0 -0.36402614159E+02 -0.18165750816E+02  0.15115478126E+02  0.43400720032E+02  0.00000000000E+00 0. -1.
         11    1    3    3    0    0  0.98628081272E+01  0.91623091484E+01  0.14289226408E+01  0.13537529806E+02  0.51100000000E-03 0. -1.
        -11    1    3    3    0    0  0.26547820976E+02  0.10190602179E+02 -0.14584822372E+02  0.31958601584E+02  0.51100000000E-03 0.  1.
        -12    1    3    3    0    0 -0.80149441135E-02 -0.11871605116E+01 -0.19595783944E+01  0.22911485773E+01  0.00000000000E+00 0.  1.
</event>
<event>
 7    1  0.7357971E-011  0.4778727E+02  0.7816164E-02  0.1312668E+00
        -11   -1    0    0    0    0  0.00000000000E+00  0.00000000000E+00  0.45593999997E+02  0.45594000000E+02  0.51100000000E-03 0. -1.
         11   -1    0    0    0    0 -0.00000000000E+00 -0.00000000000E+00 -0.45593999997E+02  0.45594000000E+02  0.51100000000E-03 0.  1.
    9900012    2    1    2    0    0 -0.22874833720E+02  0.25438034304E+02 -0.26707141762E+02  0.47787273876E+02  0.20000012911E+02 0.  0.
         12    1    1    2    0    0  0.22874833720E+02 -0.25438034304E+02  0.26707141762E+02  0.43400726124E+02  0.00000000000E+00 0. -1.
         11    1    3    3    0    0 -0.31269557010E+01  0.12621494350E+02 -0.20700778668E+01  0.13166821720E+02  0.51100000000E-03 0. -1.
        -11    1    3    3    0    0 -0.15421846531E+02  0.11178550717E+02 -0.16226923860E+02  0.25022118311E+02  0.51100000000E-03 0.  1.
         12    1    3    3    0    0 -0.43260314881E+01  0.16379892370E+01 -0.84101400354E+01  0.95983338445E+01  0.00000000000E+00 0. -1.
</event>
<event>
 7    1  0.7357971E-011  0.4778727E+02  0.7816164E-02  0.1312668E+00
        -11   -1    0    0    0    0  0.00000000000E+00  0.00000000000E+00  0.45593999997E+02  0.45594000000E+02  0.51100000000E-03 0. -1.
         11   -1    0    0    0    0 -0.00000000000E+00 -0.00000000000E+00 -0.45593999997E+02  0.45594000000E+02  0.51100000000E-03 0.  1.
    9900012    2    1    2    0    0  0.27190919796E+02  0.30320579737E+02 -0.14997996923E+02  0.47787267441E+02  0.19999983572E+02 0.  0.
         12    1    1    2    0    0 -0.27190919796E+02 -0.30320579737E+02  0.14997996923E+02  0.43400732559E+02  0.00000000000E+00 0. -1.
         11    1    3    3    0    0  0.20657492149E+02  0.13845589953E+02 -0.29057950448E+01  0.25037491650E+02  0.51100000000E-03 0. -1.
        -11    1    3    3    0    0  0.80939172422E+01  0.11958945600E+02 -0.97880437787E+01  0.17445162008E+02  0.51100000000E-03 0.  1.
         12    1    3    3    0    0 -0.15604895952E+01  0.45160441841E+01 -0.23041580994E+01  0.53046137839E+01  0.00000000000E+00 0. -1.
</event>
<event>
 7    1  0.7357971E-011  0.4778727E+02  0.7816164E-02  0.1312668E+00
        -11   -1    0    0    0    0  0.00000000000E+00  0.00000000000E+00  0.45593999997E+02  0.45594000000E+02  0.51100000000E-03 0. -1.
         11   -1    0    0    0    0 -0.00000000000E+00 -0.00000000000E+00 -0.45593999997E+02  0.45594000000E+02  0.51100000000E-03 0.  1.
    9900012    2    1    2    0    0  0.21342738575E+02  0.20993060658E+02  0.31422958764E+02  0.47787269325E+02  0.19999992159E+02 0.  0.
        -12    1    1    2    0    0 -0.21342738575E+02 -0.20993060658E+02 -0.31422958764E+02  0.43400730675E+02  0.00000000000E+00 0.  1.
         11    1    3    3    0    0  0.17947021207E+02  0.13150990563E+02  0.18310323151E+02  0.28815135904E+02  0.51100000000E-03 0. -1.
        -11    1    3    3    0    0 -0.10120667808E+01  0.43374785380E+01 -0.26064588403E+00  0.44616068602E+01  0.51100000000E-03 0.  1.
        -12    1    3    3    0    0  0.44077841489E+01  0.35045915572E+01  0.13373281497E+02  0.14510526561E+02  0.00000000000E+00 0.  1.
</event>
<event>
 7    1  0.7357971E-011  0.4778727E+02  0.7816164E-02  0.1312668E+00
        -11   -1    0    0    0    0  0.00000000000E+00  0.00000000000E+00  0.45593999997E+02  0.45594000000E+02  0.51100000000E-03 0. -1.
         11   -1    0    0    0    0 -0.00000000000E+00 -0.00000000000E+00 -0.45593999997E+02  0.45594000000E+02  0.51100000000E-03 0.  1.
    9900012    2    1    2    0    0 -0.20821987446E+02 -0.18734858190E+02  0.33152272119E+02  0.47787271674E+02  0.20000002868E+02 0.  0.
        -12    1    1    2    0    0  0.20821987446E+02  0.18734858190E+02 -0.33152272119E+02  0.43400728326E+02  0.00000000000E+00 0.  1.
         11    1    3    3    0    0 -0.50280149151E+01  0.31183937541E+01  0.80560166760E+01  0.99952347915E+01  0.51100000000E-03 0. -1.
        -11    1    3    3    0    0  0.32826765753E+00 -0.86285259435E+00  0.35360630037E+01  0.36545883601E+01  0.51100000000E-03 0.  1.
         12    1    3    3    0    0 -0.16122240189E+02 -0.20990399350E+02  0.21560192439E+02  0.34137448522E+02  0.00000000000E+00 0. -1.
</event>
<event>
 7    1  0.7357971E-011  0.4778727E+02  0.7816164E-02  0.1312668E+00
        -11   -1    0    0    0    0  0.00000000000E+00  0.00000000000E+00  0.45593999997E+02  0.45594000000E+02  0.51100000000E-03 0. -1.
         11   -1    0    0    0    0 -0.00000000000E+00 -0.00000000000E+00 -0.45593999997E+02  0.45594000000E+02  0.51100000000E-03 0.  1.
    9900012    2    1    2    0    0 -0.33736781693E+02  0.18037421678E+02  0.20496450098E+02  0.47787268595E+02  0.19999988833E+02 0.  0.
        -12    1    1    2    0    0  0.33736781693E+02 -0.18037421678E+02 -0.20496450098E+02  0.43400731405E+02  0.00000000000E+00 0.  1.
         11    1    3    3    0    0 -0.66475542304E+01 -0.36599085792E+01  0.29659403059E+01  0.81474971748E+01  0.51100000000E-03 0.  1.
        -11    1    3    3    0    0 -0.99506502245E+01  0.10801247173E+02  0.10853033468E+02  0.18261180578E+02  0.51100000000E-03 0. -1.
         12    1    3    3    0    0 -0.17138577239E+02  0.10896083085E+02  0.66774763242E+01  0.21378590843E+02  0.00000000000E+00 0. -1.
</event>
<event>
 7    1  0.7357971E-011  0.4778729E+02  0.7816164E-02  0.1312668E+00
        -11   -1    0    0    0    0  0.00000000000E+00  0.00000000000E+00  0.45593999997E+02  0.45594000000E+02  0.51100000000E-03 0. -1.
         11   -1    0    0    0    0 -0.00000000000E+00 -0.00000000000E+00 -0.45593999997E+02  0.45594000000E+02  0.51100000000E-03 0.  1.
    9900012    2    1    2    0    0 -0.13949373685E+02  0.10779530812E+02 -0.39659024437E+02  0.47787291134E+02  0.20000091597E+02 0.  0.
         12    1    1    2    0    0  0.13949373685E+02 -0.10779530812E+02  0.39659024437E+02  0.43400708866E+02  0.00000000000E+00 0. -1.
         11    1    3    3    0    0  0.36574642284E+00  0.25887779749E+01 -0.93287912667E+01  0.96882345455E+01  0.51100000000E-03 0. -1.
        -11    1    3    3    0    0 -0.20677009965E+01 -0.47155768748E+01 -0.52995480810E+01  0.73889960615E+01  0.51100000000E-03 0.  1.
        -12    1    3    3    0    0 -0.12247419112E+02  0.12906329712E+02 -0.25030685090E+02  0.30710060527E+02  0.00000000000E+00 0.  1.
</event>
<event>
 7    1  0.7357971E-011  0.4778727E+02  0.7816164E-02  0.1312668E+00
        -11   -1    0    0    0    0  0.00000000000E+00  0.00000000000E+00  0.45593999997E+02  0.45594000000E+02  0.51100000000E-03 0. -1.
         11   -1    0    0    0    0 -0.00000000000E+00 -0.00000000000E+00 -0.45593999997E+02  0.45594000000E+02  0.51100000000E-03 0.  1.
    9900012    2    1    2    0    0  0.30486482947E+02  0.23039769324E+02 -0.20575883982E+02  0.47787267119E+02  0.19999982102E+02 0.  0.
         12    1    1    2    0    0 -0.30486482947E+02 -0.23039769324E+02  0.20575883982E+02  0.43400732881E+02  0.00000000000E+00 0. -1.
         11    1    3    3    0    0  0.19772194299E+02  0.17319123364E+02 -0.17302870752E+02  0.31468731115E+02  0.51100000000E-03 0.  1.
        -11    1    3    3    0    0  0.42980717064E+01  0.70861455507E+01  0.12064553294E+01  0.83751067983E+01  0.51100000000E-03 0. -1.
         12    1    3    3    0    0  0.64162169416E+01 -0.13654995902E+01 -0.44794685591E+01  0.79434292056E+01  0.00000000000E+00 0. -1.
</event>
<event>
 7    1  0.7357971E-011  0.4778727E+02  0.7816164E-02  0.1312668E+00
        -11   -1    0    0    0    0  0.00000000000E+00  0.00000000000E+00  0.45593999997E+02  0.45594000000E+02  0.51100000000E-03 0. -1.
         11   -1    0    0    0    0 -0.00000000000E+00 -0.00000000000E+00 -0.45593999997E+02  0.45594000000E+02  0.51100000000E-03 0.  1.
    9900012    2    1    2    0    0 -0.33898851937E+01  0.15293307311E+01 -0.43241102190E+02  0.47787273132E+02  0.20000009518E+02 0.  0.
         12    1    1    2    0    0  0.33898851937E+01 -0.15293307311E+01  0.43241102190E+02  0.43400726868E+02  0.00000000000E+00 0. -1.
         11    1    3    3    0    0  0.58084329151E+01  0.67407793614E+01 -0.18059104339E+02  0.20132244016E+02  0.51100000000E-03 0. -1.
        -11    1    3    3    0    0 -0.51408299574E+01 -0.49451667531E+00 -0.12644314857E+02  0.13658381231E+02  0.51100000000E-03 0.  1.
         12    1    3    3    0    0 -0.40574881514E+01 -0.47169319550E+01 -0.12537682994E+02  0.13996647885E+02  0.00000000000E+00 0. -1.
</event>
<event>
 7    1  0.7357971E-011  0.4778730E+02  0.7816164E-02  0.1312668E+00
        -11   -1    0    0    0    0  0.00000000000E+00  0.00000000000E+00  0.45593999997E+02  0.45594000000E+02  0.51100000000E-03 0. -1.
         11   -1    0    0    0    0 -0.00000000000E+00 -0.00000000000E+00 -0.45593999997E+02  0.45594000000E+02  0.51100000000E-03 0.  1.
    9900012    2    1    2    0    0  0.12825369468E+02 -0.76489899726E+00 -0.41455348465E+02  0.47787296218E+02  0.20000114776E+02 0.  0.
         12    1    1    2    0    0 -0.12825369468E+02  0.76489899726E+00  0.41455348465E+02  0.43400703782E+02  0.00000000000E+00 0. -1.
         11    1    3    3    0    0 -0.21578696690E+01 -0.38316117767E+01 -0.14401331720E+01  0.46272706999E+01  0.51100000000E-03 0. -1.
        -11    1    3    3    0    0  0.10692787143E+02  0.20738208819E+01 -0.34020562697E+02  0.35721633731E+02  0.51100000000E-03 0.  1.
        -12    1    3    3    0    0  0.42904519943E+01  0.99289189750E+00 -0.59946525951E+01  0.74383917866E+01  0.00000000000E+00 0.  1.
</event>
<event>
 7    1  0.7357971E-011  0.4778726E+02  0.7816164E-02  0.1312668E+00
        -11   -1    0    0    0    0  0.00000000000E+00  0.00000000000E+00  0.45593999997E+02  0.45594000000E+02  0.51100000000E-03 0. -1.
         11   -1    0    0    0    0 -0.00000000000E+00 -0.00000000000E+00 -0.45593999997E+02  0.45594000000E+02  0.51100000000E-03 0.  1.
    9900012    2    1    2    0    0 -0.45577403740E+01  0.23256326382E+02  0.36359244095E+02  0.47787258702E+02  0.19999943724E+02 0.  0.
        -12    1    1    2    0    0  0.45577403740E+01 -0.23256326382E+02 -0.36359244095E+02  0.43400741298E+02  0.00000000000E+00 0.  1.
         11    1    3    3    0    0 -0.61227670350E+01  0.14431126469E+02  0.11325872485E+02  0.19339624483E+02  0.51100000000E-03 0. -1.
        -11    1    3    3    0    0 -0.29280071673E+01  0.53583391801E+01  0.59019283766E+01  0.84922190012E+01  0.51100000000E-03 0.  1.
         12    1    3    3    0    0  0.44930338283E+01  0.34668607328E+01  0.19131443233E+02  0.19955415218E+02  0.00000000000E+00 0. -1.
</event>
<event>
 7    1  0.7357971E-011  0.4778727E+02  0.7816164E-02  0.1312668E+00
        -11   -1    0    0    0    0  0.00000000000E+00  0.00000000000E+00  0.45593999997E+02  0.45594000000E+02  0.51100000000E-03 0. -1.
         11   -1    0    0    0    0 -0.00000000000E+00 -0.00000000000E+00 -0.45593999997E+02  0.45594000000E+02  0.51100000000E-03 0.  1.
    9900012    2    1    2    0    0  0.15488026765E+02 -0.37344283961E+02 -0.15784443603E+02  0.47787272155E+02  0.20000005063E+02 0.  0.
         12    1    1    2    0    0 -0.15488026765E+02  0.37344283961E+02  0.15784443603E+02  0.43400727845E+02  0.00000000000E+00 0. -1.
         11    1    3    3    0    0 -0.88383019114E+00 -0.37936369305E+01 -0.68781932791E+01  0.79045796861E+01  0.51100000000E-03 0. -1.
        -11    1    3    3    0    0  0.10789698007E+02 -0.21710874955E+02 -0.35394340549E+00  0.24246751341E+02  0.51100000000E-03 0.  1.
        -12    1    3    3    0    0  0.55821589486E+01 -0.11839772075E+02 -0.85523069183E+01  0.15635941128E+02  0.00000000000E+00 0.  1.
</event>
<event>
 7    1  0.7357971E-011  0.4778727E+02  0.7816164E-02  0.1312668E+00
        -11   -1    0    0    0    0  0.00000000000E+00  0.00000000000E+00  0.45593999997E+02  0.45594000000E+02  0.51100000000E-03 0. -1.
         11   -1    0    0    0    0 -0.00000000000E+00 -0.00000000000E+00 -0.45593999997E+02  0.45594000000E+02  0.51100000000E-03 0.  1.
    9900012    2    1    2    0    0 -0.39907452703E+02  0.44542013102E+01 -0.16467497798E+02  0.47787272192E+02  0.20000005234E+02 0.  0.
         12    1    1    2    0    0  0.39907452703E+02 -0.44542013102E+01  0.16467497798E+02  0.43400727808E+02  0.00000000000E+00 0. -1.
         11    1    3    3    0    0  0.56736572258E+00 -0.12753600279E+00 -0.46308444691E+01  0.46672143783E+01  0.51100000000E-03 0. -1.
        -11    1    3    3    0    0 -0.38436800684E+02  0.51737215772E+01 -0.94340447127E+01  0.39914361346E+02  0.51100000000E-03 0.  1.
        -12    1    3    3    0    0 -0.20380177415E+01 -0.59198426418E+00 -0.24026086160E+01  0.32056964681E+01  0.00000000000E+00 0.  1.
</event>
<event>
 7    1  0.7357971E-011  0.4778727E+02  0.7816164E-02  0.1312668E+00
        -11   -1    0    0    0    0  0.00000000000E+00  0.00000000000E+00  0.45593999997E+02  0.45594000000E+02  0.51100000000E-03 0. -1.
         11   -1    0    0    0    0 -0.00000000000E+00 -0.00000000000E+00 -0.45593999997E+02  0.45594000000E+02  0.51100000000E-03 0.  1.
    9900012    2    1    2    0    0  0.27898937501E+02  0.13560371572E+02 -0.30354392818E+02  0.47787267814E+02  0.19999985273E+02 0.  0.
         12    1    1    2    0    0 -0.27898937501E+02 -0.13560371572E+02  0.30354392818E+02  0.43400732186E+02  0.00000000000E+00 0. -1.
         11    1    3    3    0    0  0.24716048429E+01 -0.12765009674E+01 -0.18352999912E+01  0.33326583290E+01  0.51100000000E-03 0. -1.
        -11    1    3    3    0    0 -0.13725481326E+01  0.51113290411E+01 -0.24865096507E+01  0.58474185285E+01  0.51100000000E-03 0.  1.
        -12    1    3    3    0    0  0.26799880791E+02  0.97255434984E+01 -0.26032583176E+02  0.38607190957E+02  0.00000000000E+00 0.  1.
</event>
<event>
 7    1  0.7357971E-011  0.4778727E+02  0.7816164E-02  0.1312668E+00
        -11   -1    0    0    0    0  0.00000000000E+00  0.00000000000E+00  0.45593999997E+02  0.45594000000E+02  0.51100000000E-03 0. -1.
         11   -1    0    0    0    0 -0.00000000000E+00 -0.00000000000E+00 -0.45593999997E+02  0.45594000000E+02  0.51100000000E-03 0.  1.
    9900012    2    1    2    0    0 -0.31467963320E+01 -0.93609580250E+01 -0.42262197586E+02  0.47787271814E+02  0.20000003508E+02 0.  0.
         12    1    1    2    0    0  0.31467963320E+01  0.93609580250E+01  0.42262197586E+02  0.43400728186E+02  0.00000000000E+00 0. -1.
         11    1    3    3    0    0 -0.35170470829E+01 -0.54568857373E+01 -0.17000740680E+01  0.67109965155E+01  0.51100000000E-03 0. -1.
        -11    1    3    3    0    0 -0.20109942775E+00 -0.26124107526E-01 -0.25853642206E+02  0.25854437511E+02  0.51100000000E-03 0.  1.
         12    1    3    3    0    0  0.57135017865E+00 -0.38779481802E+01 -0.14708481312E+02  0.15221837787E+02  0.00000000000E+00 0. -1.
</event>
<event>
 7    1  0.7357971E-011  0.4778727E+02  0.7816164E-02  0.1312668E+00
        -11   -1    0    0    0    0  0.00000000000E+00  0.00000000000E+00  0.45593999997E+02  0.45594000000E+02  0.51100000000E-03 0.  1.
         11   -1    0    0    0    0 -0.00000000000E+00 -0.00000000000E+00 -0.45593999997E+02  0.45594000000E+02  0.51100000000E-03 0. -1.
    9900012    2    1    2    0    0  0.86672099358E+01 -0.38611864025E+02  0.17822084868E+02  0.47787270967E+02  0.19999999646E+02 0.  0.
        -12    1    1    2    0    0 -0.86672099358E+01  0.38611864025E+02 -0.17822084868E+02  0.43400729033E+02  0.00000000000E+00 0.  1.
         11    1    3    3    0    0  0.34070199536E-01 -0.35122126365E+01 -0.23796496848E+01  0.42425854459E+01  0.51100000000E-03 0.  1.
        -11    1    3    3    0    0  0.11699153872E+02 -0.23894405949E+02  0.16697651860E+02  0.31410578073E+02  0.51100000000E-03 0. -1.
        -12    1    3    3    0    0 -0.30660141355E+01 -0.11205245439E+02  0.35040826926E+01  0.12134107448E+02  0.00000000000E+00 0.  1.
</event>
<event>
 7    1  0.9701383E-011  0.4778727E+02  0.7816164E-02  0.1312668E+00
        -11   -1    0    0    0    0  0.00000000000E+00  0.00000000000E+00  0.45593999997E+02  0.45594000000E+02  0.51100000000E-03 0. -1.
         11   -1    0    0    0    0 -0.00000000000E+00 -0.00000000000E+00 -0.45593999997E+02  0.45594000000E+02  0.51100000000E-03 0.  1.
    9900012    2    1    2    0    0  0.20559008836E+02  0.28881637095E+02  0.25036005376E+02  0.47787269928E+02  0.19999994910E+02 0.  0.
        -12    1    1    2    0    0 -0.20559008836E+02 -0.28881637095E+02 -0.25036005376E+02  0.43400730072E+02  0.00000000000E+00 0.  1.
         11    1    3    3    0    0  0.10702928714E+02  0.15645239858E+02  0.21818301640E+02  0.28902672887E+02  0.51100000000E-03 0. -1.
        -11    1    3    3    0    0  0.10395726762E+02  0.77134532571E+01  0.32035315433E+01  0.13335333167E+02  0.51100000000E-03 0.  1.
         12    1    3    3    0    0 -0.53964664004E+00  0.55229439796E+01  0.14172192362E-01  0.55492638745E+01  0.00000000000E+00 0. -1.
</event>
<event>
 7    1  0.7922800E-011  0.4778727E+02  0.7816164E-02  0.1312668E+00
        -11   -1    0    0    0    0  0.00000000000E+00  0.00000000000E+00  0.45593999997E+02  0.45594000000E+02  0.51100000000E-03 0. -1.
         11   -1    0    0    0    0 -0.00000000000E+00 -0.00000000000E+00 -0.45593999997E+02  0.45594000000E+02  0.51100000000E-03 0.  1.
    9900012    2    1    2    0    0 -0.34785355785E+01  0.24426224035E+02  0.35705497911E+02  0.47787271763E+02  0.20000003276E+02 0.  0.
        -12    1    1    2    0    0  0.34785355785E+01 -0.24426224035E+02 -0.35705497911E+02  0.43400728237E+02  0.00000000000E+00 0.  1.
         11    1    3    3    0    0 -0.44904381374E+01  0.14797115100E+02  0.14750672033E+02  0.21370563297E+02  0.51100000000E-03 0. -1.
        -11    1    3    3    0    0 -0.15444454437E+01 -0.10181737525E+01  0.12357025688E+02  0.12494721831E+02  0.51100000000E-03 0.  1.
        -12    1    3    3    0    0  0.25563480026E+01  0.10647282688E+02  0.85978001904E+01  0.13921986635E+02  0.00000000000E+00 0.  1.
</event>
<event>
 7    1  0.7357971E-011  0.4778727E+02  0.7816164E-02  0.1312668E+00
        -11   -1    0    0    0    0  0.00000000000E+00  0.00000000000E+00  0.45593999997E+02  0.45594000000E+02  0.51100000000E-03 0.  1.
         11   -1    0    0    0    0 -0.00000000000E+00 -0.00000000000E+00 -0.45593999997E+02  0.45594000000E+02  0.51100000000E-03 0. -1.
    9900012    2    1    2    0    0 -0.33062859642E+02  0.19189785296E+02  0.20548063615E+02  0.47787268834E+02  0.19999989920E+02 0.  0.
        -12    1    1    2    0    0  0.33062859642E+02 -0.19189785296E+02 -0.20548063615E+02  0.43400731166E+02  0.00000000000E+00 0.  1.
         11    1    3    3    0    0 -0.21018062507E+02  0.73780211130E+01  0.19689631605E+02  0.29730047765E+02  0.51100000000E-03 0. -1.
        -11    1    3    3    0    0 -0.38808679641E+01  0.80389023799E+01 -0.59725821595E+00  0.89466085902E+01  0.51100000000E-03 0.  1.
         12    1    3    3    0    0 -0.81639291710E+01  0.37728618033E+01  0.14556902261E+01  0.91106124783E+01  0.00000000000E+00 0. -1.
</event>
<event>
 7    1  0.7357971E-011  0.4778727E+02  0.7816164E-02  0.1312668E+00
        -11   -1    0    0    0    0  0.00000000000E+00  0.00000000000E+00  0.45593999997E+02  0.45594000000E+02  0.51100000000E-03 0. -1.
         11   -1    0    0    0    0 -0.00000000000E+00 -0.00000000000E+00 -0.45593999997E+02  0.45594000000E+02  0.51100000000E-03 0.  1.
    9900012    2    1    2    0    0  0.10078668178E+02 -0.23174296980E+02  0.35284498418E+02  0.47787269346E+02  0.19999992254E+02 0.  0.
        -12    1    1    2    0    0 -0.10078668178E+02  0.23174296980E+02 -0.35284498418E+02  0.43400730654E+02  0.00000000000E+00 0.  1.
         11    1    3    3    0    0 -0.25058808571E+01 -0.21309541256E+01 -0.35330994497E-01  0.32896280786E+01  0.51100000000E-03 0. -1.
        -11    1    3    3    0    0 -0.33458167670E+00  0.12388883771E+01  0.12919368214E+01  0.18209586269E+01  0.51100000000E-03 0.  1.
         12    1    3    3    0    0  0.12919130711E+02 -0.22282231231E+02  0.34027892591E+02  0.42676682640E+02  0.00000000000E+00 0. -1.
</event>
<event>
 7    1  0.7357971E-011  0.4778727E+02  0.7816164E-02  0.1312668E+00
        -11   -1    0    0    0    0  0.00000000000E+00  0.00000000000E+00  0.45593999997E+02  0.45594000000E+02  0.51100000000E-03 0. -1.
         11   -1    0    0    0    0 -0.00000000000E+00 -0.00000000000E+00 -0.45593999997E+02  0.45594000000E+02  0.51100000000E-03 0.  1.
    9900012    2    1    2    0    0  0.31226682823E+02  0.31234662938E+01 -0.29979348877E+02  0.47787272807E+02  0.20000008035E+02 0.  0.
         12    1    1    2    0    0 -0.31226682823E+02 -0.31234662938E+01  0.29979348877E+02  0.43400727193E+02  0.00000000000E+00 0. -1.
         11    1    3    3    0    0  0.19353090970E+02  0.94856130383E+01 -0.22201893235E+02  0.30942576627E+02  0.51100000000E-03 0. -1.
        -11    1    3    3    0    0  0.11439757271E+02 -0.39037699952E+01 -0.49201637624E+01  0.13050497243E+02  0.51100000000E-03 0.  1.
         12    1    3    3    0    0  0.43383458214E+00 -0.24583767492E+01 -0.28572918794E+01  0.37941989365E+01  0.00000000000E+00 0. -1.
</event>
<event>
 7    1  0.7357971E-011  0.4778727E+02  0.7816164E-02  0.1312668E+00
        -11   -1    0    0    0    0  0.00000000000E+00  0.00000000000E+00  0.45593999997E+02  0.45594000000E+02  0.51100000000E-03 0. -1.
         11   -1    0    0    0    0 -0.00000000000E+00 -0.00000000000E+00 -0.45593999997E+02  0.45594000000E+02  0.51100000000E-03 0.  1.
    9900012    2    1    2    0    0 -0.27047507947E+02 -0.12882734670E+02  0.31402082750E+02  0.47787270286E+02  0.19999996540E+02 0.  0.
        -12    1    1    2    0    0  0.27047507947E+02  0.12882734670E+02 -0.31402082750E+02  0.43400729714E+02  0.00000000000E+00 0.  1.
         11    1    3    3    0    0  0.11126437659E+01 -0.43727836446E+01  0.57930300470E+01  0.73429156565E+01  0.51100000000E-03 0.  1.
        -11    1    3    3    0    0 -0.20216748621E+02 -0.80166103785E+00  0.16312944068E+02  0.25989838969E+02  0.51100000000E-03 0. -1.
         12    1    3    3    0    0 -0.79434030917E+01 -0.77082899875E+01  0.92961086349E+01  0.14454515660E+02  0.00000000000E+00 0. -1.
</event>
<event>
 7    1  0.7357971E-011  0.4778727E+02  0.7816164E-02  0.1312668E+00
        -11   -1    0    0    0    0  0.00000000000E+00  0.00000000000E+00  0.45593999997E+02  0.45594000000E+02  0.51100000000E-03 0.  1.
         11   -1    0    0    0    0 -0.00000000000E+00 -0.00000000000E+00 -0.45593999997E+02  0.45594000000E+02  0.51100000000E-03 0. -1.
    9900012    2    1    2    0    0 -0.79888685386E+01 -0.39915548020E+02  0.15051577398E+02  0.47787274471E+02  0.20000015622E+02 0.  0.
         12    1    1    2    0    0  0.79888685386E+01  0.39915548020E+02 -0.15051577398E+02  0.43400725529E+02  0.00000000000E+00 0. -1.
         11    1    3    3    0    0 -0.10878614830E+02 -0.97152525826E+01  0.34699764532E+01  0.14992369066E+02  0.51100000000E-03 0. -1.
        -11    1    3    3    0    0 -0.37673070170E+00 -0.19247698291E+02  0.74007904426E+01  0.20624924605E+02  0.51100000000E-03 0.  1.
         12    1    3    3    0    0  0.32664769935E+01 -0.10952597147E+02  0.41808105021E+01  0.12169980800E+02  0.00000000000E+00 0. -1.
</event>
<event>
 7    1  0.7357971E-011  0.4778727E+02  0.7816164E-02  0.1312668E+00
        -11   -1    0    0    0    0  0.00000000000E+00  0.00000000000E+00  0.45593999997E+02  0.45594000000E+02  0.51100000000E-03 0. -1.
         11   -1    0    0    0    0 -0.00000000000E+00 -0.00000000000E+00 -0.45593999997E+02  0.45594000000E+02  0.51100000000E-03 0.  1.
    9900012    2    1    2    0    0  0.12796684326E+00  0.63790622226E+01 -0.42929176839E+02  0.47787273803E+02  0.20000012577E+02 0.  0.
         12    1    1    2    0    0 -0.12796684326E+00 -0.63790622226E+01  0.42929176839E+02  0.43400726197E+02  0.00000000000E+00 0. -1.
         11    1    3    3    0    0  0.57574173267E+01 -0.59399130742E-01 -0.37034523995E+01  0.68459435045E+01  0.51100000000E-03 0. -1.
        -11    1    3    3    0    0 -0.71488668620E+01  0.40092275770E+01 -0.21965569389E+02  0.23444966240E+02  0.51100000000E-03 0.  1.
        -12    1    3    3    0    0  0.15194163786E+01  0.24292337764E+01 -0.17260155051E+02  0.17496364058E+02  0.00000000000E+00 0.  1.
</event>
<event>
 7    1  0.7908966E-011  0.4778725E+02  0.7816164E-02  0.1312668E+00
        -11   -1    0    0    0    0  0.00000000000E+00  0.00000000000E+00  0.45593999997E+02  0.45594000000E+02  0.51100000000E-03 0.  1.
         11   -1    0    0    0    0 -0.00000000000E+00 -0.00000000000E+00 -0.45593999997E+02  0.45594000000E+02  0.51100000000E-03 0. -1.
    9900012    2    1    2    0    0 -0.36960901448E+02 -0.32681652584E+01 -0.22513022788E+02  0.47787247299E+02  0.19999891733E+02 0.  0.
         12    1    1    2    0    0  0.36960901448E+02  0.32681652584E+01  0.22513022788E+02  0.43400752701E+02  0.00000000000E+00 0. -1.
         11    1    3    3    0    0 -0.26646441688E+01 -0.58774059171E+01 -0.53425263717E+01  0.83777572867E+01  0.51100000000E-03 0. -1.
        -11    1    3    3    0    0 -0.25738680051E+02 -0.18743586645E+01 -0.12214920258E+02  0.28551657541E+02  0.51100000000E-03 0.  1.
        -12    1    3    3    0    0 -0.85575772276E+01  0.44835993231E+01 -0.49555761584E+01  0.10857832471E+02  0.00000000000E+00 0.  1.
</event>
<event>
 7    1  0.7357971E-011  0.4778726E+02  0.7816164E-02  0.1312668E+00
        -11   -1    0    0    0    0  0.00000000000E+00  0.00000000000E+00  0.45593999997E+02  0.45594000000E+02  0.51100000000E-03 0. -1.
         11   -1    0    0    0    0 -0.00000000000E+00 -0.00000000000E+00 -0.45593999997E+02  0.45594000000E+02  0.51100000000E-03 0.  1.
    9900012    2    1    2    0    0 -0.40083824336E+02 -0.14758304424E+02  0.76878780242E+01  0.47787262779E+02  0.19999962313E+02 0.  0.
        -12    1    1    2    0    0  0.40083824336E+02  0.14758304424E+02 -0.76878780242E+01  0.43400737221E+02  0.00000000000E+00 0.  1.
         11    1    3    3    0    0 -0.11319837072E+02 -0.78365183537E+01  0.21446213411E+01  0.13933740783E+02  0.51100000000E-03 0. -1.
        -11    1    3    3    0    0 -0.29053369296E+01 -0.68569551574E+01  0.22884728335E+01  0.77907589409E+01  0.51100000000E-03 0.  1.
        -12    1    3    3    0    0 -0.25858650334E+02 -0.64830913362E-01  0.32547838495E+01  0.26062763055E+02  0.00000000000E+00 0.  1.
</event>
<event>
 7    1  0.7357971E-011  0.4778727E+02  0.7816164E-02  0.1312668E+00
        -11   -1    0    0    0    0  0.00000000000E+00  0.00000000000E+00  0.45593999997E+02  0.45594000000E+02  0.51100000000E-03 0.  1.
         11   -1    0    0    0    0 -0.00000000000E+00 -0.00000000000E+00 -0.45593999997E+02  0.45594000000E+02  0.51100000000E-03 0. -1.
    9900012    2    1    2    0    0 -0.12884377321E+02  0.41273872849E+02 -0.37528266588E+01  0.47787268821E+02  0.19999989864E+02 0.  0.
        -12    1    1    2    0    0  0.12884377321E+02 -0.41273872849E+02  0.37528266588E+01  0.43400731179E+02  0.00000000000E+00 0.  1.
         11    1    3    3    0    0 -0.13358597826E+02  0.26398669669E+02  0.30833046957E+01  0.29746405905E+02  0.51100000000E-03 0. -1.
        -11    1    3    3    0    0  0.25742518416E+01  0.15517030499E+01 -0.23862082129E+01  0.38377786277E+01  0.51100000000E-03 0.  1.
         12    1    3    3    0    0 -0.21000313368E+01  0.13323500130E+02 -0.44499231416E+01  0.14203084288E+02  0.00000000000E+00 0. -1.
</event>
<event>
 7    1  0.7357971E-011  0.4778727E+02  0.7816164E-02  0.1312668E+00
        -11   -1    0    0    0    0  0.00000000000E+00  0.00000000000E+00  0.45593999997E+02  0.45594000000E+02  0.51100000000E-03 0. -1.
         11   -1    0    0    0    0 -0.00000000000E+00 -0.00000000000E+00 -0.45593999997E+02  0.45594000000E+02  0.51100000000E-03 0.  1.
    9900012    2    1    2    0    0  0.23219579289E+02 -0.20263000348E+02 -0.30559534415E+02  0.47787272020E+02  0.20000004448E+02 0.  0.
         12    1    1    2    0    0 -0.23219579289E+02  0.20263000348E+02  0.30559534415E+02  0.43400727980E+02  0.00000000000E+00 0. -1.
         11    1    3    3    0    0  0.10380644827E+02 -0.11227190225E+02 -0.60190829659E+01  0.16432800960E+02  0.51100000000E-03 0.  1.
        -11    1    3    3    0    0  0.35125593251E+01  0.27367633479E+01 -0.65250175372E+01  0.78996076331E+01  0.51100000000E-03 0. -1.
        -12    1    3    3    0    0  0.93263751375E+01 -0.11772573471E+02 -0.18015433912E+02  0.23454863427E+02  0.00000000000E+00 0.  1.
</event>
<event>
 7    1  0.7357971E-011  0.4778726E+02  0.7816164E-02  0.1312668E+00
        -11   -1    0    0    0    0  0.00000000000E+00  0.00000000000E+00  0.45593999997E+02  0.45594000000E+02  0.51100000000E-03 0. -1.
         11   -1    0    0    0    0 -0.00000000000E+00 -0.00000000000E+00 -0.45593999997E+02  0.45594000000E+02  0.51100000000E-03 0.  1.
    9900012    2    1    2    0    0 -0.26529546587E+02 -0.23563902246E+02 -0.24990990407E+02  0.47787263455E+02  0.19999965395E+02 0.  0.
         12    1    1    2    0    0  0.26529546587E+02  0.23563902246E+02  0.24990990407E+02  0.43400736545E+02  0.00000000000E+00 0. -1.
         11    1    3    3    0    0 -0.16536009897E+02 -0.96356201449E+01 -0.12183221297E+02  0.22687346260E+02  0.51100000000E-03 0.  1.
        -11    1    3    3    0    0 -0.37499629951E+01 -0.10751140954E+02 -0.10778192195E+01  0.11437261421E+02  0.51100000000E-03 0. -1.
        -12    1    3    3    0    0 -0.62435736947E+01 -0.31771411471E+01 -0.11729949891E+02  0.13662655774E+02  0.00000000000E+00 0.  1.
</event>
<event>
 7    1  0.7357971E-011  0.4778727E+02  0.7816164E-02  0.1312668E+00
        -11   -1    0    0    0    0  0.00000000000E+00  0.00000000000E+00  0.45593999997E+02  0.45594000000E+02  0.51100000000E-03 0. -1.
         11   -1    0    0    0    0 -0.00000000000E+00 -0.00000000000E+00 -0.45593999997E+02  0.45594000000E+02  0.51100000000E-03 0.  1.
    9900012    2    1    2    0    0  0.26759788870E+02  0.14737072735E+01 -0.34137445474E+02  0.47787270778E+02  0.19999998785E+02 0.  0.
         12    1    1    2    0    0 -0.26759788870E+02 -0.14737072735E+01  0.34137445474E+02  0.43400729222E+02  0.00000000000E+00 0. -1.
         11    1    3    3    0    0  0.83124337265E+01 -0.63845019530E+01 -0.16098814301E+02  0.19210159859E+02  0.51100000000E-03 0. -1.
        -11    1    3    3    0    0  0.15588928457E+02  0.30208521212E+01 -0.99859011803E+01  0.18757890623E+02  0.51100000000E-03 0.  1.
         12    1    3    3    0    0  0.28584266863E+01  0.48373571053E+01 -0.80527299926E+01  0.98192202959E+01  0.00000000000E+00 0. -1.
</event>
<event>
 7    1  0.7357971E-011  0.4778727E+02  0.7816164E-02  0.1312668E+00
        -11   -1    0    0    0    0  0.00000000000E+00  0.00000000000E+00  0.45593999997E+02  0.45594000000E+02  0.51100000000E-03 0. -1.
         11   -1    0    0    0    0 -0.00000000000E+00 -0.00000000000E+00 -0.45593999997E+02  0.45594000000E+02  0.51100000000E-03 0.  1.
    9900012    2    1    2    0    0  0.93521036438E+01  0.36753482697E+02 -0.21103154350E+02  0.47787268942E+02  0.19999990412E+02 0.  0.
         12    1    1    2    0    0 -0.93521036438E+01 -0.36753482697E+02  0.21103154350E+02  0.43400731058E+02  0.00000000000E+00 0. -1.
         11    1    3    3    0    0  0.65034213734E+01  0.11907095907E+02 -0.56402614110E+01  0.14693058618E+02  0.51100000000E-03 0. -1.
        -11    1    3    3    0    0 -0.34910005261E+01 -0.57100853270E-01 -0.11309182145E+01  0.36700574177E+01  0.51100000000E-03 0.  1.
        -12    1    3    3    0    0  0.63396827964E+01  0.24903487642E+02 -0.14331974725E+02  0.29424152906E+02  0.00000000000E+00 0.  1.
</event>
<event>
 7    1  0.7357971E-011  0.4778727E+02  0.7816164E-02  0.1312668E+00
        -11   -1    0    0    0    0  0.00000000000E+00  0.00000000000E+00  0.45593999997E+02  0.45594000000E+02  0.51100000000E-03 0. -1.
         11   -1    0    0    0    0 -0.00000000000E+00 -0.00000000000E+00 -0.45593999997E+02  0.45594000000E+02  0.51100000000E-03 0.  1.
    9900012    2    1    2    0    0  0.33361831522E+02  0.59289202016E+01 -0.27119355417E+02  0.47787270335E+02  0.19999996764E+02 0.  0.
         12    1    1    2    0    0 -0.33361831522E+02 -0.59289202016E+01  0.27119355417E+02  0.43400729665E+02  0.00000000000E+00 0. -1.
         11    1    3    3    0    0 -0.13820067975E+01 -0.54985434652E+00 -0.25596195562E+01  0.29603944204E+01  0.51100000000E-03 0. -1.
        -11    1    3    3    0    0  0.24244700640E+02  0.55840582048E+01 -0.23522431616E+02  0.34238750044E+02  0.51100000000E-03 0.  1.
        -12    1    3    3    0    0  0.10499137680E+02  0.89471634332E+00 -0.10373042444E+01  0.10588125871E+02  0.00000000000E+00 0.  1.
</event>
<event>
 7    1  0.7357971E-011  0.4778727E+02  0.7816164E-02  0.1312668E+00
        -11   -1    0    0    0    0  0.00000000000E+00  0.00000000000E+00  0.45593999997E+02  0.45594000000E+02  0.51100000000E-03 0. -1.
         11   -1    0    0    0    0 -0.00000000000E+00 -0.00000000000E+00 -0.45593999997E+02  0.45594000000E+02  0.51100000000E-03 0.  1.
    9900012    2    1    2    0    0 -0.55646339180E+00  0.26854010075E+02 -0.34090697973E+02  0.47787271931E+02  0.20000004041E+02 0.  0.
         12    1    1    2    0    0  0.55646339180E+00 -0.26854010075E+02  0.34090697973E+02  0.43400728069E+02  0.00000000000E+00 0. -1.
         11    1    3    3    0    0 -0.26384045769E+01 -0.24105592404E+01 -0.66483926677E+01  0.75480527216E+01  0.51100000000E-03 0. -1.
        -11    1    3    3    0    0 -0.80213976115E-01  0.14495975564E+02 -0.13063596364E+02  0.19514028084E+02  0.51100000000E-03 0.  1.
         12    1    3    3    0    0  0.21621551612E+01  0.14768593752E+02 -0.14378708942E+02  0.20725191125E+02  0.00000000000E+00 0. -1.
</event>
<event>
 7    1  0.7357971E-011  0.4778727E+02  0.7816164E-02  0.1312668E+00
        -11   -1    0    0    0    0  0.00000000000E+00  0.00000000000E+00  0.45593999997E+02  0.45594000000E+02  0.51100000000E-03 0. -1.
         11   -1    0    0    0    0 -0.00000000000E+00 -0.00000000000E+00 -0.45593999997E+02  0.45594000000E+02  0.51100000000E-03 0.  1.
    9900012    2    1    2    0    0  0.16335170309E+02 -0.38747280466E+02 -0.10744000506E+02  0.47787273285E+02  0.20000010214E+02 0.  0.
         12    1    1    2    0    0 -0.16335170309E+02  0.38747280466E+02  0.10744000506E+02  0.43400726715E+02  0.00000000000E+00 0. -1.
         11    1    3    3    0    0 -0.14381052941E+01 -0.67182476482E+01 -0.83488108288E+01  0.10812291192E+02  0.51100000000E-03 0. -1.
        -11    1    3    3    0    0  0.10618248346E+02 -0.22761225202E+02 -0.27131814976E+01  0.25262262858E+02  0.51100000000E-03 0.  1.
        -12    1    3    3    0    0  0.71550272575E+01 -0.92678076162E+01  0.31799182072E+00  0.11712719234E+02  0.00000000000E+00 0.  1.
</event>
<event>
 7    1  0.7357971E-011  0.4778728E+02  0.7816164E-02  0.1312668E+00
        -11   -1    0    0    0    0  0.00000000000E+00  0.00000000000E+00  0.45593999997E+02  0.45594000000E+02  0.51100000000E-03 0. -1.
         11   -1    0    0    0    0 -0.00000000000E+00 -0.00000000000E+00 -0.45593999997E+02  0.45594000000E+02  0.51100000000E-03 0.  1.
    9900012    2    1    2    0    0  0.27085376102E+02 -0.27937094549E+02 -0.19222987763E+02  0.47787284465E+02  0.20000061189E+02 0.  0.
         12    1    1    2    0    0 -0.27085376102E+02  0.27937094549E+02  0.19222987763E+02  0.43400715535E+02  0.00000000000E+00 0. -1.
         11    1    3    3    0    0  0.13555413789E+01  0.55503717516E-01 -0.44723818299E+01  0.46736252081E+01  0.51100000000E-03 0. -1.
        -11    1    3    3    0    0  0.25448534463E+02 -0.21438275094E+02 -0.92085292684E+01  0.34525708637E+02  0.51100000000E-03 0.  1.
        -12    1    3    3    0    0  0.28130025965E+00 -0.65543231725E+01 -0.55420766645E+01  0.85879506194E+01  0.00000000000E+00 0.  1.
</event>
<event>
 7    1  0.7357971E-011  0.4778727E+02  0.7816164E-02  0.1312668E+00
        -11   -1    0    0    0    0  0.00000000000E+00  0.00000000000E+00  0.45593999997E+02  0.45594000000E+02  0.51100000000E-03 0. -1.
         11   -1    0    0    0    0 -0.00000000000E+00 -0.00000000000E+00 -0.45593999997E+02  0.45594000000E+02  0.51100000000E-03 0.  1.
    9900012    2    1    2    0    0  0.35409978877E+02  0.14566019687E+02  0.20434964299E+02  0.47787270750E+02  0.19999998656E+02 0.  0.
        -12    1    1    2    0    0 -0.35409978877E+02 -0.14566019687E+02 -0.20434964299E+02  0.43400729250E+02  0.00000000000E+00 0.  1.
         11    1    3    3    0    0  0.25741387295E+02  0.14337038258E+02  0.16241513791E+02  0.33644560576E+02  0.51100000000E-03 0. -1.
        -11    1    3    3    0    0  0.38060544215E+01 -0.39997578659E+00  0.67157839508E+01  0.77296691536E+01  0.51100000000E-03 0.  1.
         12    1    3    3    0    0  0.58625371601E+01  0.62895721557E+00 -0.25223334421E+01  0.64130410201E+01  0.00000000000E+00 0. -1.
</event>
<event>
 7    1  0.7357971E-011  0.4778727E+02  0.7816164E-02  0.1312668E+00
        -11   -1    0    0    0    0  0.00000000000E+00  0.00000000000E+00  0.45593999997E+02  0.45594000000E+02  0.51100000000E-03 0. -1.
         11   -1    0    0    0    0 -0.00000000000E+00 -0.00000000000E+00 -0.45593999997E+02  0.45594000000E+02  0.51100000000E-03 0.  1.
    9900012    2    1    2    0    0  0.25630722431E+02  0.93234418466E+01 -0.33760373365E+02  0.47787270629E+02  0.19999998105E+02 0.  0.
         12    1    1    2    0    0 -0.25630722431E+02 -0.93234418466E+01  0.33760373365E+02  0.43400729371E+02  0.00000000000E+00 0. -1.
         11    1    3    3    0    0  0.92196106914E+01  0.56566976032E+00 -0.16354247026E+01  0.93806086049E+01  0.51100000000E-03 0. -1.
        -11    1    3    3    0    0  0.45360501875E+01  0.55112974127E+01 -0.52960987135E+01  0.88881276048E+01  0.51100000000E-03 0.  1.
         12    1    3    3    0    0  0.11875061552E+02  0.32464746736E+01 -0.26828849949E+02  0.29518534419E+02  0.00000000000E+00 0. -1.
</event>
<event>
 7    1  0.7357971E-011  0.4778727E+02  0.7816164E-02  0.1312668E+00
        -11   -1    0    0    0    0  0.00000000000E+00  0.00000000000E+00  0.45593999997E+02  0.45594000000E+02  0.51100000000E-03 0. -1.
         11   -1    0    0    0    0 -0.00000000000E+00 -0.00000000000E+00 -0.45593999997E+02  0.45594000000E+02  0.51100000000E-03 0.  1.
    9900012    2    1    2    0    0 -0.25081198326E+02 -0.25749327358E+01  0.35326008187E+02  0.47787266798E+02  0.19999980637E+02 0.  0.
        -12    1    1    2    0    0  0.25081198326E+02  0.25749327358E+01 -0.35326008187E+02  0.43400733202E+02  0.00000000000E+00 0.  1.
         11    1    3    3    0    0 -0.12209145002E+02 -0.48056891660E+01  0.71034499411E+01  0.14920350913E+02  0.51100000000E-03 0. -1.
        -11    1    3    3    0    0 -0.45887007257E+01  0.34177111539E+01  0.21150637968E+02  0.21910874254E+02  0.51100000000E-03 0.  1.
        -12    1    3    3    0    0 -0.82833525979E+01 -0.11869547237E+01  0.70719202787E+01  0.10956041630E+02  0.00000000000E+00 0.  1.
</event>
<event>
 7    1  0.8705437E-011  0.4778727E+02  0.7816164E-02  0.1312668E+00
        -11   -1    0    0    0    0  0.00000000000E+00  0.00000000000E+00  0.45593999997E+02  0.45594000000E+02  0.51100000000E-03 0. -1.
         11   -1    0    0    0    0 -0.00000000000E+00 -0.00000000000E+00 -0.45593999997E+02  0.45594000000E+02  0.51100000000E-03 0.  1.
    9900012    2    1    2    0    0  0.98371203305E+01  0.19606123887E+02  0.37449359143E+02  0.47787268088E+02  0.19999986522E+02 0.  0.
        -12    1    1    2    0    0 -0.98371203305E+01 -0.19606123887E+02 -0.37449359143E+02  0.43400731912E+02  0.00000000000E+00 0.  1.
         11    1    3    3    0    0  0.13009802067E+01  0.20793767538E+01 -0.18037856451E+01  0.30446674855E+01  0.51100000000E-03 0. -1.
        -11    1    3    3    0    0 -0.29173597922E+00 -0.43285847085E+00 -0.15490053455E+00  0.54449129844E+00  0.51100000000E-03 0.  1.
         12    1    3    3    0    0  0.88278761030E+01  0.17959605604E+02  0.39408045322E+02  0.44198109304E+02  0.00000000000E+00 0. -1.
</event>
<event>
 7    1  0.7357971E-011  0.4778727E+02  0.7816164E-02  0.1312668E+00
        -11   -1    0    0    0    0  0.00000000000E+00  0.00000000000E+00  0.45593999997E+02  0.45594000000E+02  0.51100000000E-03 0. -1.
         11   -1    0    0    0    0 -0.00000000000E+00 -0.00000000000E+00 -0.45593999997E+02  0.45594000000E+02  0.51100000000E-03 0.  1.
    9900012    2    1    2    0    0 -0.79854086351E+01  0.12886376130E+02 -0.40666914914E+02  0.47787269483E+02  0.19999992879E+02 0.  0.
         12    1    1    2    0    0  0.79854086351E+01 -0.12886376130E+02  0.40666914914E+02  0.43400730517E+02  0.00000000000E+00 0. -1.
         11    1    3    3    0    0 -0.66001334096E+01 -0.24060104156E+01 -0.70719390092E+01  0.99680975495E+01  0.51100000000E-03 0. -1.
        -11    1    3    3    0    0 -0.27490341639E+01  0.19791501006E+01 -0.11487572848E+02  0.11976583576E+02  0.51100000000E-03 0.  1.
         12    1    3    3    0    0  0.13637589385E+01  0.13313236444E+02 -0.22107403057E+02  0.25842588357E+02  0.00000000000E+00 0. -1.
</event>
<event>
 7    1  0.7357971E-011  0.4778727E+02  0.7816164E-02  0.1312668E+00
        -11   -1    0    0    0    0  0.00000000000E+00  0.00000000000E+00  0.45593999997E+02  0.45594000000E+02  0.51100000000E-03 0. -1.
         11   -1    0    0    0    0 -0.00000000000E+00 -0.00000000000E+00 -0.45593999997E+02  0.45594000000E+02  0.51100000000E-03 0.  1.
    9900012    2    1    2    0    0 -0.15681131764E+02  0.30630891110E+02  0.26447568913E+02  0.47787270916E+02  0.19999999414E+02 0.  0.
        -12    1    1    2    0    0  0.15681131764E+02 -0.30630891110E+02 -0.26447568913E+02  0.43400729084E+02  0.00000000000E+00 0.  1.
         11    1    3    3    0    0 -0.86426958144E+01  0.11199677748E+02  0.17616549194E+02  0.22593622515E+02  0.51100000000E-03 0. -1.
        -11    1    3    3    0    0  0.32841838133E+00  0.50845530820E+01  0.74248406533E+01  0.90049318524E+01  0.51100000000E-03 0.  1.
         12    1    3    3    0    0 -0.73668543313E+01  0.14346660280E+02  0.14061790664E+01  0.16188716549E+02  0.00000000000E+00 0. -1.
</event>
<event>
 7    1  0.7357971E-011  0.4778727E+02  0.7816164E-02  0.1312668E+00
        -11   -1    0    0    0    0  0.00000000000E+00  0.00000000000E+00  0.45593999997E+02  0.45594000000E+02  0.51100000000E-03 0.  1.
         11   -1    0    0    0    0 -0.00000000000E+00 -0.00000000000E+00 -0.45593999997E+02  0.45594000000E+02  0.51100000000E-03 0. -1.
    9900012    2    1    2    0    0 -0.80845938960E+01  0.18684080846E+02 -0.38329725293E+02  0.47787269862E+02  0.19999994608E+02 0.  0.
         12    1    1    2    0    0  0.80845938960E+01 -0.18684080846E+02  0.38329725293E+02  0.43400730138E+02  0.00000000000E+00 0. -1.
         11    1    3    3    0    0  0.18682548739E+01  0.90649827438E+01 -0.20832708498E+02  0.22796184594E+02  0.51100000000E-03 0. -1.
        -11    1    3    3    0    0 -0.10551563287E+02  0.77832502237E+01 -0.18607919046E+02  0.22763328477E+02  0.51100000000E-03 0.  1.
         12    1    3    3    0    0  0.59871451719E+00  0.18358478783E+01  0.11109022518E+01  0.22277567907E+01  0.00000000000E+00 0. -1.
</event>
<event>
 7    1  0.8665292E-011  0.4778728E+02  0.7816164E-02  0.1312668E+00
        -11   -1    0    0    0    0  0.00000000000E+00  0.00000000000E+00  0.45593999997E+02  0.45594000000E+02  0.51100000000E-03 0. -1.
         11   -1    0    0    0    0 -0.00000000000E+00 -0.00000000000E+00 -0.45593999997E+02  0.45594000000E+02  0.51100000000E-03 0.  1.
    9900012    2    1    2    0    0 -0.12147454353E+02 -0.48264953714E+01  0.41385588499E+02  0.47787278345E+02  0.20000033285E+02 0.  0.
        -12    1    1    2    0    0  0.12147454353E+02  0.48264953714E+01 -0.41385588499E+02  0.43400721655E+02  0.00000000000E+00 0.  1.
         11    1    3    3    0    0 -0.37452340137E+01 -0.91395975164E+01  0.26708090633E+02  0.28475974541E+02  0.51100000000E-03 0. -1.
        -11    1    3    3    0    0 -0.38129955245E+01  0.52744324148E+01  0.12602506869E+02  0.14183855323E+02  0.51100000000E-03 0.  1.
        -12    1    3    3    0    0 -0.45892248143E+01 -0.96133026979E+00  0.20749909967E+01  0.51274484805E+01  0.00000000000E+00 0.  1.
</event>
<event>
 7    1  0.7357971E-011  0.4778723E+02  0.7816164E-02  0.1312668E+00
        -11   -1    0    0    0    0  0.00000000000E+00  0.00000000000E+00  0.45593999997E+02  0.45594000000E+02  0.51100000000E-03 0. -1.
         11   -1    0    0    0    0 -0.00000000000E+00 -0.00000000000E+00 -0.45593999997E+02  0.45594000000E+02  0.51100000000E-03 0.  1.
    9900012    2    1    2    0    0 -0.28121523985E+02 -0.98405989875E+01  0.31558983408E+02  0.47787228885E+02  0.19999807775E+02 0.  0.
        -12    1    1    2    0    0  0.28121523985E+02  0.98405989875E+01 -0.31558983408E+02  0.43400771115E+02  0.00000000000E+00 0.  1.
         11    1    3    3    0    0 -0.11617358885E+02 -0.52639848488E+01  0.91610069169E+01  0.15703394918E+02  0.51100000000E-03 0. -1.
        -11    1    3    3    0    0 -0.17593504266E+02 -0.96959871224E-03  0.14103746911E+02  0.22548770931E+02  0.51100000000E-03 0.  1.
        -12    1    3    3    0    0  0.10893391659E+01 -0.45756445400E+01  0.82942295799E+01  0.95350630359E+01  0.00000000000E+00 0.  1.
</event>
<event>
 7    1  0.7357971E-011  0.4778727E+02  0.7816164E-02  0.1312668E+00
        -11   -1    0    0    0    0  0.00000000000E+00  0.00000000000E+00  0.45593999997E+02  0.45594000000E+02  0.51100000000E-03 0. -1.
         11   -1    0    0    0    0 -0.00000000000E+00 -0.00000000000E+00 -0.45593999997E+02  0.45594000000E+02  0.51100000000E-03 0.  1.
    9900012    2    1    2    0    0 -0.31645703964E+02  0.20923225026E+02  0.21080589806E+02  0.47787271994E+02  0.20000004328E+02 0.  0.
        -12    1    1    2    0    0  0.31645703964E+02 -0.20923225026E+02 -0.21080589806E+02  0.43400728006E+02  0.00000000000E+00 0.  1.
         11    1    3    3    0    0 -0.15724847529E+02  0.15027998052E+02  0.50358769101E+01  0.22326477819E+02  0.51100000000E-03 0. -1.
        -11    1    3    3    0    0 -0.16175666990E+02  0.75694555833E+01  0.15592073897E+02  0.23707838979E+02  0.51100000000E-03 0.  1.
         12    1    3    3    0    0  0.25481055442E+00 -0.16742286094E+01  0.45263899871E+00  0.17529551958E+01  0.00000000000E+00 0. -1.
</event>
<event>
 7    1  0.7357971E-011  0.4778727E+02  0.7816164E-02  0.1312668E+00
        -11   -1    0    0    0    0  0.00000000000E+00  0.00000000000E+00  0.45593999997E+02  0.45594000000E+02  0.51100000000E-03 0. -1.
         11   -1    0    0    0    0 -0.00000000000E+00 -0.00000000000E+00 -0.45593999997E+02  0.45594000000E+02  0.51100000000E-03 0.  1.
    9900012    2    1    2    0    0 -0.30552525122E+02  0.19932832508E+02  0.23512739788E+02  0.47787268031E+02  0.19999986259E+02 0.  0.
        -12    1    1    2    0    0  0.30552525122E+02 -0.19932832508E+02 -0.23512739788E+02  0.43400731969E+02  0.00000000000E+00 0.  1.
         11    1    3    3    0    0 -0.67320962659E+01  0.14405751011E+00 -0.42514965979E+00  0.67470456641E+01  0.51100000000E-03 0.  1.
        -11    1    3    3    0    0 -0.15332295719E+02  0.17927229639E+02  0.12564377849E+02  0.26726923608E+02  0.51100000000E-03 0. -1.
        -12    1    3    3    0    0 -0.84881331375E+01  0.18615453597E+01  0.11373511598E+02  0.14313298759E+02  0.00000000000E+00 0.  1.
</event>
<event>
 7    1  0.7357971E-011  0.4778727E+02  0.7816164E-02  0.1312668E+00
        -11   -1    0    0    0    0  0.00000000000E+00  0.00000000000E+00  0.45593999997E+02  0.45594000000E+02  0.51100000000E-03 0. -1.
         11   -1    0    0    0    0 -0.00000000000E+00 -0.00000000000E+00 -0.45593999997E+02  0.45594000000E+02  0.51100000000E-03 0.  1.
    9900012    2    1    2    0    0 -0.79143854336E+01  0.11718542446E+00  0.42672848064E+02  0.47787271998E+02  0.20000004347E+02 0.  0.
        -12    1    1    2    0    0  0.79143854336E+01 -0.11718542446E+00 -0.42672848064E+02  0.43400728002E+02  0.00000000000E+00 0.  1.
         11    1    3    3    0    0 -0.20048033796E+01 -0.47602817795E+01  0.11452362107E+02  0.12563284495E+02  0.51100000000E-03 0. -1.
        -11    1    3    3    0    0  0.17009953108E+01  0.75567602773E+01  0.19618520567E+02  0.21092282011E+02  0.51100000000E-03 0.  1.
        -12    1    3    3    0    0 -0.76105773648E+01 -0.26792930734E+01  0.11601965390E+02  0.14131705492E+02  0.00000000000E+00 0.  1.
</event>
<event>
 7    1  0.7357971E-011  0.4778727E+02  0.7816164E-02  0.1312668E+00
        -11   -1    0    0    0    0  0.00000000000E+00  0.00000000000E+00  0.45593999997E+02  0.45594000000E+02  0.51100000000E-03 0. -1.
         11   -1    0    0    0    0 -0.00000000000E+00 -0.00000000000E+00 -0.45593999997E+02  0.45594000000E+02  0.51100000000E-03 0.  1.
    9900012    2    1    2    0    0 -0.23667707211E+02  0.24642042965E+01  0.36295871789E+02  0.47787274472E+02  0.20000015628E+02 0.  0.
        -12    1    1    2    0    0  0.23667707211E+02 -0.24642042965E+01 -0.36295871789E+02  0.43400725528E+02  0.00000000000E+00 0.  1.
         11    1    3    3    0    0 -0.11580576104E+02  0.38859359366E+01  0.20214360501E+02  0.23618437961E+02  0.51100000000E-03 0. -1.
        -11    1    3    3    0    0 -0.10275635072E+02 -0.65568059939E+01  0.86097074883E+01  0.14923385818E+02  0.51100000000E-03 0.  1.
        -12    1    3    3    0    0 -0.18114960361E+01  0.51350743538E+01  0.74718037991E+01  0.92454506932E+01  0.00000000000E+00 0.  1.
</event>
<event>
 7    1  0.7357971E-011  0.4778727E+02  0.7816164E-02  0.1312668E+00
        -11   -1    0    0    0    0  0.00000000000E+00  0.00000000000E+00  0.45593999997E+02  0.45594000000E+02  0.51100000000E-03 0. -1.
         11   -1    0    0    0    0 -0.00000000000E+00 -0.00000000000E+00 -0.45593999997E+02  0.45594000000E+02  0.51100000000E-03 0.  1.
    9900012    2    1    2    0    0  0.19220781468E+02  0.25446365300E+02 -0.29439213777E+02  0.47787271261E+02  0.20000000989E+02 0.  0.
         12    1    1    2    0    0 -0.19220781468E+02 -0.25446365300E+02  0.29439213777E+02  0.43400728739E+02  0.00000000000E+00 0. -1.
         11    1    3    3    0    0  0.68661253359E+01  0.15234234343E+02 -0.19541113391E+02  0.25711489376E+02  0.51100000000E-03 0. -1.
        -11    1    3    3    0    0  0.97292032883E+01  0.88787310841E+01 -0.15971451868E+01  0.13268011731E+02  0.51100000000E-03 0.  1.
        -12    1    3    3    0    0  0.26254528443E+01  0.13333998728E+01 -0.83009551998E+01  0.88077701541E+01  0.00000000000E+00 0.  1.
</event>
<event>
 7    1  0.7357971E-011  0.4778724E+02  0.7816164E-02  0.1312668E+00
        -11   -1    0    0    0    0  0.00000000000E+00  0.00000000000E+00  0.45593999997E+02  0.45594000000E+02  0.51100000000E-03 0. -1.
         11   -1    0    0    0    0 -0.00000000000E+00 -0.00000000000E+00 -0.45593999997E+02  0.45594000000E+02  0.51100000000E-03 0.  1.
    9900012    2    1    2    0    0 -0.12791291888E+02  0.18171687919E+00 -0.41472589056E+02  0.47787241802E+02  0.19999866671E+02 0.  0.
         12    1    1    2    0    0  0.12791291888E+02 -0.18171687919E+00  0.41472589056E+02  0.43400758198E+02  0.00000000000E+00 0. -1.
         11    1    3    3    0    0 -0.97339992257E+01  0.54266539173E+01 -0.12002827060E+02  0.16378863555E+02  0.51100000000E-03 0. -1.
        -11    1    3    3    0    0  0.74888747744E+00  0.21818988431E+01 -0.41407023445E+01  0.47399294491E+01  0.51100000000E-03 0.  1.
         12    1    3    3    0    0 -0.38061801396E+01 -0.74268358813E+01 -0.25329059651E+02  0.26668448797E+02  0.00000000000E+00 0. -1.
</event>
<event>
 7    1  0.7357971E-011  0.4778727E+02  0.7816164E-02  0.1312668E+00
        -11   -1    0    0    0    0  0.00000000000E+00  0.00000000000E+00  0.45593999997E+02  0.45594000000E+02  0.51100000000E-03 0. -1.
         11   -1    0    0    0    0 -0.00000000000E+00 -0.00000000000E+00 -0.45593999997E+02  0.45594000000E+02  0.51100000000E-03 0.  1.
    9900012    2    1    2    0    0  0.10681295427E+02 -0.25114132279E+01 -0.41990783530E+02  0.47787272243E+02  0.20000005464E+02 0.  0.
         12    1    1    2    0    0 -0.10681295427E+02  0.25114132279E+01  0.41990783530E+02  0.43400727757E+02  0.00000000000E+00 0. -1.
         11    1    3    3    0    0 -0.31951545614E+01 -0.20960930418E+01 -0.13882255433E+01  0.40656843374E+01  0.51100000000E-03 0. -1.
        -11    1    3    3    0    0  0.12533794338E+02 -0.42142979840E+00 -0.24129175140E+02  0.27193578227E+02  0.51100000000E-03 0.  1.
         12    1    3    3    0    0  0.13426556509E+01  0.61096123040E-02 -0.16473382846E+02  0.16528009678E+02  0.00000000000E+00 0. -1.
</event>
<event>
 7    1  0.7357971E-011  0.4778727E+02  0.7816164E-02  0.1312668E+00
        -11   -1    0    0    0    0  0.00000000000E+00  0.00000000000E+00  0.45593999997E+02  0.45594000000E+02  0.51100000000E-03 0. -1.
         11   -1    0    0    0    0 -0.00000000000E+00 -0.00000000000E+00 -0.45593999997E+02  0.45594000000E+02  0.51100000000E-03 0.  1.
    9900012    2    1    2    0    0  0.18076769659E+02  0.26559326556E+02 -0.29179716197E+02  0.47787271138E+02  0.20000000427E+02 0.  0.
         12    1    1    2    0    0 -0.18076769659E+02 -0.26559326556E+02  0.29179716197E+02  0.43400728862E+02  0.00000000000E+00 0. -1.
         11    1    3    3    0    0  0.13904177391E+01  0.25492473427E+00  0.23255753081E+01  0.27214975443E+01  0.51100000000E-03 0. -1.
        -11    1    3    3    0    0  0.28810166391E+01  0.23516004501E+01 -0.78263970210E+01  0.86650315720E+01  0.51100000000E-03 0.  1.
         12    1    3    3    0    0  0.13805335281E+02  0.23952801371E+02 -0.23678894484E+02  0.36400742022E+02  0.00000000000E+00 0. -1.
</event>
<event>
 7    1  0.7357971E-011  0.4778732E+02  0.7816164E-02  0.1312668E+00
        -11   -1    0    0    0    0  0.00000000000E+00  0.00000000000E+00  0.45593999997E+02  0.45594000000E+02  0.51100000000E-03 0. -1.
         11   -1    0    0    0    0 -0.00000000000E+00 -0.00000000000E+00 -0.45593999997E+02  0.45594000000E+02  0.51100000000E-03 0.  1.
    9900012    2    1    2    0    0 -0.35425792082E+02  0.98493409422E+01 -0.23056954129E+02  0.47787315727E+02  0.20000203726E+02 0.  0.
         12    1    1    2    0    0  0.35425792082E+02 -0.98493409422E+01  0.23056954129E+02  0.43400684273E+02  0.00000000000E+00 0. -1.
         11    1    3    3    0    0 -0.16159277529E+02  0.15113376653E+01 -0.10179282920E+01  0.16261690259E+02  0.51100000000E-03 0. -1.
        -11    1    3    3    0    0 -0.16656057724E+02  0.58344847831E+01 -0.13397136612E+02  0.22157363139E+02  0.51100000000E-03 0.  1.
         12    1    3    3    0    0 -0.26104568283E+01  0.25035184938E+01 -0.86418892247E+01  0.93682623294E+01  0.00000000000E+00 0. -1.
</event>
<event>
 7    1  0.7357971E-011  0.4778727E+02  0.7816164E-02  0.1312668E+00
        -11   -1    0    0    0    0  0.00000000000E+00  0.00000000000E+00  0.45593999997E+02  0.45594000000E+02  0.51100000000E-03 0. -1.
         11   -1    0    0    0    0 -0.00000000000E+00 -0.00000000000E+00 -0.45593999997E+02  0.45594000000E+02  0.51100000000E-03 0.  1.
    9900012    2    1    2    0    0 -0.31602516205E+02  0.16926298995E+02 -0.24462316306E+02  0.47787267895E+02  0.19999985642E+02 0.  0.
         12    1    1    2    0    0  0.31602516205E+02 -0.16926298995E+02  0.24462316306E+02  0.43400732105E+02  0.00000000000E+00 0. -1.
         11    1    3    3    0    0  0.20623610205E+01  0.24292335368E+01 -0.44224895304E+01  0.54509561054E+01  0.51100000000E-03 0. -1.
        -11    1    3    3    0    0 -0.21125121352E+02  0.55193531153E+01 -0.10817958792E+02  0.24367237095E+02  0.51100000000E-03 0.  1.
        -12    1    3    3    0    0 -0.12539755874E+02  0.89777123428E+01 -0.92218679839E+01  0.17969074695E+02  0.00000000000E+00 0.  1.
</event>
<event>
 7    1  0.7357971E-011  0.4778727E+02  0.7816164E-02  0.1312668E+00
        -11   -1    0    0    0    0  0.00000000000E+00  0.00000000000E+00  0.45593999997E+02  0.45594000000E+02  0.51100000000E-03 0. -1.
         11   -1    0    0    0    0 -0.00000000000E+00 -0.00000000000E+00 -0.45593999997E+02  0.45594000000E+02  0.51100000000E-03 0.  1.
    9900012    2    1    2    0    0  0.20216756031E+02 -0.11549746938E+02  0.36626622572E+02  0.47787270054E+02  0.19999995485E+02 0.  0.
        -12    1    1    2    0    0 -0.20216756031E+02  0.11549746938E+02 -0.36626622572E+02  0.43400729946E+02  0.00000000000E+00 0.  1.
         11    1    3    3    0    0  0.21600662476E+02 -0.10603192113E+02  0.31424848165E+02  0.39579507132E+02  0.51100000000E-03 0. -1.
        -11    1    3    3    0    0 -0.24906796536E+01 -0.30166323348E+01  0.25670281186E+01  0.46790158584E+01  0.51100000000E-03 0.  1.
         12    1    3    3    0    0  0.11067732089E+01  0.20700775098E+01  0.26347462889E+01  0.35287470637E+01  0.00000000000E+00 0. -1.
</event>
<event>
 7    1  0.7357971E-011  0.4778728E+02  0.7816164E-02  0.1312668E+00
        -11   -1    0    0    0    0  0.00000000000E+00  0.00000000000E+00  0.45593999997E+02  0.45594000000E+02  0.51100000000E-03 0.  1.
         11   -1    0    0    0    0 -0.00000000000E+00 -0.00000000000E+00 -0.45593999997E+02  0.45594000000E+02  0.51100000000E-03 0. -1.
    9900012    2    1    2    0    0  0.23671956531E+02 -0.34620947635E+02 -0.11164701312E+02  0.47787284608E+02  0.20000061840E+02 0.  0.
         12    1    1    2    0    0 -0.23671956531E+02  0.34620947635E+02  0.11164701312E+02  0.43400715392E+02  0.00000000000E+00 0. -1.
         11    1    3    3    0    0  0.99284865658E+01 -0.26016023105E+02 -0.11157571998E+02  0.29998328567E+02  0.51100000000E-03 0. -1.
        -11    1    3    3    0    0  0.31404905249E+01 -0.61042619230E+01 -0.50850456082E+00  0.68835507924E+01  0.51100000000E-03 0.  1.
         12    1    3    3    0    0  0.10602979440E+02 -0.25006626075E+01  0.50137524674E+00  0.10905405248E+02  0.00000000000E+00 0. -1.
</event>
<event>
 7    1  0.7357971E-011  0.4778727E+02  0.7816164E-02  0.1312668E+00
        -11   -1    0    0    0    0  0.00000000000E+00  0.00000000000E+00  0.45593999997E+02  0.45594000000E+02  0.51100000000E-03 0. -1.
         11   -1    0    0    0    0 -0.00000000000E+00 -0.00000000000E+00 -0.45593999997E+02  0.45594000000E+02  0.51100000000E-03 0.  1.
    9900012    2    1    2    0    0  0.41496374798E+02 -0.19240151010E+01 -0.12568698002E+02  0.47787272760E+02  0.20000007824E+02 0.  0.
         12    1    1    2    0    0 -0.41496374798E+02  0.19240151010E+01  0.12568698002E+02  0.43400727240E+02  0.00000000000E+00 0. -1.
         11    1    3    3    0    0  0.12253732551E+02  0.44733577842E+00  0.37402832837E+01  0.12819664194E+02  0.51100000000E-03 0. -1.
        -11    1    3    3    0    0  0.88467082491E+01 -0.40594670359E+01 -0.89385963180E+01  0.13215219403E+02  0.51100000000E-03 0.  1.
         12    1    3    3    0    0  0.20395933997E+02  0.16881161565E+01 -0.73703849678E+01  0.21752389164E+02  0.00000000000E+00 0. -1.
</event>
<event>
 7    1  0.7357971E-011  0.4778728E+02  0.7816164E-02  0.1312668E+00
        -11   -1    0    0    0    0  0.00000000000E+00  0.00000000000E+00  0.45593999997E+02  0.45594000000E+02  0.51100000000E-03 0. -1.
         11   -1    0    0    0    0 -0.00000000000E+00 -0.00000000000E+00 -0.45593999997E+02  0.45594000000E+02  0.51100000000E-03 0.  1.
    9900012    2    1    2    0    0  0.25410953615E+02 -0.11189316397E+02  0.33357238282E+02  0.47787277531E+02  0.20000029574E+02 0.  0.
        -12    1    1    2    0    0 -0.25410953615E+02  0.11189316397E+02 -0.33357238282E+02  0.43400722469E+02  0.00000000000E+00 0.  1.
         11    1    3    3    0    0  0.95505591645E+01 -0.95380177652E+01  0.88906006329E+01  0.16162603228E+02  0.51100000000E-03 0. -1.
        -11    1    3    3    0    0  0.10953572719E+02  0.37090509101E+01  0.19976229894E+02  0.23082191729E+02  0.51100000000E-03 0.  1.
        -12    1    3    3    0    0  0.49068217314E+01 -0.53603495414E+01  0.44904077547E+01  0.85424825731E+01  0.00000000000E+00 0.  1.
</event>
<event>
 7    1  0.7357971E-011  0.4778727E+02  0.7816164E-02  0.1312668E+00
        -11   -1    0    0    0    0  0.00000000000E+00  0.00000000000E+00  0.45593999997E+02  0.45594000000E+02  0.51100000000E-03 0. -1.
         11   -1    0    0    0    0 -0.00000000000E+00 -0.00000000000E+00 -0.45593999997E+02  0.45594000000E+02  0.51100000000E-03 0.  1.
    9900012    2    1    2    0    0  0.73353767616E+01 -0.15607181139E+02 -0.39827521529E+02  0.47787270439E+02  0.19999997239E+02 0.  0.
         12    1    1    2    0    0 -0.73353767616E+01  0.15607181139E+02  0.39827521529E+02  0.43400729561E+02  0.00000000000E+00 0. -1.
         11    1    3    3    0    0  0.10013734845E+02 -0.64852442672E+01 -0.28605513092E+02  0.30993687394E+02  0.51100000000E-03 0. -1.
        -11    1    3    3    0    0 -0.12713371971E+01 -0.97327417075E+01 -0.63611267440E+01  0.11696430786E+02  0.51100000000E-03 0.  1.
        -12    1    3    3    0    0 -0.14070208865E+01  0.61080483593E+00 -0.48608816929E+01  0.50971522594E+01  0.00000000000E+00 0.  1.
</event>
<event>
 7    1  0.7357971E-011  0.4778727E+02  0.7816164E-02  0.1312668E+00
        -11   -1    0    0    0    0  0.00000000000E+00  0.00000000000E+00  0.45593999997E+02  0.45594000000E+02  0.51100000000E-03 0. -1.
         11   -1    0    0    0    0 -0.00000000000E+00 -0.00000000000E+00 -0.45593999997E+02  0.45594000000E+02  0.51100000000E-03 0.  1.
    9900012    2    1    2    0    0 -0.22749834317E+02 -0.68747225403E+01 -0.36315374864E+02  0.47787271631E+02  0.20000002676E+02 0.  0.
         12    1    1    2    0    0  0.22749834317E+02  0.68747225403E+01  0.36315374864E+02  0.43400728369E+02  0.00000000000E+00 0. -1.
         11    1    3    3    0    0 -0.10530809211E+02 -0.12258912839E+02 -0.19003855833E+02  0.24946451119E+02  0.51100000000E-03 0. -1.
        -11    1    3    3    0    0 -0.51680321902E+01  0.45284209533E+01 -0.45667323419E+01  0.82504665076E+01  0.51100000000E-03 0.  1.
         12    1    3    3    0    0 -0.70509929150E+01  0.85576934505E+00 -0.12744786689E+02  0.14590354005E+02  0.00000000000E+00 0. -1.
</event>
<event>
 7    1  0.7357971E-011  0.4778727E+02  0.7816164E-02  0.1312668E+00
        -11   -1    0    0    0    0  0.00000000000E+00  0.00000000000E+00  0.45593999997E+02  0.45594000000E+02  0.51100000000E-03 0. -1.
         11   -1    0    0    0    0 -0.00000000000E+00 -0.00000000000E+00 -0.45593999997E+02  0.45594000000E+02  0.51100000000E-03 0.  1.
    9900012    2    1    2    0    0 -0.38891550711E+02  0.12573548613E+02  0.14593708164E+02  0.47787272363E+02  0.20000006014E+02 0.  0.
        -12    1    1    2    0    0  0.38891550711E+02 -0.12573548613E+02 -0.14593708164E+02  0.43400727637E+02  0.00000000000E+00 0.  1.
         11    1    3    3    0    0 -0.18682105261E+02  0.40284653674E+01 -0.10506603691E+01  0.19140362527E+02  0.51100000000E-03 0. -1.
        -11    1    3    3    0    0 -0.11463503829E+02  0.92468532613E+01  0.12528686506E+02  0.19336085465E+02  0.51100000000E-03 0.  1.
         12    1    3    3    0    0 -0.87459416211E+01 -0.70177001525E+00  0.31156820266E+01  0.93108243719E+01  0.00000000000E+00 0. -1.
</event>
<event>
 7    1  0.7357971E-011  0.4778727E+02  0.7816164E-02  0.1312668E+00
        -11   -1    0    0    0    0  0.00000000000E+00  0.00000000000E+00  0.45593999997E+02  0.45594000000E+02  0.51100000000E-03 0. -1.
         11   -1    0    0    0    0 -0.00000000000E+00 -0.00000000000E+00 -0.45593999997E+02  0.45594000000E+02  0.51100000000E-03 0.  1.
    9900012    2    1    2    0    0 -0.39596069666E+02  0.17531207634E+02 -0.29036354201E+01  0.47787273362E+02  0.20000010567E+02 0.  0.
         12    1    1    2    0    0  0.39596069666E+02 -0.17531207634E+02  0.29036354201E+01  0.43400726638E+02  0.00000000000E+00 0. -1.
         11    1    3    3    0    0 -0.25776236174E+01  0.23012033981E+01  0.21386963623E+01  0.40637055730E+01  0.51100000000E-03 0.  1.
        -11    1    3    3    0    0 -0.58861711974E+01  0.95490119856E+01 -0.44608599469E+01  0.12071864520E+02  0.51100000000E-03 0. -1.
        -12    1    3    3    0    0 -0.31132274851E+02  0.56809922501E+01 -0.58147183545E+00  0.31651703269E+02  0.00000000000E+00 0.  1.
</event>
<event>
 7    1  0.7357971E-011  0.4778727E+02  0.7816164E-02  0.1312668E+00
        -11   -1    0    0    0    0  0.00000000000E+00  0.00000000000E+00  0.45593999997E+02  0.45594000000E+02  0.51100000000E-03 0.  1.
         11   -1    0    0    0    0 -0.00000000000E+00 -0.00000000000E+00 -0.45593999997E+02  0.45594000000E+02  0.51100000000E-03 0. -1.
    9900012    2    1    2    0    0 -0.31401499655E+02 -0.26993929818E+02 -0.12996021992E+02  0.47787274024E+02  0.20000013585E+02 0.  0.
        -12    1    1    2    0    0  0.31401499655E+02  0.26993929818E+02  0.12996021992E+02  0.43400725976E+02  0.00000000000E+00 0.  1.
         11    1    3    3    0    0 -0.15667400324E+02 -0.15538661069E+02  0.28382504087E+01  0.22247990614E+02  0.51100000000E-03 0. -1.
        -11    1    3    3    0    0 -0.96102650870E+01 -0.41037154860E+01 -0.88415390131E+01  0.13688334019E+02  0.51100000000E-03 0.  1.
         12    1    3    3    0    0 -0.61238342439E+01 -0.73515532637E+01 -0.69927333877E+01  0.11850949391E+02  0.00000000000E+00 0. -1.
</event>
<event>
 7    1  0.7357971E-011  0.4778727E+02  0.7816164E-02  0.1312668E+00
        -11   -1    0    0    0    0  0.00000000000E+00  0.00000000000E+00  0.45593999997E+02  0.45594000000E+02  0.51100000000E-03 0. -1.
         11   -1    0    0    0    0 -0.00000000000E+00 -0.00000000000E+00 -0.45593999997E+02  0.45594000000E+02  0.51100000000E-03 0.  1.
    9900012    2    1    2    0    0 -0.38937476883E+02  0.19161662013E+02 -0.57172193038E+00  0.47787271168E+02  0.20000000566E+02 0.  0.
         12    1    1    2    0    0  0.38937476883E+02 -0.19161662013E+02  0.57172193038E+00  0.43400728832E+02  0.00000000000E+00 0. -1.
         11    1    3    3    0    0 -0.19993317297E+01  0.61884502202E+01  0.41712974354E+01  0.77261870317E+01  0.51100000000E-03 0. -1.
        -11    1    3    3    0    0 -0.88989056642E+01  0.60600699074E+01  0.16746179410E+00  0.10767683735E+02  0.51100000000E-03 0.  1.
         12    1    3    3    0    0 -0.28039239490E+02  0.69131418852E+01 -0.49104811599E+01  0.29293400402E+02  0.00000000000E+00 0. -1.
</event>
<event>
 7    1  0.7357971E-011  0.4778725E+02  0.7816164E-02  0.1312668E+00
        -11   -1    0    0    0    0  0.00000000000E+00  0.00000000000E+00  0.45593999997E+02  0.45594000000E+02  0.51100000000E-03 0. -1.
         11   -1    0    0    0    0 -0.00000000000E+00 -0.00000000000E+00 -0.45593999997E+02  0.45594000000E+02  0.51100000000E-03 0.  1.
    9900012    2    1    2    0    0 -0.26866236052E+02  0.23006795703E+02 -0.25149903654E+02  0.47787251827E+02  0.19999912382E+02 0.  0.
         12    1    1    2    0    0  0.26866236052E+02 -0.23006795703E+02  0.25149903654E+02  0.43400748173E+02  0.00000000000E+00 0. -1.
         11    1    3    3    0    0 -0.82783210860E+01  0.51246432537E+01 -0.78111105998E+01  0.12482228068E+02  0.51100000000E-03 0. -1.
        -11    1    3    3    0    0 -0.17819686529E+02  0.20643097480E+02 -0.13268594052E+02  0.30327121359E+02  0.51100000000E-03 0.  1.
        -12    1    3    3    0    0 -0.76822843759E+00 -0.27609450302E+01 -0.40701990019E+01  0.49779024003E+01  0.00000000000E+00 0.  1.
</event>
<event>
 7    1  0.7357971E-011  0.4778727E+02  0.7816164E-02  0.1312668E+00
        -11   -1    0    0    0    0  0.00000000000E+00  0.00000000000E+00  0.45593999997E+02  0.45594000000E+02  0.51100000000E-03 0. -1.
         11   -1    0    0    0    0 -0.00000000000E+00 -0.00000000000E+00 -0.45593999997E+02  0.45594000000E+02  0.51100000000E-03 0.  1.
    9900012    2    1    2    0    0  0.18096531587E+02 -0.14347841506E+02  0.36746134228E+02  0.47787269683E+02  0.19999993791E+02 0.  0.
        -12    1    1    2    0    0 -0.18096531587E+02  0.14347841506E+02 -0.36746134228E+02  0.43400730317E+02  0.00000000000E+00 0.  1.
         11    1    3    3    0    0  0.10972300417E+02 -0.13474542164E+02  0.19849345541E+02  0.26380886673E+02  0.51100000000E-03 0. -1.
        -11    1    3    3    0    0  0.51222369562E+01 -0.41023812956E+01  0.34118837095E+01  0.73964717560E+01  0.51100000000E-03 0.  1.
         12    1    3    3    0    0  0.20019942139E+01  0.32290819531E+01  0.13484904977E+02  0.14009911254E+02  0.00000000000E+00 0. -1.
</event>
<event>
 7    1  0.7357971E-011  0.4778727E+02  0.7816164E-02  0.1312668E+00
        -11   -1    0    0    0    0  0.00000000000E+00  0.00000000000E+00  0.45593999997E+02  0.45594000000E+02  0.51100000000E-03 0. -1.
         11   -1    0    0    0    0 -0.00000000000E+00 -0.00000000000E+00 -0.45593999997E+02  0.45594000000E+02  0.51100000000E-03 0.  1.
    9900012    2    1    2    0    0  0.38844021911E+02 -0.19276140957E+02 -0.17876165842E+01  0.47787271649E+02  0.20000002755E+02 0.  0.
         12    1    1    2    0    0 -0.38844021911E+02  0.19276140957E+02  0.17876165842E+01  0.43400728351E+02  0.00000000000E+00 0. -1.
         11    1    3    3    0    0  0.80653042130E+01 -0.16690799141E+01 -0.32280614380E+01  0.88462048765E+01  0.51100000000E-03 0. -1.
        -11    1    3    3    0    0  0.12479878919E+02 -0.11399355337E+02 -0.64196146878E+01  0.18080490395E+02  0.51100000000E-03 0.  1.
        -12    1    3    3    0    0  0.18298838779E+02 -0.62077057059E+01  0.78600595417E+01  0.20860576377E+02  0.00000000000E+00 0.  1.
</event>
<event>
 7    1  0.7357971E-011  0.4778727E+02  0.7816164E-02  0.1312668E+00
        -11   -1    0    0    0    0  0.00000000000E+00  0.00000000000E+00  0.45593999997E+02  0.45594000000E+02  0.51100000000E-03 0. -1.
         11   -1    0    0    0    0 -0.00000000000E+00 -0.00000000000E+00 -0.45593999997E+02  0.45594000000E+02  0.51100000000E-03 0.  1.
    9900012    2    1    2    0    0  0.38703119163E+02 -0.34761129626E+01 -0.19328957610E+02  0.47787269631E+02  0.19999993557E+02 0.  0.
         12    1    1    2    0    0 -0.38703119163E+02  0.34761129626E+01  0.19328957610E+02  0.43400730369E+02  0.00000000000E+00 0. -1.
         11    1    3    3    0    0  0.45203075530E+01  0.73969940193E+00 -0.88124587838E+01  0.99317554166E+01  0.51100000000E-03 0. -1.
        -11    1    3    3    0    0  0.30920856713E+02 -0.16197157230E+01 -0.12305557644E+02  0.33318907666E+02  0.51100000000E-03 0.  1.
         12    1    3    3    0    0  0.32619548969E+01 -0.25960966416E+01  0.17890588177E+01  0.45366065485E+01  0.00000000000E+00 0. -1.
</event>
<event>
 7    1  0.7357971E-011  0.4778725E+02  0.7816164E-02  0.1312668E+00
        -11   -1    0    0    0    0  0.00000000000E+00  0.00000000000E+00  0.45593999997E+02  0.45594000000E+02  0.51100000000E-03 0. -1.
         11   -1    0    0    0    0 -0.00000000000E+00 -0.00000000000E+00 -0.45593999997E+02  0.45594000000E+02  0.51100000000E-03 0.  1.
    9900012    2    1    2    0    0  0.33942583500E+01 -0.22014035337E+02  0.37248983275E+02  0.47787245438E+02  0.19999883249E+02 0.  0.
        -12    1    1    2    0    0 -0.33942583500E+01  0.22014035337E+02 -0.37248983275E+02  0.43400754562E+02  0.00000000000E+00 0.  1.
         11    1    3    3    0    0 -0.63786041623E+01 -0.35456269236E+01  0.53076197851E+01  0.90237957305E+01  0.51100000000E-03 0. -1.
        -11    1    3    3    0    0 -0.34887340626E+00 -0.76838162926E+00  0.44874836414E+01  0.45661398002E+01  0.51100000000E-03 0.  1.
         12    1    3    3    0    0  0.10121735919E+02 -0.17700026785E+02  0.27453879848E+02  0.34197309907E+02  0.00000000000E+00 0. -1.
</event>
<event>
 7    1  0.7357971E-011  0.4778726E+02  0.7816164E-02  0.1312668E+00
        -11   -1    0    0    0    0  0.00000000000E+00  0.00000000000E+00  0.45593999997E+02  0.45594000000E+02  0.51100000000E-03 0. -1.
         11   -1    0    0    0    0 -0.00000000000E+00 -0.00000000000E+00 -0.45593999997E+02  0.45594000000E+02  0.51100000000E-03 0.  1.
    9900012    2    1    2    0    0 -0.19580225353E+02  0.28022149625E+02 -0.26739442607E+02  0.47787263999E+02  0.19999967877E+02 0.  0.
         12    1    1    2    0    0  0.19580225353E+02 -0.28022149625E+02  0.26739442607E+02  0.43400736001E+02  0.00000000000E+00 0. -1.
         11    1    3    3    0    0 -0.19822079956E+02  0.24276731889E+02 -0.20110220475E+02  0.37238361039E+02  0.51100000000E-03 0. -1.
        -11    1    3    3    0    0  0.87580326727E+00  0.55497378123E+01 -0.28196934687E+01  0.62862781252E+01  0.51100000000E-03 0.  1.
         12    1    3    3    0    0 -0.63394866386E+00 -0.18043200768E+01 -0.38095286632E+01  0.42626248349E+01  0.00000000000E+00 0. -1.
</event>
<event>
 7    1  0.7357971E-011  0.4778727E+02  0.7816164E-02  0.1312668E+00
        -11   -1    0    0    0    0  0.00000000000E+00  0.00000000000E+00  0.45593999997E+02  0.45594000000E+02  0.51100000000E-03 0. -1.
         11   -1    0    0    0    0 -0.00000000000E+00 -0.00000000000E+00 -0.45593999997E+02  0.45594000000E+02  0.51100000000E-03 0.  1.
    9900012    2    1    2    0    0 -0.26039120434E+02 -0.74971258207E+01 -0.33902515498E+02  0.47787271369E+02  0.20000001481E+02 0.  0.
         12    1    1    2    0    0  0.26039120434E+02  0.74971258207E+01  0.33902515498E+02  0.43400728631E+02  0.00000000000E+00 0. -1.
         11    1    3    3    0    0 -0.48623175526E+00  0.31028813040E+01 -0.28873188704E+00  0.31539911335E+01  0.51100000000E-03 0. -1.
        -11    1    3    3    0    0 -0.12291704071E+02 -0.97515429845E+01 -0.21756198569E+02  0.26823697657E+02  0.51100000000E-03 0.  1.
         12    1    3    3    0    0 -0.13261184608E+02 -0.84846414017E+00 -0.11857585042E+02  0.17809582579E+02  0.00000000000E+00 0. -1.
</event>
<event>
 7    1  0.7357971E-011  0.4778727E+02  0.7816164E-02  0.1312668E+00
        -11   -1    0    0    0    0  0.00000000000E+00  0.00000000000E+00  0.45593999997E+02  0.45594000000E+02  0.51100000000E-03 0. -1.
         11   -1    0    0    0    0 -0.00000000000E+00 -0.00000000000E+00 -0.45593999997E+02  0.45594000000E+02  0.51100000000E-03 0.  1.
    9900012    2    1    2    0    0  0.71802056022E+01 -0.24687068899E+02  0.34965933610E+02  0.47787271475E+02  0.20000001961E+02 0.  0.
        -12    1    1    2    0    0 -0.71802056022E+01  0.24687068899E+02 -0.34965933610E+02  0.43400728525E+02  0.00000000000E+00 0.  1.
         11    1    3    3    0    0  0.34257245041E+01 -0.13507405106E+01  0.17949092606E+01  0.40965580454E+01  0.51100000000E-03 0. -1.
        -11    1    3    3    0    0  0.82458128446E+01 -0.21822043890E+02  0.29936620076E+02  0.37952552626E+02  0.51100000000E-03 0.  1.
        -12    1    3    3    0    0 -0.44913317464E+01 -0.15142844987E+01  0.32344042736E+01  0.57381608033E+01  0.00000000000E+00 0.  1.
</event>
<event>
 7    1  0.7357971E-011  0.4778728E+02  0.7816164E-02  0.1312668E+00
        -11   -1    0    0    0    0  0.00000000000E+00  0.00000000000E+00  0.45593999997E+02  0.45594000000E+02  0.51100000000E-03 0. -1.
         11   -1    0    0    0    0 -0.00000000000E+00 -0.00000000000E+00 -0.45593999997E+02  0.45594000000E+02  0.51100000000E-03 0.  1.
    9900012    2    1    2    0    0  0.59497766414E+01  0.42917514389E+02 -0.25119541903E+01  0.47787276535E+02  0.20000025035E+02 0.  0.
         12    1    1    2    0    0 -0.59497766414E+01 -0.42917514389E+02  0.25119541903E+01  0.43400723465E+02  0.00000000000E+00 0. -1.
         11    1    3    3    0    0  0.34937870306E+01  0.76191604814E+01 -0.68465278078E+01  0.10822804514E+02  0.51100000000E-03 0. -1.
        -11    1    3    3    0    0  0.10980382075E+01  0.33743865897E+02  0.19605416051E+01  0.33818602828E+02  0.51100000000E-03 0.  1.
         12    1    3    3    0    0  0.13579514034E+01  0.15544880108E+01  0.23740320124E+01  0.31458691939E+01  0.00000000000E+00 0. -1.
</event>
<event>
 7    1  0.7357971E-011  0.4778727E+02  0.7816164E-02  0.1312668E+00
        -11   -1    0    0    0    0  0.00000000000E+00  0.00000000000E+00  0.45593999997E+02  0.45594000000E+02  0.51100000000E-03 0. -1.
         11   -1    0    0    0    0 -0.00000000000E+00 -0.00000000000E+00 -0.45593999997E+02  0.45594000000E+02  0.51100000000E-03 0.  1.
    9900012    2    1    2    0    0  0.18071790414E+02 -0.33125749954E+01 -0.39319976680E+02  0.47787270421E+02  0.19999997157E+02 0.  0.
         12    1    1    2    0    0 -0.18071790414E+02  0.33125749954E+01  0.39319976680E+02  0.43400729579E+02  0.00000000000E+00 0. -1.
         11    1    3    3    0    0  0.17720464209E+02  0.11234120090E+01 -0.29331593171E+02  0.34287304714E+02  0.51100000000E-03 0. -1.
        -11    1    3    3    0    0  0.15056861429E+01 -0.16732733199E+01 -0.10250110489E+02  0.10494365138E+02  0.51100000000E-03 0.  1.
         12    1    3    3    0    0 -0.11543599380E+01 -0.27627136844E+01  0.26172697922E+00  0.30056005690E+01  0.00000000000E+00 0. -1.
</event>
<event>
 7    1  0.7357971E-011  0.4778727E+02  0.7816164E-02  0.1312668E+00
        -11   -1    0    0    0    0  0.00000000000E+00  0.00000000000E+00  0.45593999997E+02  0.45594000000E+02  0.51100000000E-03 0. -1.
         11   -1    0    0    0    0 -0.00000000000E+00 -0.00000000000E+00 -0.45593999997E+02  0.45594000000E+02  0.51100000000E-03 0.  1.
    9900012    2    1    2    0    0 -0.30924880379E+02 -0.13045498940E+02  0.27515270779E+02  0.47787269648E+02  0.19999993632E+02 0.  0.
        -12    1    1    2    0    0  0.30924880379E+02  0.13045498940E+02 -0.27515270779E+02  0.43400730352E+02  0.00000000000E+00 0.  1.
         11    1    3    3    0    0 -0.66880334260E+01 -0.55566432463E+01  0.18424505637E+02  0.20373229580E+02  0.51100000000E-03 0. -1.
        -11    1    3    3    0    0  0.20688007551E+00 -0.17361895565E+00 -0.10904665451E+00  0.29126335401E+00  0.51100000000E-03 0.  1.
         12    1    3    3    0    0 -0.24443727029E+02 -0.73152367382E+01  0.91998117960E+01  0.27122776714E+02  0.00000000000E+00 0. -1.
</event>
<event>
 7    1  0.7357971E-011  0.4778726E+02  0.7816164E-02  0.1312668E+00
        -11   -1    0    0    0    0  0.00000000000E+00  0.00000000000E+00  0.45593999997E+02  0.45594000000E+02  0.51100000000E-03 0. -1.
         11   -1    0    0    0    0 -0.00000000000E+00 -0.00000000000E+00 -0.45593999997E+02  0.45594000000E+02  0.51100000000E-03 0.  1.
    9900012    2    1    2    0    0 -0.21347565200E+02  0.20624877569E+02  0.31662592986E+02  0.47787263724E+02  0.19999966623E+02 0.  0.
        -12    1    1    2    0    0  0.21347565200E+02 -0.20624877569E+02 -0.31662592986E+02  0.43400736276E+02  0.00000000000E+00 0.  1.
         11    1    3    3    0    0 -0.13736436533E+02  0.12313454850E+02  0.15354371016E+02  0.24001407637E+02  0.51100000000E-03 0. -1.
        -11    1    3    3    0    0 -0.44344767771E+00 -0.34566523873E+01  0.40534467495E+01  0.53456077654E+01  0.51100000000E-03 0.  1.
        -12    1    3    3    0    0 -0.71676809890E+01  0.11768075107E+02  0.12254775220E+02  0.18440248322E+02  0.00000000000E+00 0.  1.
</event>
<event>
 7    1  0.8098852E-011  0.4778727E+02  0.7816164E-02  0.1312668E+00
        -11   -1    0    0    0    0  0.00000000000E+00  0.00000000000E+00  0.45593999997E+02  0.45594000000E+02  0.51100000000E-03 0. -1.
         11   -1    0    0    0    0 -0.00000000000E+00 -0.00000000000E+00 -0.45593999997E+02  0.45594000000E+02  0.51100000000E-03 0.  1.
    9900012    2    1    2    0    0 -0.64624428197E+01  0.30245300699E+00 -0.42915831990E+02  0.47787270969E+02  0.19999999655E+02 0.  0.
         12    1    1    2    0    0  0.64624428197E+01 -0.30245300699E+00  0.42915831990E+02  0.43400729031E+02  0.00000000000E+00 0. -1.
         11    1    3    3    0    0  0.38677682991E+01 -0.11646832340E+01 -0.45363713288E+01  0.60741076501E+01  0.51100000000E-03 0. -1.
        -11    1    3    3    0    0 -0.10473503489E+02 -0.26695778354E+01 -0.18662413679E+02  0.21566330372E+02  0.51100000000E-03 0.  1.
        -12    1    3    3    0    0  0.14329236990E+00  0.41367140764E+01 -0.19717046983E+02  0.20146832947E+02  0.00000000000E+00 0.  1.
</event>
<event>
 7    1  0.7357971E-011  0.4778727E+02  0.7816164E-02  0.1312668E+00
        -11   -1    0    0    0    0  0.00000000000E+00  0.00000000000E+00  0.45593999997E+02  0.45594000000E+02  0.51100000000E-03 0. -1.
         11   -1    0    0    0    0 -0.00000000000E+00 -0.00000000000E+00 -0.45593999997E+02  0.45594000000E+02  0.51100000000E-03 0.  1.
    9900012    2    1    2    0    0 -0.39702633258E+02 -0.64844869336E+01 -0.16287285821E+02  0.47787270307E+02  0.19999996640E+02 0.  0.
         12    1    1    2    0    0  0.39702633258E+02  0.64844869336E+01  0.16287285821E+02  0.43400729693E+02  0.00000000000E+00 0. -1.
         11    1    3    3    0    0 -0.33872702962E+01  0.85177786569E+00  0.29862828800E+01  0.45953249387E+01  0.51100000000E-03 0. -1.
        -11    1    3    3    0    0 -0.33398344066E+02 -0.37523495954E+01 -0.18894203148E+02  0.38555420199E+02  0.51100000000E-03 0.  1.
        -12    1    3    3    0    0 -0.29170188964E+01 -0.35839152039E+01 -0.37936555236E+00  0.46365251701E+01  0.00000000000E+00 0.  1.
</event>
<event>
 7    1  0.7357971E-011  0.4778726E+02  0.7816164E-02  0.1312668E+00
        -11   -1    0    0    0    0  0.00000000000E+00  0.00000000000E+00  0.45593999997E+02  0.45594000000E+02  0.51100000000E-03 0. -1.
         11   -1    0    0    0    0 -0.00000000000E+00 -0.00000000000E+00 -0.45593999997E+02  0.45594000000E+02  0.51100000000E-03 0.  1.
    9900012    2    1    2    0    0  0.18241017187E+02 -0.17890272068E+01  0.39340681955E+02  0.47787255962E+02  0.19999931235E+02 0.  0.
        -12    1    1    2    0    0 -0.18241017187E+02  0.17890272068E+01 -0.39340681955E+02  0.43400744038E+02  0.00000000000E+00 0.  1.
         11    1    3    3    0    0  0.29720552306E+00  0.15046667456E+01  0.61376523761E+01  0.63263836501E+01  0.51100000000E-03 0. -1.
        -11    1    3    3    0    0 -0.23576569203E+01 -0.53603867945E+00 -0.32317424246E-01  0.24180422447E+01  0.51100000000E-03 0.  1.
        -12    1    3    3    0    0  0.20301468584E+02 -0.27576552729E+01  0.33235347003E+02  0.39042830068E+02  0.00000000000E+00 0.  1.
</event>
<event>
 7    1  0.7357971E-011  0.4778727E+02  0.7816164E-02  0.1312668E+00
        -11   -1    0    0    0    0  0.00000000000E+00  0.00000000000E+00  0.45593999997E+02  0.45594000000E+02  0.51100000000E-03 0.  1.
         11   -1    0    0    0    0 -0.00000000000E+00 -0.00000000000E+00 -0.45593999997E+02  0.45594000000E+02  0.51100000000E-03 0. -1.
    9900012    2    1    2    0    0  0.23445236637E+02 -0.17426878602E+02 -0.32097478116E+02  0.47787270511E+02  0.19999997568E+02 0.  0.
         12    1    1    2    0    0 -0.23445236637E+02  0.17426878602E+02  0.32097478116E+02  0.43400729489E+02  0.00000000000E+00 0. -1.
         11    1    3    3    0    0  0.51497759931E+01 -0.86474026439E+01 -0.16164019777E+02  0.19041357642E+02  0.51100000000E-03 0. -1.
        -11    1    3    3    0    0  0.12877278093E+02 -0.77725739807E+01 -0.39426649606E+01  0.15549334540E+02  0.51100000000E-03 0.  1.
        -12    1    3    3    0    0  0.54181825507E+01 -0.10069019770E+01 -0.11990793379E+02  0.13196578329E+02  0.00000000000E+00 0.  1.
</event>
<event>
 7    1  0.7357971E-011  0.4778727E+02  0.7816164E-02  0.1312668E+00
        -11   -1    0    0    0    0  0.00000000000E+00  0.00000000000E+00  0.45593999997E+02  0.45594000000E+02  0.51100000000E-03 0. -1.
         11   -1    0    0    0    0 -0.00000000000E+00 -0.00000000000E+00 -0.45593999997E+02  0.45594000000E+02  0.51100000000E-03 0.  1.
    9900012    2    1    2    0    0  0.40563741539E+02  0.68590373249E+01  0.13826045633E+02  0.47787273525E+02  0.20000011312E+02 0.  0.
        -12    1    1    2    0    0 -0.40563741539E+02 -0.68590373249E+01 -0.13826045633E+02  0.43400726475E+02  0.00000000000E+00 0.  1.
         11    1    3    3    0    0  0.58595734481E+01 -0.60985555566E-01  0.38786537530E+01  0.70272523384E+01  0.51100000000E-03 0. -1.
        -11    1    3    3    0    0  0.68934513111E+01  0.48314266477E+01  0.97354628263E+01  0.12870182249E+02  0.51100000000E-03 0.  1.
        -12    1    3    3    0    0  0.27810716780E+02  0.20885962328E+01  0.21192905341E+00  0.27889838938E+02  0.00000000000E+00 0.  1.
</event>
<event>
 7    1  0.8659460E-011  0.4778726E+02  0.7816164E-02  0.1312668E+00
        -11   -1    0    0    0    0  0.00000000000E+00  0.00000000000E+00  0.45593999997E+02  0.45594000000E+02  0.51100000000E-03 0.  1.
         11   -1    0    0    0    0 -0.00000000000E+00 -0.00000000000E+00 -0.45593999997E+02  0.45594000000E+02  0.51100000000E-03 0. -1.
    9900012    2    1    2    0    0  0.32767829359E+02 -0.14418102116E+02 -0.24535928047E+02  0.47787261819E+02  0.19999957935E+02 0.  0.
         12    1    1    2    0    0 -0.32767829359E+02  0.14418102116E+02  0.24535928047E+02  0.43400738181E+02  0.00000000000E+00 0. -1.
         11    1    3    3    0    0  0.49228128550E+01  0.27310842684E+01 -0.93975662446E+01  0.10954777920E+02  0.51100000000E-03 0. -1.
        -11    1    3    3    0    0  0.11528701637E+02 -0.11279092449E+02 -0.58148302145E+01  0.17144711680E+02  0.51100000000E-03 0.  1.
        -12    1    3    3    0    0  0.16316314868E+02 -0.58700939360E+01 -0.93235315879E+01  0.19687772219E+02  0.00000000000E+00 0.  1.
</event>
<event>
 7    1  0.7357971E-011  0.4778728E+02  0.7816164E-02  0.1312668E+00
        -11   -1    0    0    0    0  0.00000000000E+00  0.00000000000E+00  0.45593999997E+02  0.45594000000E+02  0.51100000000E-03 0. -1.
         11   -1    0    0    0    0 -0.00000000000E+00 -0.00000000000E+00 -0.45593999997E+02  0.45594000000E+02  0.51100000000E-03 0.  1.
    9900012    2    1    2    0    0 -0.32592106866E+02 -0.13556031176E+02 -0.25250968837E+02  0.47787276061E+02  0.20000022871E+02 0.  0.
         12    1    1    2    0    0  0.32592106866E+02  0.13556031176E+02  0.25250968837E+02  0.43400723939E+02  0.00000000000E+00 0. -1.
         11    1    3    3    0    0 -0.50938015017E+01  0.31324680529E+01  0.56506229260E+00  0.60065352323E+01  0.51100000000E-03 0. -1.
        -11    1    3    3    0    0 -0.18782800263E+02 -0.89996463569E+01 -0.13358224838E+02  0.24743269617E+02  0.51100000000E-03 0.  1.
         12    1    3    3    0    0 -0.87155051019E+01 -0.76888528721E+01 -0.12457806292E+02  0.17037471211E+02  0.00000000000E+00 0. -1.
</event>
<event>
 7    1  0.7357971E-011  0.4778727E+02  0.7816164E-02  0.1312668E+00
        -11   -1    0    0    0    0  0.00000000000E+00  0.00000000000E+00  0.45593999997E+02  0.45594000000E+02  0.51100000000E-03 0. -1.
         11   -1    0    0    0    0 -0.00000000000E+00 -0.00000000000E+00 -0.45593999997E+02  0.45594000000E+02  0.51100000000E-03 0.  1.
    9900012    2    1    2    0    0  0.12563984102E+02 -0.38020783516E+02  0.16738863879E+02  0.47787271439E+02  0.20000001799E+02 0.  0.
        -12    1    1    2    0    0 -0.12563984102E+02  0.38020783516E+02 -0.16738863879E+02  0.43400728561E+02  0.00000000000E+00 0.  1.
         11    1    3    3    0    0  0.11979649994E+02 -0.39988333339E+02  0.13482105545E+02  0.43867368138E+02  0.51100000000E-03 0. -1.
        -11    1    3    3    0    0  0.31469450957E+00  0.14611355783E+01  0.28449851895E+01  0.32137035959E+01  0.51100000000E-03 0.  1.
         12    1    3    3    0    0  0.26963959837E+00  0.50641424496E+00  0.41177314456E+00  0.70619970482E+00  0.00000000000E+00 0. -1.
</event>
<event>
 7    1  0.7357971E-011  0.4778727E+02  0.7816164E-02  0.1312668E+00
        -11   -1    0    0    0    0  0.00000000000E+00  0.00000000000E+00  0.45593999997E+02  0.45594000000E+02  0.51100000000E-03 0. -1.
         11   -1    0    0    0    0 -0.00000000000E+00 -0.00000000000E+00 -0.45593999997E+02  0.45594000000E+02  0.51100000000E-03 0.  1.
    9900012    2    1    2    0    0  0.99295458699E+01  0.10869261892E+02  0.40827523246E+02  0.47787269711E+02  0.19999993918E+02 0.  0.
        -12    1    1    2    0    0 -0.99295458699E+01 -0.10869261892E+02 -0.40827523246E+02  0.43400730289E+02  0.00000000000E+00 0.  1.
         11    1    3    3    0    0  0.86148599065E+01 -0.17989188597E+01  0.18812332348E+02  0.20769106117E+02  0.51100000000E-03 0. -1.
        -11    1    3    3    0    0 -0.91355272498E+00  0.75826635627E+01  0.50213931267E+01  0.91403366722E+01  0.51100000000E-03 0.  1.
        -12    1    3    3    0    0  0.22282386883E+01  0.50855171887E+01  0.16993797772E+02  0.17877826921E+02  0.00000000000E+00 0.  1.
</event>
<event>
 7    1  0.7357971E-011  0.4778727E+02  0.7816164E-02  0.1312668E+00
        -11   -1    0    0    0    0  0.00000000000E+00  0.00000000000E+00  0.45593999997E+02  0.45594000000E+02  0.51100000000E-03 0. -1.
         11   -1    0    0    0    0 -0.00000000000E+00 -0.00000000000E+00 -0.45593999997E+02  0.45594000000E+02  0.51100000000E-03 0.  1.
    9900012    2    1    2    0    0  0.42175574196E+01 -0.67297877928E+01 -0.42667848355E+02  0.47787272845E+02  0.20000008208E+02 0.  0.
         12    1    1    2    0    0 -0.42175574196E+01  0.67297877928E+01  0.42667848355E+02  0.43400727155E+02  0.00000000000E+00 0. -1.
         11    1    3    3    0    0 -0.20689603856E+01 -0.41784170289E+01 -0.35725942978E+02  0.36028915719E+02  0.51100000000E-03 0.  1.
        -11    1    3    3    0    0  0.25889999688E+01 -0.15716914403E+01  0.79170754513E+00  0.31304849336E+01  0.51100000000E-03 0. -1.
        -12    1    3    3    0    0  0.36975178365E+01 -0.97967932356E+00 -0.77336129223E+01  0.86278721919E+01  0.00000000000E+00 0.  1.
</event>
<event>
 7    1  0.7357971E-011  0.4778727E+02  0.7816164E-02  0.1312668E+00
        -11   -1    0    0    0    0  0.00000000000E+00  0.00000000000E+00  0.45593999997E+02  0.45594000000E+02  0.51100000000E-03 0. -1.
         11   -1    0    0    0    0 -0.00000000000E+00 -0.00000000000E+00 -0.45593999997E+02  0.45594000000E+02  0.51100000000E-03 0.  1.
    9900012    2    1    2    0    0 -0.30356419735E+02 -0.22551781112E+02 -0.21296205777E+02  0.47787269235E+02  0.19999991751E+02 0.  0.
         12    1    1    2    0    0  0.30356419735E+02  0.22551781112E+02  0.21296205777E+02  0.43400730765E+02  0.00000000000E+00 0. -1.
         11    1    3    3    0    0 -0.20330559661E+02 -0.87988307983E+01 -0.41963802056E+01  0.22546855360E+02  0.51100000000E-03 0. -1.
        -11    1    3    3    0    0 -0.41871012423E+01 -0.10718482997E+02 -0.80175239038E+01  0.14024920120E+02  0.51100000000E-03 0.  1.
         12    1    3    3    0    0 -0.58387588317E+01 -0.30344673173E+01 -0.90823016673E+01  0.11215493755E+02  0.00000000000E+00 0. -1.
</event>
<event>
 7    1  0.7357971E-011  0.4778727E+02  0.7816164E-02  0.1312668E+00
        -11   -1    0    0    0    0  0.00000000000E+00  0.00000000000E+00  0.45593999997E+02  0.45594000000E+02  0.51100000000E-03 0. -1.
         11   -1    0    0    0    0 -0.00000000000E+00 -0.00000000000E+00 -0.45593999997E+02  0.45594000000E+02  0.51100000000E-03 0.  1.
    9900012    2    1    2    0    0 -0.90453063575E+01  0.27447995669E+02 -0.32379209356E+02  0.47787271528E+02  0.20000002206E+02 0.  0.
         12    1    1    2    0    0  0.90453063575E+01 -0.27447995669E+02  0.32379209356E+02  0.43400728472E+02  0.00000000000E+00 0. -1.
         11    1    3    3    0    0 -0.18204179067E+01  0.30583964486E+01  0.20609870553E+00  0.35651349384E+01  0.51100000000E-03 0. -1.
        -11    1    3    3    0    0 -0.11240970469E+02  0.22230729139E+02 -0.24502138105E+02  0.34941658620E+02  0.51100000000E-03 0.  1.
        -12    1    3    3    0    0  0.40160820178E+01  0.21588700817E+01 -0.80831699568E+01  0.92804779702E+01  0.00000000000E+00 0.  1.
</event>
<event>
 7    1  0.7357971E-011  0.4778727E+02  0.7816164E-02  0.1312668E+00
        -11   -1    0    0    0    0  0.00000000000E+00  0.00000000000E+00  0.45593999997E+02  0.45594000000E+02  0.51100000000E-03 0. -1.
         11   -1    0    0    0    0 -0.00000000000E+00 -0.00000000000E+00 -0.45593999997E+02  0.45594000000E+02  0.51100000000E-03 0.  1.
    9900012    2    1    2    0    0 -0.19199606043E+02  0.38930563411E+01  0.38727802591E+02  0.47787268976E+02  0.19999990567E+02 0.  0.
        -12    1    1    2    0    0  0.19199606043E+02 -0.38930563411E+01 -0.38727802591E+02  0.43400731024E+02  0.00000000000E+00 0.  1.
         11    1    3    3    0    0 -0.19416825586E+01  0.76433015712E+01  0.46369542737E+01  0.91483077815E+01  0.51100000000E-03 0.  1.
        -11    1    3    3    0    0 -0.14289640959E+02 -0.13472710897E+01  0.26261437338E+02  0.29927780898E+02  0.51100000000E-03 0. -1.
        -12    1    3    3    0    0 -0.29682825253E+01 -0.24029741405E+01  0.78294109792E+01  0.87111802960E+01  0.00000000000E+00 0.  1.
</event>
<event>
 7    1  0.7357971E-011  0.4778727E+02  0.7816164E-02  0.1312668E+00
        -11   -1    0    0    0    0  0.00000000000E+00  0.00000000000E+00  0.45593999997E+02  0.45594000000E+02  0.51100000000E-03 0. -1.
         11   -1    0    0    0    0 -0.00000000000E+00 -0.00000000000E+00 -0.45593999997E+02  0.45594000000E+02  0.51100000000E-03 0.  1.
    9900012    2    1    2    0    0  0.20079806267E+02  0.17727735559E+02 -0.34148968666E+02  0.47787270874E+02  0.19999999221E+02 0.  0.
         12    1    1    2    0    0 -0.20079806267E+02 -0.17727735559E+02  0.34148968666E+02  0.43400729126E+02  0.00000000000E+00 0. -1.
         11    1    3    3    0    0  0.15363746321E+02  0.80021821715E+01 -0.27370918408E+02  0.32392079205E+02  0.51100000000E-03 0. -1.
        -11    1    3    3    0    0  0.45563209873E+01  0.47940849880E+01 -0.79323653056E+01  0.10327910312E+02  0.51100000000E-03 0.  1.
         12    1    3    3    0    0  0.15973895872E+00  0.49314683998E+01  0.11543150475E+01  0.50672813561E+01  0.00000000000E+00 0. -1.
</event>
<event>
 7    1  0.7357971E-011  0.4778727E+02  0.7816164E-02  0.1312668E+00
        -11   -1    0    0    0    0  0.00000000000E+00  0.00000000000E+00  0.45593999997E+02  0.45594000000E+02  0.51100000000E-03 0. -1.
         11   -1    0    0    0    0 -0.00000000000E+00 -0.00000000000E+00 -0.45593999997E+02  0.45594000000E+02  0.51100000000E-03 0.  1.
    9900012    2    1    2    0    0  0.11346572375E+02 -0.38903219672E+02  0.15537633206E+02  0.47787271306E+02  0.20000001192E+02 0.  0.
        -12    1    1    2    0    0 -0.11346572375E+02  0.38903219672E+02 -0.15537633206E+02  0.43400728694E+02  0.00000000000E+00 0.  1.
         11    1    3    3    0    0  0.68374361742E+01 -0.29714205643E+02  0.15393522588E+02  0.34156186678E+02  0.51100000000E-03 0. -1.
        -11    1    3    3    0    0  0.46857439782E+01 -0.47663258038E+01 -0.38120586169E+01  0.76945337388E+01  0.51100000000E-03 0.  1.
         12    1    3    3    0    0 -0.17660777771E+00 -0.44226882251E+01  0.39561692347E+01  0.59365508890E+01  0.00000000000E+00 0. -1.
</event>
<event>
 7    1  0.7357971E-011  0.4778727E+02  0.7816164E-02  0.1312668E+00
        -11   -1    0    0    0    0  0.00000000000E+00  0.00000000000E+00  0.45593999997E+02  0.45594000000E+02  0.51100000000E-03 0. -1.
         11   -1    0    0    0    0 -0.00000000000E+00 -0.00000000000E+00 -0.45593999997E+02  0.45594000000E+02  0.51100000000E-03 0.  1.
    9900012    2    1    2    0    0  0.17190481205E+02 -0.11740117405E+02  0.38082545198E+02  0.47787271325E+02  0.20000001279E+02 0.  0.
        -12    1    1    2    0    0 -0.17190481205E+02  0.11740117405E+02 -0.38082545198E+02  0.43400728675E+02  0.00000000000E+00 0.  1.
         11    1    3    3    0    0  0.18462127009E+02 -0.42706703099E+01  0.25328570654E+02  0.31632661131E+02  0.51100000000E-03 0. -1.
        -11    1    3    3    0    0 -0.31938082015E+01 -0.23315872421E+01  0.29987022960E+01  0.49627538339E+01  0.51100000000E-03 0.  1.
        -12    1    3    3    0    0  0.19221623976E+01 -0.51378598527E+01  0.97552722478E+01  0.11191856360E+02  0.00000000000E+00 0.  1.
</event>
<event>
 7    1  0.7357971E-011  0.4778727E+02  0.7816164E-02  0.1312668E+00
        -11   -1    0    0    0    0  0.00000000000E+00  0.00000000000E+00  0.45593999997E+02  0.45594000000E+02  0.51100000000E-03 0.  1.
         11   -1    0    0    0    0 -0.00000000000E+00 -0.00000000000E+00 -0.45593999997E+02  0.45594000000E+02  0.51100000000E-03 0. -1.
    9900012    2    1    2    0    0  0.21540308679E+02 -0.20866229461E+02  0.31372580396E+02  0.47787271543E+02  0.20000002274E+02 0.  0.
        -12    1    1    2    0    0 -0.21540308679E+02  0.20866229461E+02 -0.31372580396E+02  0.43400728457E+02  0.00000000000E+00 0.  1.
         11    1    3    3    0    0  0.56508468337E+01 -0.10166880051E+02  0.18538141282E+01  0.11778546048E+02  0.51100000000E-03 0. -1.
        -11    1    3    3    0    0  0.39573550273E+01 -0.57136996566E+01  0.15206180357E+02  0.16719298546E+02  0.51100000000E-03 0.  1.
         12    1    3    3    0    0  0.11932106818E+02 -0.49856497532E+01  0.14312585911E+02  0.19289426949E+02  0.00000000000E+00 0. -1.
</event>
<event>
 7    1  0.7357971E-011  0.4778727E+02  0.7816164E-02  0.1312668E+00
        -11   -1    0    0    0    0  0.00000000000E+00  0.00000000000E+00  0.45593999997E+02  0.45594000000E+02  0.51100000000E-03 0. -1.
         11   -1    0    0    0    0 -0.00000000000E+00 -0.00000000000E+00 -0.45593999997E+02  0.45594000000E+02  0.51100000000E-03 0.  1.
    9900012    2    1    2    0    0 -0.26116489040E+02 -0.24813218871E+02  0.24204471922E+02  0.47787270841E+02  0.19999999075E+02 0.  0.
        -12    1    1    2    0    0  0.26116489040E+02  0.24813218871E+02 -0.24204471922E+02  0.43400729159E+02  0.00000000000E+00 0.  1.
         11    1    3    3    0    0 -0.87344947016E+01 -0.84362980321E+00  0.15741484703E+00  0.87765533458E+01  0.51100000000E-03 0. -1.
        -11    1    3    3    0    0  0.44370361625E+00 -0.29234717787E+01  0.11811397526E+01  0.31841249216E+01  0.51100000000E-03 0.  1.
         12    1    3    3    0    0 -0.17825697954E+02 -0.21046117289E+02  0.22865917322E+02  0.35826592574E+02  0.00000000000E+00 0. -1.
</event>
<event>
 7    1  0.7357971E-011  0.4778727E+02  0.7816164E-02  0.1312668E+00
        -11   -1    0    0    0    0  0.00000000000E+00  0.00000000000E+00  0.45593999997E+02  0.45594000000E+02  0.51100000000E-03 0. -1.
         11   -1    0    0    0    0 -0.00000000000E+00 -0.00000000000E+00 -0.45593999997E+02  0.45594000000E+02  0.51100000000E-03 0.  1.
    9900012    2    1    2    0    0 -0.42755609012E+02  0.19630421587E+01 -0.71921892813E+01  0.47787271629E+02  0.20000002663E+02 0.  0.
         12    1    1    2    0    0  0.42755609012E+02 -0.19630421587E+01  0.71921892813E+01  0.43400728371E+02  0.00000000000E+00 0. -1.
         11    1    3    3    0    0  0.10452308758E+00  0.13978510308E+01  0.15804467551E+01  0.21125162217E+01  0.51100000000E-03 0. -1.
        -11    1    3    3    0    0 -0.32215982161E+02  0.16962387269E+01 -0.70057328310E+00  0.32268212464E+02  0.51100000000E-03 0.  1.
        -12    1    3    3    0    0 -0.10644149938E+02 -0.11310475990E+01 -0.80720627533E+01  0.13406542943E+02  0.00000000000E+00 0.  1.
</event>
<event>
 7    1  0.7357971E-011  0.4778727E+02  0.7816164E-02  0.1312668E+00
        -11   -1    0    0    0    0  0.00000000000E+00  0.00000000000E+00  0.45593999997E+02  0.45594000000E+02  0.51100000000E-03 0. -1.
         11   -1    0    0    0    0 -0.00000000000E+00 -0.00000000000E+00 -0.45593999997E+02  0.45594000000E+02  0.51100000000E-03 0.  1.
    9900012    2    1    2    0    0  0.41500863936E+01 -0.30548891369E+02 -0.30547757316E+02  0.47787268923E+02  0.19999990327E+02 0.  0.
         12    1    1    2    0    0 -0.41500863936E+01  0.30548891369E+02  0.30547757316E+02  0.43400731077E+02  0.00000000000E+00 0. -1.
         11    1    3    3    0    0 -0.14471978517E+01 -0.14012955581E+01 -0.39732667739E+01  0.44547570058E+01  0.51100000000E-03 0. -1.
        -11    1    3    3    0    0 -0.70187020399E+00 -0.27751263234E+02 -0.21053158194E+02  0.34840503771E+02  0.51100000000E-03 0.  1.
        -12    1    3    3    0    0  0.62991544493E+01 -0.13963325777E+01 -0.55213323488E+01  0.84920081459E+01  0.00000000000E+00 0.  1.
</event>
<event>
 7    1  0.7357971E-011  0.4778728E+02  0.7816164E-02  0.1312668E+00
        -11   -1    0    0    0    0  0.00000000000E+00  0.00000000000E+00  0.45593999997E+02  0.45594000000E+02  0.51100000000E-03 0. -1.
         11   -1    0    0    0    0 -0.00000000000E+00 -0.00000000000E+00 -0.45593999997E+02  0.45594000000E+02  0.51100000000E-03 0.  1.
    9900012    2    1    2    0    0  0.73995545738E+00  0.38035932942E+02  0.20888822379E+02  0.47787278471E+02  0.20000033861E+02 0.  0.
        -12    1    1    2    0    0 -0.73995545738E+00 -0.38035932942E+02 -0.20888822379E+02  0.43400721529E+02  0.00000000000E+00 0.  1.
         11    1    3    3    0    0  0.39576249909E+01  0.15415342190E+02  0.63198474535E+01  0.17124136255E+02  0.51100000000E-03 0. -1.
        -11    1    3    3    0    0 -0.38832374010E+01  0.10321733317E+02  0.14661374058E+02  0.18345942356E+02  0.51100000000E-03 0.  1.
        -12    1    3    3    0    0  0.66556786745E+00  0.12298857435E+02 -0.92399133044E-01  0.12317199860E+02  0.00000000000E+00 0.  1.
</event>
<event>
 7    1  0.7357971E-011  0.4778727E+02  0.7816164E-02  0.1312668E+00
        -11   -1    0    0    0    0  0.00000000000E+00  0.00000000000E+00  0.45593999997E+02  0.45594000000E+02  0.51100000000E-03 0. -1.
         11   -1    0    0    0    0 -0.00000000000E+00 -0.00000000000E+00 -0.45593999997E+02  0.45594000000E+02  0.51100000000E-03 0.  1.
    9900012    2    1    2    0    0 -0.14885266154E+02  0.74094173310E+01  0.40089308161E+02  0.47787271406E+02  0.20000001649E+02 0.  0.
        -12    1    1    2    0    0  0.14885266154E+02 -0.74094173310E+01 -0.40089308161E+02  0.43400728594E+02  0.00000000000E+00 0.  1.
         11    1    3    3    0    0 -0.95449961514E+01  0.79817534500E+00  0.24920291558E+02  0.26697658455E+02  0.51100000000E-03 0. -1.
        -11    1    3    3    0    0 -0.58788075731E-01 -0.17196715499E+01  0.96185142106E+01  0.97712098615E+01  0.51100000000E-03 0.  1.
         12    1    3    3    0    0 -0.52814819266E+01  0.83309135359E+01  0.55505023926E+01  0.11318403089E+02  0.00000000000E+00 0. -1.
</event>
<event>
 7    1  0.7357971E-011  0.4778727E+02  0.7816164E-02  0.1312668E+00
        -11   -1    0    0    0    0  0.00000000000E+00  0.00000000000E+00  0.45593999997E+02  0.45594000000E+02  0.51100000000E-03 0. -1.
         11   -1    0    0    0    0 -0.00000000000E+00 -0.00000000000E+00 -0.45593999997E+02  0.45594000000E+02  0.51100000000E-03 0.  1.
    9900012    2    1    2    0    0 -0.85342429793E+01 -0.30710587647E+01 -0.42442412336E+02  0.47787273392E+02  0.20000010705E+02 0.  0.
         12    1    1    2    0    0  0.85342429793E+01  0.30710587647E+01  0.42442412336E+02  0.43400726608E+02  0.00000000000E+00 0. -1.
         11    1    3    3    0    0 -0.27126043335E+01 -0.21840280119E+01 -0.88591416711E+01  0.95190646618E+01  0.51100000000E-03 0. -1.
        -11    1    3    3    0    0 -0.10122090240E+02  0.47717701110E+01 -0.21884752887E+02  0.24579847640E+02  0.51100000000E-03 0.  1.
        -12    1    3    3    0    0  0.43004515946E+01 -0.56588008639E+01 -0.11698517779E+02  0.13688361091E+02  0.00000000000E+00 0.  1.
</event>
<event>
 7    1  0.7357971E-011  0.4778727E+02  0.7816164E-02  0.1312668E+00
        -11   -1    0    0    0    0  0.00000000000E+00  0.00000000000E+00  0.45593999997E+02  0.45594000000E+02  0.51100000000E-03 0.  1.
         11   -1    0    0    0    0 -0.00000000000E+00 -0.00000000000E+00 -0.45593999997E+02  0.45594000000E+02  0.51100000000E-03 0. -1.
    9900012    2    1    2    0    0  0.32877292643E+02  0.27425943060E+02  0.71080738005E+01  0.47787269160E+02  0.19999991408E+02 0.  0.
         12    1    1    2    0    0 -0.32877292643E+02 -0.27425943060E+02 -0.71080738005E+01  0.43400730840E+02  0.00000000000E+00 0. -1.
         11    1    3    3    0    0  0.85409051875E+01 -0.26522879710E+00  0.50242490051E+01  0.99126427386E+01  0.51100000000E-03 0. -1.
        -11    1    3    3    0    0  0.12369538477E+02  0.17451192634E+02  0.47214511677E+01  0.21905289496E+02  0.51100000000E-03 0.  1.
         12    1    3    3    0    0  0.11966848978E+02  0.10239979224E+02 -0.26376263723E+01  0.15969336926E+02  0.00000000000E+00 0. -1.
</event>
<event>
 7    1  0.7357971E-011  0.4778727E+02  0.7816164E-02  0.1312668E+00
        -11   -1    0    0    0    0  0.00000000000E+00  0.00000000000E+00  0.45593999997E+02  0.45594000000E+02  0.51100000000E-03 0. -1.
         11   -1    0    0    0    0 -0.00000000000E+00 -0.00000000000E+00 -0.45593999997E+02  0.45594000000E+02  0.51100000000E-03 0.  1.
    9900012    2    1    2    0    0  0.10262688030E+02  0.19888744041E+02  0.37185188348E+02  0.47787272615E+02  0.20000007159E+02 0.  0.
        -12    1    1    2    0    0 -0.10262688030E+02 -0.19888744041E+02 -0.37185188348E+02  0.43400727385E+02  0.00000000000E+00 0.  1.
         11    1    3    3    0    0 -0.87005742206E+00  0.11219163515E+02  0.12440804281E+02  0.16774988564E+02  0.51100000000E-03 0. -1.
        -11    1    3    3    0    0  0.12856621235E+02  0.37553850446E+01  0.16376788650E+02  0.21156437157E+02  0.51100000000E-03 0.  1.
        -12    1    3    3    0    0 -0.17238757830E+01  0.49141954811E+01  0.83675954165E+01  0.98558468939E+01  0.00000000000E+00 0.  1.
</event>
<event>
 7    1  0.7357971E-011  0.4778727E+02  0.7816164E-02  0.1312668E+00
        -11   -1    0    0    0    0  0.00000000000E+00  0.00000000000E+00  0.45593999997E+02  0.45594000000E+02  0.51100000000E-03 0.  1.
         11   -1    0    0    0    0 -0.00000000000E+00 -0.00000000000E+00 -0.45593999997E+02  0.45594000000E+02  0.51100000000E-03 0. -1.
    9900012    2    1    2    0    0  0.14320115195E+02  0.40902619347E+02  0.23522903828E+01  0.47787271450E+02  0.20000001849E+02 0.  0.
        -12    1    1    2    0    0 -0.14320115195E+02 -0.40902619347E+02 -0.23522903828E+01  0.43400728550E+02  0.00000000000E+00 0.  1.
         11    1    3    3    0    0  0.27801511236E+01 -0.18573804129E+00 -0.11230011808E+01  0.30041422742E+01  0.51100000000E-03 0. -1.
        -11    1    3    3    0    0  0.13231616839E+02  0.37410241141E+02  0.37352119477E+00  0.39683010782E+02  0.51100000000E-03 0.  1.
        -12    1    3    3    0    0 -0.16916527672E+01  0.36781162474E+01  0.31017703688E+01  0.51001183942E+01  0.00000000000E+00 0.  1.
</event>
<event>
 7    1  0.8712922E-011  0.4778727E+02  0.7816164E-02  0.1312668E+00
        -11   -1    0    0    0    0  0.00000000000E+00  0.00000000000E+00  0.45593999997E+02  0.45594000000E+02  0.51100000000E-03 0. -1.
         11   -1    0    0    0    0 -0.00000000000E+00 -0.00000000000E+00 -0.45593999997E+02  0.45594000000E+02  0.51100000000E-03 0.  1.
    9900012    2    1    2    0    0 -0.24276107112E+02  0.66157460132E+01 -0.35362779063E+02  0.47787267116E+02  0.19999982090E+02 0.  0.
         12    1    1    2    0    0  0.24276107112E+02 -0.66157460132E+01  0.35362779063E+02  0.43400732884E+02  0.00000000000E+00 0. -1.
         11    1    3    3    0    0 -0.67989281921E+01 -0.31947983877E+01 -0.11867962149E+01  0.76053038609E+01  0.51100000000E-03 0. -1.
        -11    1    3    3    0    0 -0.55653834710E+01  0.58878417339E+01 -0.17786147132E+02  0.19544492920E+02  0.51100000000E-03 0.  1.
        -12    1    3    3    0    0 -0.11911795449E+02  0.39227026670E+01 -0.16389835716E+02  0.20637470335E+02  0.00000000000E+00 0.  1.
</event>
<event>
 7    1  0.7357971E-011  0.4778727E+02  0.7816164E-02  0.1312668E+00
        -11   -1    0    0    0    0  0.00000000000E+00  0.00000000000E+00  0.45593999997E+02  0.45594000000E+02  0.51100000000E-03 0. -1.
         11   -1    0    0    0    0 -0.00000000000E+00 -0.00000000000E+00 -0.45593999997E+02  0.45594000000E+02  0.51100000000E-03 0.  1.
    9900012    2    1    2    0    0  0.22147347618E+01 -0.22938668889E+02 -0.36776838064E+02  0.47787269609E+02  0.19999993455E+02 0.  0.
         12    1    1    2    0    0 -0.22147347618E+01  0.22938668889E+02  0.36776838064E+02  0.43400730391E+02  0.00000000000E+00 0. -1.
         11    1    3    3    0    0  0.29241138056E+01 -0.16179350098E+02 -0.20398323067E+02  0.26199492273E+02  0.51100000000E-03 0. -1.
        -11    1    3    3    0    0 -0.25536497874E+01 -0.43621221440E+00 -0.14512582548E+02  0.14741996500E+02  0.51100000000E-03 0.  1.
        -12    1    3    3    0    0  0.18442707435E+01 -0.63231065760E+01 -0.18659324491E+01  0.68457808357E+01  0.00000000000E+00 0.  1.
</event>
<event>
 7    1  0.7357971E-011  0.4778727E+02  0.7816164E-02  0.1312668E+00
        -11   -1    0    0    0    0  0.00000000000E+00  0.00000000000E+00  0.45593999997E+02  0.45594000000E+02  0.51100000000E-03 0. -1.
         11   -1    0    0    0    0 -0.00000000000E+00 -0.00000000000E+00 -0.45593999997E+02  0.45594000000E+02  0.51100000000E-03 0.  1.
    9900012    2    1    2    0    0  0.26225383949E+02  0.52444631267E+01 -0.34181105526E+02  0.47787272682E+02  0.20000007467E+02 0.  0.
         12    1    1    2    0    0 -0.26225383949E+02 -0.52444631267E+01  0.34181105526E+02  0.43400727318E+02  0.00000000000E+00 0. -1.
         11    1    3    3    0    0  0.66407829798E+01  0.67547652580E+01 -0.34874915874E+01  0.10094030419E+02  0.51100000000E-03 0. -1.
        -11    1    3    3    0    0  0.12604112029E+02 -0.55890883855E+01 -0.19782592317E+02  0.24113326358E+02  0.51100000000E-03 0.  1.
         12    1    3    3    0    0  0.69804889407E+01  0.40787862542E+01 -0.10911021622E+02  0.13579915905E+02  0.00000000000E+00 0. -1.
</event>
<event>
 7    1  0.7357971E-011  0.4778728E+02  0.7816164E-02  0.1312668E+00
        -11   -1    0    0    0    0  0.00000000000E+00  0.00000000000E+00  0.45593999997E+02  0.45594000000E+02  0.51100000000E-03 0. -1.
         11   -1    0    0    0    0 -0.00000000000E+00 -0.00000000000E+00 -0.45593999997E+02  0.45594000000E+02  0.51100000000E-03 0.  1.
    9900012    2    1    2    0    0 -0.38518925566E+02  0.85848706721E+01  0.18061429512E+02  0.47787275730E+02  0.20000021361E+02 0.  0.
        -12    1    1    2    0    0  0.38518925566E+02 -0.85848706721E+01 -0.18061429512E+02  0.43400724270E+02  0.00000000000E+00 0.  1.
         11    1    3    3    0    0 -0.11939160267E+02 -0.54075476867E+01  0.23879046102E+01  0.13322432532E+02  0.51100000000E-03 0. -1.
        -11    1    3    3    0    0 -0.19852524572E+02  0.91138065356E+01  0.14120296131E+02  0.26010900879E+02  0.51100000000E-03 0.  1.
         12    1    3    3    0    0 -0.67272407264E+01  0.48786118233E+01  0.15532287701E+01  0.84539423186E+01  0.00000000000E+00 0. -1.
</event>
<event>
 7    1  0.7357971E-011  0.4778726E+02  0.7816164E-02  0.1312668E+00
        -11   -1    0    0    0    0  0.00000000000E+00  0.00000000000E+00  0.45593999997E+02  0.45594000000E+02  0.51100000000E-03 0. -1.
         11   -1    0    0    0    0 -0.00000000000E+00 -0.00000000000E+00 -0.45593999997E+02  0.45594000000E+02  0.51100000000E-03 0.  1.
    9900012    2    1    2    0    0  0.29729739838E+02  0.31249806847E+02  0.48182942559E+01  0.47787264772E+02  0.19999971401E+02 0.  0.
        -12    1    1    2    0    0 -0.29729739838E+02 -0.31249806847E+02 -0.48182942559E+01  0.43400735228E+02  0.00000000000E+00 0.  1.
         11    1    3    3    0    0  0.15379199895E+02  0.22916854560E+02  0.60683604001E+01  0.28258220230E+02  0.51100000000E-03 0. -1.
        -11    1    3    3    0    0  0.64378394149E+01 -0.22438649733E+00  0.30225071317E+01  0.71155938090E+01  0.51100000000E-03 0.  1.
        -12    1    3    3    0    0  0.79127005275E+01  0.85573387843E+01 -0.42725732759E+01  0.12413450733E+02  0.00000000000E+00 0.  1.
</event>
<event>
 7    1  0.7357971E-011  0.4778727E+02  0.7816164E-02  0.1312668E+00
        -11   -1    0    0    0    0  0.00000000000E+00  0.00000000000E+00  0.45593999997E+02  0.45594000000E+02  0.51100000000E-03 0. -1.
         11   -1    0    0    0    0 -0.00000000000E+00 -0.00000000000E+00 -0.45593999997E+02  0.45594000000E+02  0.51100000000E-03 0.  1.
    9900012    2    1    2    0    0  0.13321077113E+02 -0.27757021859E+02 -0.30589538711E+02  0.47787271475E+02  0.20000001964E+02 0.  0.
         12    1    1    2    0    0 -0.13321077113E+02  0.27757021859E+02  0.30589538711E+02  0.43400728525E+02  0.00000000000E+00 0. -1.
         11    1    3    3    0    0 -0.28777308224E+01  0.54366478598E+00 -0.22322055803E+01  0.36823427461E+01  0.51100000000E-03 0. -1.
        -11    1    3    3    0    0  0.11025723831E+02 -0.25577465147E+02 -0.24554567188E+02  0.37130850776E+02  0.51100000000E-03 0.  1.
         12    1    3    3    0    0  0.51730841040E+01 -0.27232214980E+01 -0.38027659433E+01  0.69740779530E+01  0.00000000000E+00 0. -1.
</event>
<event>
 7    1  0.7357971E-011  0.4778727E+02  0.7816164E-02  0.1312668E+00
        -11   -1    0    0    0    0  0.00000000000E+00  0.00000000000E+00  0.45593999997E+02  0.45594000000E+02  0.51100000000E-03 0.  1.
         11   -1    0    0    0    0 -0.00000000000E+00 -0.00000000000E+00 -0.45593999997E+02  0.45594000000E+02  0.51100000000E-03 0. -1.
    9900012    2    1    2    0    0  0.36046678227E+02 -0.14325964228E+02 -0.19468617663E+02  0.47787270329E+02  0.19999996737E+02 0.  0.
         12    1    1    2    0    0 -0.36046678227E+02  0.14325964228E+02  0.19468617663E+02  0.43400729671E+02  0.00000000000E+00 0. -1.
         11    1    3    3    0    0 -0.76258727564E+00  0.10723490410E+00  0.44038109812E-01  0.77134836089E+00  0.51100000000E-03 0. -1.
        -11    1    3    3    0    0  0.57495129330E+01 -0.97709017704E+01 -0.43930090687E+01  0.12158369517E+02  0.51100000000E-03 0.  1.
        -12    1    3    3    0    0  0.31059752570E+02 -0.46622973619E+01 -0.15119646704E+02  0.34857552451E+02  0.00000000000E+00 0.  1.
</event>
<event>
 7    1  0.7357971E-011  0.4778727E+02  0.7816164E-02  0.1312668E+00
        -11   -1    0    0    0    0  0.00000000000E+00  0.00000000000E+00  0.45593999997E+02  0.45594000000E+02  0.51100000000E-03 0. -1.
         11   -1    0    0    0    0 -0.00000000000E+00 -0.00000000000E+00 -0.45593999997E+02  0.45594000000E+02  0.51100000000E-03 0.  1.
    9900012    2    1    2    0    0  0.82678684906E+01 -0.22622067276E+02 -0.36104128873E+02  0.47787266148E+02  0.19999977675E+02 0.  0.
         12    1    1    2    0    0 -0.82678684906E+01  0.22622067276E+02  0.36104128873E+02  0.43400733852E+02  0.00000000000E+00 0. -1.
         11    1    3    3    0    0 -0.55085199060E+01 -0.21851557703E+01 -0.48599669989E+01  0.76640705103E+01  0.51100000000E-03 0.  1.
        -11    1    3    3    0    0  0.13065319020E+02 -0.16588805236E+02 -0.27798721945E+02  0.34909310538E+02  0.51100000000E-03 0. -1.
        -12    1    3    3    0    0  0.71106937698E+00 -0.38481062700E+01 -0.34454399295E+01  0.52138850996E+01  0.00000000000E+00 0.  1.
</event>
<event>
 7    1  0.7357971E-011  0.4778727E+02  0.7816164E-02  0.1312668E+00
        -11   -1    0    0    0    0  0.00000000000E+00  0.00000000000E+00  0.45593999997E+02  0.45594000000E+02  0.51100000000E-03 0.  1.
         11   -1    0    0    0    0 -0.00000000000E+00 -0.00000000000E+00 -0.45593999997E+02  0.45594000000E+02  0.51100000000E-03 0. -1.
    9900012    2    1    2    0    0 -0.36174836290E+02 -0.81924178812E+01 -0.22536385989E+02  0.47787272071E+02  0.20000004680E+02 0.  0.
         12    1    1    2    0    0  0.36174836290E+02  0.81924178812E+01  0.22536385989E+02  0.43400727929E+02  0.00000000000E+00 0. -1.
         11    1    3    3    0    0 -0.29203924288E+02  0.15402940338E+01 -0.16191957243E+02  0.33427850352E+02  0.51100000000E-03 0. -1.
        -11    1    3    3    0    0 -0.34962354978E+01 -0.79303491770E+01 -0.28818861539E+01  0.91334204321E+01  0.51100000000E-03 0.  1.
         12    1    3    3    0    0 -0.34746765036E+01 -0.18023627380E+01 -0.34625425922E+01  0.52260012865E+01  0.00000000000E+00 0. -1.
</event>
<event>
 7    1  0.7357971E-011  0.4778727E+02  0.7816164E-02  0.1312668E+00
        -11   -1    0    0    0    0  0.00000000000E+00  0.00000000000E+00  0.45593999997E+02  0.45594000000E+02  0.51100000000E-03 0. -1.
         11   -1    0    0    0    0 -0.00000000000E+00 -0.00000000000E+00 -0.45593999997E+02  0.45594000000E+02  0.51100000000E-03 0.  1.
    9900012    2    1    2    0    0 -0.17685545924E+01  0.30356167923E+02  0.30967700497E+02  0.47787272006E+02  0.20000004385E+02 0.  0.
        -12    1    1    2    0    0  0.17685545924E+01 -0.30356167923E+02 -0.30967700497E+02  0.43400727994E+02  0.00000000000E+00 0.  1.
         11    1    3    3    0    0 -0.11201076412E+00  0.15861044930E+02  0.23030378920E+02  0.27963970500E+02  0.51100000000E-03 0. -1.
        -11    1    3    3    0    0  0.12925836578E+01  0.59955420876E+01 -0.19687999313E+01  0.64415425844E+01  0.51100000000E-03 0.  1.
        -12    1    3    3    0    0 -0.29491274861E+01  0.84995809049E+01  0.99061215087E+01  0.13381758922E+02  0.00000000000E+00 0.  1.
</event>
<event>
 7    1  0.7357971E-011  0.4778726E+02  0.7816164E-02  0.1312668E+00
        -11   -1    0    0    0    0  0.00000000000E+00  0.00000000000E+00  0.45593999997E+02  0.45594000000E+02  0.51100000000E-03 0. -1.
         11   -1    0    0    0    0 -0.00000000000E+00 -0.00000000000E+00 -0.45593999997E+02  0.45594000000E+02  0.51100000000E-03 0.  1.
    9900012    2    1    2    0    0 -0.28395903063E+02 -0.18298263470E+02  0.27248307723E+02  0.47787262327E+02  0.19999960254E+02 0.  0.
        -12    1    1    2    0    0  0.28395903063E+02  0.18298263470E+02 -0.27248307723E+02  0.43400737673E+02  0.00000000000E+00 0.  1.
         11    1    3    3    0    0 -0.15732431326E+01 -0.16203328112E+01 -0.25201452057E+01  0.33840367156E+01  0.51100000000E-03 0. -1.
        -11    1    3    3    0    0 -0.67745815311E+01 -0.46635836298E+01  0.27359473718E+01  0.86677203160E+01  0.51100000000E-03 0.  1.
         12    1    3    3    0    0 -0.20048078399E+02 -0.12014347029E+02  0.27032505557E+02  0.35735505296E+02  0.00000000000E+00 0. -1.
</event>
<event>
 7    1  0.7357971E-011  0.4778727E+02  0.7816164E-02  0.1312668E+00
        -11   -1    0    0    0    0  0.00000000000E+00  0.00000000000E+00  0.45593999997E+02  0.45594000000E+02  0.51100000000E-03 0.  1.
         11   -1    0    0    0    0 -0.00000000000E+00 -0.00000000000E+00 -0.45593999997E+02  0.45594000000E+02  0.51100000000E-03 0. -1.
    9900012    2    1    2    0    0 -0.24719629265E+02  0.33338583210E+02 -0.12692604305E+02  0.47787269528E+02  0.19999993087E+02 0.  0.
         12    1    1    2    0    0  0.24719629265E+02 -0.33338583210E+02  0.12692604305E+02  0.43400730472E+02  0.00000000000E+00 0. -1.
         11    1    3    3    0    0 -0.25427581390E+00  0.17237679583E+01  0.21875887666E+00  0.17561001881E+01  0.51100000000E-03 0. -1.
        -11    1    3    3    0    0 -0.40405257569E+01  0.66304671682E+01  0.48902061374E+01  0.91762225119E+01  0.51100000000E-03 0.  1.
        -12    1    3    3    0    0 -0.20424827694E+02  0.24984348083E+02 -0.17801569319E+02  0.36854946828E+02  0.00000000000E+00 0.  1.
</event>
<event>
 7    1  0.7357971E-011  0.4778727E+02  0.7816164E-02  0.1312668E+00
        -11   -1    0    0    0    0  0.00000000000E+00  0.00000000000E+00  0.45593999997E+02  0.45594000000E+02  0.51100000000E-03 0. -1.
         11   -1    0    0    0    0 -0.00000000000E+00 -0.00000000000E+00 -0.45593999997E+02  0.45594000000E+02  0.51100000000E-03 0.  1.
    9900012    2    1    2    0    0  0.51976184642E+01 -0.15163182929E+02  0.40332193755E+02  0.47787271811E+02  0.20000003496E+02 0.  0.
        -12    1    1    2    0    0 -0.51976184642E+01  0.15163182929E+02 -0.40332193755E+02  0.43400728189E+02  0.00000000000E+00 0.  1.
         11    1    3    3    0    0 -0.20191489570E+01 -0.82333843688E+01  0.16440754943E+02  0.18497675639E+02  0.51100000000E-03 0. -1.
        -11    1    3    3    0    0  0.85504205465E+01 -0.65433600476E+01  0.81923471126E+01  0.13529220366E+02  0.51100000000E-03 0.  1.
        -12    1    3    3    0    0 -0.13336531253E+01 -0.38643851271E+00  0.15699091699E+02  0.15760375807E+02  0.00000000000E+00 0.  1.
</event>
<event>
 7    1  0.8863429E-011  0.4778726E+02  0.7816164E-02  0.1312668E+00
        -11   -1    0    0    0    0  0.00000000000E+00  0.00000000000E+00  0.45593999997E+02  0.45594000000E+02  0.51100000000E-03 0. -1.
         11   -1    0    0    0    0 -0.00000000000E+00 -0.00000000000E+00 -0.45593999997E+02  0.45594000000E+02  0.51100000000E-03 0.  1.
    9900012    2    1    2    0    0  0.24059569844E+02 -0.18000095610E+02 -0.31317049657E+02  0.47787263344E+02  0.19999964891E+02 0.  0.
         12    1    1    2    0    0 -0.24059569844E+02  0.18000095610E+02  0.31317049657E+02  0.43400736656E+02  0.00000000000E+00 0. -1.
         11    1    3    3    0    0  0.72514032511E+01 -0.18951978238E+01 -0.85180337205E+00  0.75432216690E+01  0.51100000000E-03 0. -1.
        -11    1    3    3    0    0  0.50340008508E+01 -0.11751844585E+02 -0.20742859621E+02  0.24366231576E+02  0.51100000000E-03 0.  1.
        -12    1    3    3    0    0  0.11774165742E+02 -0.43530532017E+01 -0.97223866642E+01  0.15877810099E+02  0.00000000000E+00 0.  1.
</event>
<event>
 7    1  0.7357971E-011  0.4778727E+02  0.7816164E-02  0.1312668E+00
        -11   -1    0    0    0    0  0.00000000000E+00  0.00000000000E+00  0.45593999997E+02  0.45594000000E+02  0.51100000000E-03 0. -1.
         11   -1    0    0    0    0 -0.00000000000E+00 -0.00000000000E+00 -0.45593999997E+02  0.45594000000E+02  0.51100000000E-03 0.  1.
    9900012    2    1    2    0    0 -0.41164264992E+02  0.70203877348E+01  0.11825422959E+02  0.47787272075E+02  0.20000004699E+02 0.  0.
        -12    1    1    2    0    0  0.41164264992E+02 -0.70203877348E+01 -0.11825422959E+02  0.43400727925E+02  0.00000000000E+00 0.  1.
         11    1    3    3    0    0 -0.28673449951E+02  0.10840235142E+02  0.31488580168E+01  0.30815462630E+02  0.51100000000E-03 0. -1.
        -11    1    3    3    0    0 -0.59183858376E+00 -0.23701701459E+01  0.24672563648E+01  0.34720791553E+01  0.51100000000E-03 0.  1.
         12    1    3    3    0    0 -0.11898976457E+02 -0.14496772615E+01  0.62093085769E+01  0.13499730290E+02  0.00000000000E+00 0. -1.
</event>
<event>
 7    1  0.7357971E-011  0.4778725E+02  0.7816164E-02  0.1312668E+00
        -11   -1    0    0    0    0  0.00000000000E+00  0.00000000000E+00  0.45593999997E+02  0.45594000000E+02  0.51100000000E-03 0.  1.
         11   -1    0    0    0    0 -0.00000000000E+00 -0.00000000000E+00 -0.45593999997E+02  0.45594000000E+02  0.51100000000E-03 0. -1.
    9900012    2    1    2    0    0  0.42262669216E+02 -0.73927957156E+01  0.65451205559E+01  0.47787248384E+02  0.19999896683E+02 0.  0.
        -12    1    1    2    0    0 -0.42262669216E+02  0.73927957156E+01 -0.65451205559E+01  0.43400751616E+02  0.00000000000E+00 0.  1.
         11    1    3    3    0    0  0.27484692204E+02 -0.18801581030E+01  0.88206950030E+01  0.28926596077E+02  0.51100000000E-03 0. -1.
        -11    1    3    3    0    0  0.48782123888E+01 -0.71795176431E+01 -0.86682047755E+00  0.87231764684E+01  0.51100000000E-03 0.  1.
         12    1    3    3    0    0  0.98997646232E+01  0.16668800304E+01 -0.14087539696E+01  0.10137475839E+02  0.00000000000E+00 0. -1.
</event>
<event>
 7    1  0.7357971E-011  0.4778727E+02  0.7816164E-02  0.1312668E+00
        -11   -1    0    0    0    0  0.00000000000E+00  0.00000000000E+00  0.45593999997E+02  0.45594000000E+02  0.51100000000E-03 0. -1.
         11   -1    0    0    0    0 -0.00000000000E+00 -0.00000000000E+00 -0.45593999997E+02  0.45594000000E+02  0.51100000000E-03 0.  1.
    9900012    2    1    2    0    0  0.74476023008E+01 -0.16918845861E+02 -0.39267157107E+02  0.47787265529E+02  0.19999974855E+02 0.  0.
         12    1    1    2    0    0 -0.74476023008E+01  0.16918845861E+02  0.39267157107E+02  0.43400734471E+02  0.00000000000E+00 0. -1.
         11    1    3    3    0    0 -0.44318973357E+01 -0.65876873330E+01 -0.25040137673E+02  0.26268761550E+02  0.51100000000E-03 0. -1.
        -11    1    3    3    0    0  0.77507174060E+01 -0.44892069526E+01 -0.72162561729E+01  0.11502215125E+02  0.51100000000E-03 0.  1.
        -12    1    3    3    0    0  0.41287822306E+01 -0.58419515754E+01 -0.70107632612E+01  0.10016288855E+02  0.00000000000E+00 0.  1.
</event>
<event>
 7    1  0.7357971E-011  0.4778727E+02  0.7816164E-02  0.1312668E+00
        -11   -1    0    0    0    0  0.00000000000E+00  0.00000000000E+00  0.45593999997E+02  0.45594000000E+02  0.51100000000E-03 0. -1.
         11   -1    0    0    0    0 -0.00000000000E+00 -0.00000000000E+00 -0.45593999997E+02  0.45594000000E+02  0.51100000000E-03 0.  1.
    9900012    2    1    2    0    0 -0.75235327572E+01  0.10046510130E+02 -0.41546207091E+02  0.47787271497E+02  0.20000002064E+02 0.  0.
         12    1    1    2    0    0  0.75235327572E+01 -0.10046510130E+02  0.41546207091E+02  0.43400728503E+02  0.00000000000E+00 0. -1.
         11    1    3    3    0    0  0.18302266576E+01  0.85419880697E+00 -0.23864356206E+01  0.31264133528E+01  0.51100000000E-03 0. -1.
        -11    1    3    3    0    0  0.10132065827E+01 -0.34276276289E+01 -0.20601624236E+01  0.41254682418E+01  0.51100000000E-03 0.  1.
        -12    1    3    3    0    0 -0.10366965998E+02  0.12619938952E+02 -0.37099609047E+02  0.40535389903E+02  0.00000000000E+00 0.  1.
</event>
<event>
 7    1  0.7619819E-011  0.4778728E+02  0.7816164E-02  0.1312668E+00
        -11   -1    0    0    0    0  0.00000000000E+00  0.00000000000E+00  0.45593999997E+02  0.45594000000E+02  0.51100000000E-03 0. -1.
         11   -1    0    0    0    0 -0.00000000000E+00 -0.00000000000E+00 -0.45593999997E+02  0.45594000000E+02  0.51100000000E-03 0.  1.
    9900012    2    1    2    0    0  0.58462309317E-01  0.96890292970E-01 -0.43400574112E+02  0.47787278360E+02  0.20000033356E+02 0.  0.
         12    1    1    2    0    0 -0.58462309317E-01 -0.96890292970E-01  0.43400574112E+02  0.43400721640E+02  0.00000000000E+00 0. -1.
         11    1    3    3    0    0 -0.24827965685E+01  0.49029431503E+01 -0.99820204073E+01  0.11394905090E+02  0.51100000000E-03 0. -1.
        -11    1    3    3    0    0  0.79557703788E+01 -0.18851454880E+01 -0.20942899457E+02  0.22482283998E+02  0.51100000000E-03 0.  1.
        -12    1    3    3    0    0 -0.54145115010E+01 -0.29209073694E+01 -0.12475654248E+02  0.13910089272E+02  0.00000000000E+00 0.  1.
</event>
<event>
 7    1  0.7357971E-011  0.4778727E+02  0.7816164E-02  0.1312668E+00
        -11   -1    0    0    0    0  0.00000000000E+00  0.00000000000E+00  0.45593999997E+02  0.45594000000E+02  0.51100000000E-03 0.  1.
         11   -1    0    0    0    0 -0.00000000000E+00 -0.00000000000E+00 -0.45593999997E+02  0.45594000000E+02  0.51100000000E-03 0. -1.
    9900012    2    1    2    0    0 -0.13470235107E+02  0.40103542107E+02  0.96892875802E+01  0.47787267089E+02  0.19999981967E+02 0.  0.
         12    1    1    2    0    0  0.13470235107E+02 -0.40103542107E+02 -0.96892875802E+01  0.43400732911E+02  0.00000000000E+00 0. -1.
         11    1    3    3    0    0 -0.43938609452E+00  0.71130800153E+01  0.70947098420E+01  0.10056036766E+02  0.51100000000E-03 0. -1.
        -11    1    3    3    0    0 -0.14212301470E+02  0.32978190908E+02  0.37162344826E+01  0.36102091181E+02  0.51100000000E-03 0.  1.
        -12    1    3    3    0    0  0.11814524576E+01  0.12271183793E-01 -0.11216567444E+01  0.16291391419E+01  0.00000000000E+00 0.  1.
</event>
<event>
 7    1  0.9345570E-011  0.4778728E+02  0.7816164E-02  0.1312668E+00
        -11   -1    0    0    0    0  0.00000000000E+00  0.00000000000E+00  0.45593999997E+02  0.45594000000E+02  0.51100000000E-03 0. -1.
         11   -1    0    0    0    0 -0.00000000000E+00 -0.00000000000E+00 -0.45593999997E+02  0.45594000000E+02  0.51100000000E-03 0.  1.
    9900012    2    1    2    0    0  0.75360985243E+01 -0.13878789714E+02 -0.40425354561E+02  0.47787275625E+02  0.20000020884E+02 0.  0.
         12    1    1    2    0    0 -0.75360985243E+01  0.13878789714E+02  0.40425354561E+02  0.43400724375E+02  0.00000000000E+00 0. -1.
         11    1    3    3    0    0  0.86035989509E+01 -0.28692811930E+01 -0.87717977031E+01  0.12617413549E+02  0.51100000000E-03 0. -1.
        -11    1    3    3    0    0  0.14893410489E+01 -0.94000195632E+01 -0.30475581840E+02  0.31927098103E+02  0.51100000000E-03 0.  1.
        -12    1    3    3    0    0 -0.25568414755E+01 -0.16094889580E+01 -0.11779750182E+01  0.32427639723E+01  0.00000000000E+00 0.  1.
</event>
<event>
 7    1  0.7357971E-011  0.4778727E+02  0.7816164E-02  0.1312668E+00
        -11   -1    0    0    0    0  0.00000000000E+00  0.00000000000E+00  0.45593999997E+02  0.45594000000E+02  0.51100000000E-03 0. -1.
         11   -1    0    0    0    0 -0.00000000000E+00 -0.00000000000E+00 -0.45593999997E+02  0.45594000000E+02  0.51100000000E-03 0.  1.
    9900012    2    1    2    0    0 -0.52856058222E+00 -0.32586459419E+02 -0.28661239680E+02  0.47787269894E+02  0.19999994753E+02 0.  0.
         12    1    1    2    0    0  0.52856058222E+00  0.32586459419E+02  0.28661239680E+02  0.43400730106E+02  0.00000000000E+00 0. -1.
         11    1    3    3    0    0 -0.26026489748E+00 -0.33956659672E+02 -0.25261630568E+02  0.42323426764E+02  0.51100000000E-03 0. -1.
        -11    1    3    3    0    0 -0.19142646914E+01  0.14630611624E+01 -0.11365264794E+01  0.26639538234E+01  0.51100000000E-03 0.  1.
         12    1    3    3    0    0  0.16459690067E+01 -0.92860909620E-01 -0.22630826333E+01  0.27998893057E+01  0.00000000000E+00 0. -1.
</event>
<event>
 7    1  0.7357971E-011  0.4778727E+02  0.7816164E-02  0.1312668E+00
        -11   -1    0    0    0    0  0.00000000000E+00  0.00000000000E+00  0.45593999997E+02  0.45594000000E+02  0.51100000000E-03 0.  1.
         11   -1    0    0    0    0 -0.00000000000E+00 -0.00000000000E+00 -0.45593999997E+02  0.45594000000E+02  0.51100000000E-03 0. -1.
    9900012    2    1    2    0    0 -0.42617184586E+02  0.28115666375E+01 -0.77132266165E+01  0.47787271966E+02  0.20000004204E+02 0.  0.
         12    1    1    2    0    0  0.42617184586E+02 -0.28115666375E+01  0.77132266165E+01  0.43400728034E+02  0.00000000000E+00 0. -1.
         11    1    3    3    0    0 -0.21495571342E+02 -0.39313945463E+01 -0.34716041315E+01  0.22126171967E+02  0.51100000000E-03 0. -1.
        -11    1    3    3    0    0 -0.14102161409E+02  0.10272733742E+02 -0.27111143450E+01  0.17656448006E+02  0.51100000000E-03 0.  1.
        -12    1    3    3    0    0 -0.70194518351E+01 -0.35297725578E+01 -0.15305081401E+01  0.80046519938E+01  0.00000000000E+00 0.  1.
</event>
<event>
 7    1  0.7357971E-011  0.4778727E+02  0.7816164E-02  0.1312668E+00
        -11   -1    0    0    0    0  0.00000000000E+00  0.00000000000E+00  0.45593999997E+02  0.45594000000E+02  0.51100000000E-03 0. -1.
         11   -1    0    0    0    0 -0.00000000000E+00 -0.00000000000E+00 -0.45593999997E+02  0.45594000000E+02  0.51100000000E-03 0.  1.
    9900012    2    1    2    0    0  0.63307396661E+01  0.36824203323E+02 -0.22079925403E+02  0.47787270503E+02  0.19999997531E+02 0.  0.
         12    1    1    2    0    0 -0.63307396661E+01 -0.36824203323E+02  0.22079925403E+02  0.43400729497E+02  0.00000000000E+00 0. -1.
         11    1    3    3    0    0  0.55974708680E+01  0.11380571866E+02  0.38569754982E+00  0.12688493172E+02  0.51100000000E-03 0.  1.
        -11    1    3    3    0    0 -0.16678687232E+01  0.34139487193E+01 -0.73507693616E+01  0.82746989314E+01  0.51100000000E-03 0. -1.
         12    1    3    3    0    0  0.24011375212E+01  0.22029682737E+02 -0.15114853591E+02  0.26824078400E+02  0.00000000000E+00 0. -1.
</event>
<event>
 7    1  0.7357971E-011  0.4778728E+02  0.7816164E-02  0.1312668E+00
        -11   -1    0    0    0    0  0.00000000000E+00  0.00000000000E+00  0.45593999997E+02  0.45594000000E+02  0.51100000000E-03 0. -1.
         11   -1    0    0    0    0 -0.00000000000E+00 -0.00000000000E+00 -0.45593999997E+02  0.45594000000E+02  0.51100000000E-03 0.  1.
    9900012    2    1    2    0    0 -0.26534101165E+02  0.96036684410E+01  0.32974745464E+02  0.47787276382E+02  0.20000024337E+02 0.  0.
        -12    1    1    2    0    0  0.26534101165E+02 -0.96036684410E+01 -0.32974745464E+02  0.43400723618E+02  0.00000000000E+00 0.  1.
         11    1    3    3    0    0 -0.41174289644E+01 -0.40961539938E+01  0.10070818481E+02  0.11625535857E+02  0.51100000000E-03 0.  1.
        -11    1    3    3    0    0 -0.13086999710E+02  0.11609295282E+02  0.19020049461E+02  0.25841973224E+02  0.51100000000E-03 0. -1.
         12    1    3    3    0    0 -0.93296724903E+01  0.20905271531E+01  0.38838775219E+01  0.10319767302E+02  0.00000000000E+00 0. -1.
</event>
<event>
 7    1  0.9217440E-011  0.4778725E+02  0.7816164E-02  0.1312668E+00
        -11   -1    0    0    0    0  0.00000000000E+00  0.00000000000E+00  0.45593999997E+02  0.45594000000E+02  0.51100000000E-03 0. -1.
         11   -1    0    0    0    0 -0.00000000000E+00 -0.00000000000E+00 -0.45593999997E+02  0.45594000000E+02  0.51100000000E-03 0.  1.
    9900012    2    1    2    0    0 -0.20600516019E+02  0.19670870117E+02 -0.32745997286E+02  0.47787254273E+02  0.19999923533E+02 0.  0.
         12    1    1    2    0    0  0.20600516019E+02 -0.19670870117E+02  0.32745997286E+02  0.43400745727E+02  0.00000000000E+00 0. -1.
         11    1    3    3    0    0  0.11513881960E+01  0.13943684711E+00 -0.15477851261E+01  0.19341087017E+01  0.51100000000E-03 0. -1.
        -11    1    3    3    0    0 -0.34243890891E+00 -0.17159695674E+00 -0.96232388482E+01  0.96308585346E+01  0.51100000000E-03 0.  1.
        -12    1    3    3    0    0 -0.21409465306E+02  0.19703030227E+02 -0.21574973311E+02  0.36222287037E+02  0.00000000000E+00 0.  1.
</event>
<event>
 7    1  0.7357971E-011  0.4778727E+02  0.7816164E-02  0.1312668E+00
        -11   -1    0    0    0    0  0.00000000000E+00  0.00000000000E+00  0.45593999997E+02  0.45594000000E+02  0.51100000000E-03 0. -1.
         11   -1    0    0    0    0 -0.00000000000E+00 -0.00000000000E+00 -0.45593999997E+02  0.45594000000E+02  0.51100000000E-03 0.  1.
    9900012    2    1    2    0    0 -0.71621530286E+00 -0.44653857804E+00 -0.43392521167E+02  0.47787271270E+02  0.20000001030E+02 0.  0.
         12    1    1    2    0    0  0.71621530286E+00  0.44653857804E+00  0.43392521167E+02  0.43400728730E+02  0.00000000000E+00 0. -1.
         11    1    3    3    0    0 -0.27286790158E+01  0.16317432315E+01  0.50062639138E+00  0.32185248468E+01  0.51100000000E-03 0. -1.
        -11    1    3    3    0    0  0.40625000440E+01 -0.27216916375E+00 -0.35713893330E+02  0.35945238346E+02  0.51100000000E-03 0.  1.
         12    1    3    3    0    0 -0.20500363310E+01 -0.18061126458E+01 -0.81792542278E+01  0.86235080780E+01  0.00000000000E+00 0. -1.
</event>
<event>
 7    1  0.7357971E-011  0.4778727E+02  0.7816164E-02  0.1312668E+00
        -11   -1    0    0    0    0  0.00000000000E+00  0.00000000000E+00  0.45593999997E+02  0.45594000000E+02  0.51100000000E-03 0. -1.
         11   -1    0    0    0    0 -0.00000000000E+00 -0.00000000000E+00 -0.45593999997E+02  0.45594000000E+02  0.51100000000E-03 0.  1.
    9900012    2    1    2    0    0 -0.26870906824E+02 -0.19986730232E+02  0.27606315467E+02  0.47787266451E+02  0.19999979057E+02 0.  0.
        -12    1    1    2    0    0  0.26870906824E+02  0.19986730232E+02 -0.27606315467E+02  0.43400733549E+02  0.00000000000E+00 0.  1.
         11    1    3    3    0    0 -0.12422608040E+01  0.29554158340E+01  0.14397018264E+01  0.35143187486E+01  0.51100000000E-03 0. -1.
        -11    1    3    3    0    0 -0.21528235129E+02 -0.23060671975E+02  0.23960616264E+02  0.39615282805E+02  0.51100000000E-03 0.  1.
        -12    1    3    3    0    0 -0.41004108917E+01  0.11852590917E+00  0.22059973763E+01  0.46576648973E+01  0.00000000000E+00 0.  1.
</event>
<event>
 7    1  0.7357971E-011  0.4778727E+02  0.7816164E-02  0.1312668E+00
        -11   -1    0    0    0    0  0.00000000000E+00  0.00000000000E+00  0.45593999997E+02  0.45594000000E+02  0.51100000000E-03 0. -1.
         11   -1    0    0    0    0 -0.00000000000E+00 -0.00000000000E+00 -0.45593999997E+02  0.45594000000E+02  0.51100000000E-03 0.  1.
    9900012    2    1    2    0    0  0.11447480824E-01 -0.39401678961E+02 -0.18196997029E+02  0.47787272623E+02  0.20000007197E+02 0.  0.
         12    1    1    2    0    0 -0.11447480824E-01  0.39401678961E+02  0.18196997029E+02  0.43400727377E+02  0.00000000000E+00 0. -1.
         11    1    3    3    0    0  0.57896962875E+01 -0.15914823745E+02 -0.32510031204E+01  0.17244454746E+02  0.51100000000E-03 0. -1.
        -11    1    3    3    0    0 -0.37700331887E+01 -0.42248341546E+01 -0.83402847761E+01  0.10080809704E+02  0.51100000000E-03 0.  1.
        -12    1    3    3    0    0 -0.20082156180E+01 -0.19262021062E+02 -0.66057091322E+01  0.20462008173E+02  0.00000000000E+00 0.  1.
</event>
<event>
 7    1  0.7357971E-011  0.4778729E+02  0.7816164E-02  0.1312668E+00
        -11   -1    0    0    0    0  0.00000000000E+00  0.00000000000E+00  0.45593999997E+02  0.45594000000E+02  0.51100000000E-03 0.  1.
         11   -1    0    0    0    0 -0.00000000000E+00 -0.00000000000E+00 -0.45593999997E+02  0.45594000000E+02  0.51100000000E-03 0. -1.
    9900012    2    1    2    0    0 -0.40533786693E+02  0.10806342554E+02 -0.11129091516E+02  0.47787290547E+02  0.20000088919E+02 0.  0.
         12    1    1    2    0    0  0.40533786693E+02 -0.10806342554E+02  0.11129091516E+02  0.43400709453E+02  0.00000000000E+00 0. -1.
         11    1    3    3    0    0 -0.47185561428E+01  0.39697294430E+01 -0.50480051196E+01  0.79690576528E+01  0.51100000000E-03 0. -1.
        -11    1    3    3    0    0 -0.28688178779E+02  0.27855449980E+01  0.12080293349E+01  0.28848400263E+02  0.51100000000E-03 0.  1.
        -12    1    3    3    0    0 -0.71270517706E+01  0.40510681129E+01 -0.72891157317E+01  0.10969832631E+02  0.00000000000E+00 0.  1.
</event>
<event>
 7    1  0.7357971E-011  0.4778727E+02  0.7816164E-02  0.1312668E+00
        -11   -1    0    0    0    0  0.00000000000E+00  0.00000000000E+00  0.45593999997E+02  0.45594000000E+02  0.51100000000E-03 0. -1.
         11   -1    0    0    0    0 -0.00000000000E+00 -0.00000000000E+00 -0.45593999997E+02  0.45594000000E+02  0.51100000000E-03 0.  1.
    9900012    2    1    2    0    0  0.36669675674E+01 -0.23438702572E+02 -0.36342865517E+02  0.47787270705E+02  0.19999998452E+02 0.  0.
         12    1    1    2    0    0 -0.36669675674E+01  0.23438702572E+02  0.36342865517E+02  0.43400729295E+02  0.00000000000E+00 0. -1.
         11    1    3    3    0    0 -0.61296065205E+01 -0.14320850864E+02 -0.17471492732E+02  0.23407518111E+02  0.51100000000E-03 0. -1.
        -11    1    3    3    0    0  0.72311870081E+01 -0.20265418109E+01 -0.67139593739E+01  0.10073439730E+02  0.51100000000E-03 0.  1.
         12    1    3    3    0    0  0.25653870799E+01 -0.70913098972E+01 -0.12157413410E+02  0.14306312864E+02  0.00000000000E+00 0. -1.
</event>
<event>
 7    1  0.7357971E-011  0.4778727E+02  0.7816164E-02  0.1312668E+00
        -11   -1    0    0    0    0  0.00000000000E+00  0.00000000000E+00  0.45593999997E+02  0.45594000000E+02  0.51100000000E-03 0. -1.
         11   -1    0    0    0    0 -0.00000000000E+00 -0.00000000000E+00 -0.45593999997E+02  0.45594000000E+02  0.51100000000E-03 0.  1.
    9900012    2    1    2    0    0  0.14853855464E+02 -0.20950070698E+02  0.34986867159E+02  0.47787270075E+02  0.19999995581E+02 0.  0.
        -12    1    1    2    0    0 -0.14853855464E+02  0.20950070698E+02 -0.34986867159E+02  0.43400729925E+02  0.00000000000E+00 0.  1.
         11    1    3    3    0    0  0.69635729301E+01 -0.16862518615E+02  0.29536972675E+02  0.34716979089E+02  0.51100000000E-03 0. -1.
        -11    1    3    3    0    0  0.74116314256E+01 -0.50162611684E+01  0.16131224539E+01  0.90938067283E+01  0.51100000000E-03 0.  1.
         12    1    3    3    0    0  0.47865110845E+00  0.92870908453E+00  0.38367720295E+01  0.39764842580E+01  0.00000000000E+00 0. -1.
</event>
<event>
 7    1  0.7357971E-011  0.4778727E+02  0.7816164E-02  0.1312668E+00
        -11   -1    0    0    0    0  0.00000000000E+00  0.00000000000E+00  0.45593999997E+02  0.45594000000E+02  0.51100000000E-03 0. -1.
         11   -1    0    0    0    0 -0.00000000000E+00 -0.00000000000E+00 -0.45593999997E+02  0.45594000000E+02  0.51100000000E-03 0.  1.
    9900012    2    1    2    0    0  0.16344143737E+02 -0.14914078804E+02 -0.37337150543E+02  0.47787267382E+02  0.19999983304E+02 0.  0.
         12    1    1    2    0    0 -0.16344143737E+02  0.14914078804E+02  0.37337150543E+02  0.43400732618E+02  0.00000000000E+00 0. -1.
         11    1    3    3    0    0  0.11856290955E+02 -0.14597979799E+02 -0.13343415856E+02  0.23059041532E+02  0.51100000000E-03 0. -1.
        -11    1    3    3    0    0  0.23167787445E+01  0.17680587695E+01 -0.10087056291E+02  0.10499628586E+02  0.51100000000E-03 0.  1.
         12    1    3    3    0    0  0.21710740374E+01 -0.20841577751E+01 -0.13906678396E+02  0.14228597264E+02  0.00000000000E+00 0. -1.
</event>
<event>
 7    1  0.7357971E-011  0.4778727E+02  0.7816164E-02  0.1312668E+00
        -11   -1    0    0    0    0  0.00000000000E+00  0.00000000000E+00  0.45593999997E+02  0.45594000000E+02  0.51100000000E-03 0.  1.
         11   -1    0    0    0    0 -0.00000000000E+00 -0.00000000000E+00 -0.45593999997E+02  0.45594000000E+02  0.51100000000E-03 0. -1.
    9900012    2    1    2    0    0 -0.94380341722E+01 -0.40365677663E+02 -0.12851425742E+02  0.47787267681E+02  0.19999984665E+02 0.  0.
         12    1    1    2    0    0  0.94380341722E+01  0.40365677663E+02  0.12851425742E+02  0.43400732319E+02  0.00000000000E+00 0. -1.
         11    1    3    3    0    0  0.11731627236E+01 -0.10486141264E+02  0.45831509705E+01  0.11503944648E+02  0.51100000000E-03 0. -1.
        -11    1    3    3    0    0 -0.62093854449E+01 -0.18432876270E+02 -0.92413246320E+01  0.21534378942E+02  0.51100000000E-03 0.  1.
         12    1    3    3    0    0 -0.44018114509E+01 -0.11446660128E+02 -0.81932520802E+01  0.14748944091E+02  0.00000000000E+00 0. -1.
</event>
<event>
 7    1  0.7357971E-011  0.4778727E+02  0.7816164E-02  0.1312668E+00
        -11   -1    0    0    0    0  0.00000000000E+00  0.00000000000E+00  0.45593999997E+02  0.45594000000E+02  0.51100000000E-03 0. -1.
         11   -1    0    0    0    0 -0.00000000000E+00 -0.00000000000E+00 -0.45593999997E+02  0.45594000000E+02  0.51100000000E-03 0.  1.
    9900012    2    1    2    0    0  0.43153293456E+01 -0.95860455978E+00 -0.43175015738E+02  0.47787274499E+02  0.20000015752E+02 0.  0.
         12    1    1    2    0    0 -0.43153293456E+01  0.95860455978E+00  0.43175015738E+02  0.43400725501E+02  0.00000000000E+00 0. -1.
         11    1    3    3    0    0  0.74895410753E+01  0.37766919188E+01 -0.21753845586E+02  0.23314939962E+02  0.51100000000E-03 0. -1.
        -11    1    3    3    0    0  0.31023048733E+01 -0.20089259969E+01 -0.13537617648E+02  0.14033074183E+02  0.51100000000E-03 0.  1.
         12    1    3    3    0    0 -0.62765166029E+01 -0.27263704817E+01 -0.78835525032E+01  0.10439260354E+02  0.00000000000E+00 0. -1.
</event>
<event>
 7    1  0.7357971E-011  0.4778727E+02  0.7816164E-02  0.1312668E+00
        -11   -1    0    0    0    0  0.00000000000E+00  0.00000000000E+00  0.45593999997E+02  0.45594000000E+02  0.51100000000E-03 0.  1.
         11   -1    0    0    0    0 -0.00000000000E+00 -0.00000000000E+00 -0.45593999997E+02  0.45594000000E+02  0.51100000000E-03 0. -1.
    9900012    2    1    2    0    0 -0.42399648520E+02 -0.26556817017E+01 -0.88792143164E+01  0.47787270896E+02  0.19999999323E+02 0.  0.
         12    1    1    2    0    0  0.42399648520E+02  0.26556817017E+01  0.88792143164E+01  0.43400729104E+02  0.00000000000E+00 0. -1.
         11    1    3    3    0    0 -0.30435173741E+01 -0.13902261087E+01 -0.59737464350E+01  0.68469973982E+01  0.51100000000E-03 0. -1.
        -11    1    3    3    0    0 -0.36634189345E+02 -0.21413452839E+01  0.22910312020E+00  0.36697434203E+02  0.51100000000E-03 0.  1.
        -12    1    3    3    0    0 -0.27219418009E+01  0.87588969087E+00 -0.31345710016E+01  0.42428392949E+01  0.00000000000E+00 0.  1.
</event>
<event>
 7    1  0.7357971E-011  0.4778727E+02  0.7816164E-02  0.1312668E+00
        -11   -1    0    0    0    0  0.00000000000E+00  0.00000000000E+00  0.45593999997E+02  0.45594000000E+02  0.51100000000E-03 0.  1.
         11   -1    0    0    0    0 -0.00000000000E+00 -0.00000000000E+00 -0.45593999997E+02  0.45594000000E+02  0.51100000000E-03 0. -1.
    9900012    2    1    2    0    0 -0.47066858201E+01  0.13636436167E+02  0.40933092984E+02  0.47787269776E+02  0.19999994218E+02 0.  0.
        -12    1    1    2    0    0  0.47066858201E+01 -0.13636436167E+02 -0.40933092984E+02  0.43400730224E+02  0.00000000000E+00 0.  1.
         11    1    3    3    0    0  0.23365125280E+01  0.30194496892E+01 -0.28705567662E+00  0.38286771138E+01  0.51100000000E-03 0. -1.
        -11    1    3    3    0    0  0.14296766924E+01  0.73242223975E+00  0.10069453169E+02  0.10196779156E+02  0.51100000000E-03 0.  1.
         12    1    3    3    0    0 -0.84728750405E+01  0.98845642377E+01  0.31150695492E+02  0.33761813506E+02  0.00000000000E+00 0. -1.
</event>
<event>
 7    1  0.7357971E-011  0.4778728E+02  0.7816164E-02  0.1312668E+00
        -11   -1    0    0    0    0  0.00000000000E+00  0.00000000000E+00  0.45593999997E+02  0.45594000000E+02  0.51100000000E-03 0.  1.
         11   -1    0    0    0    0 -0.00000000000E+00 -0.00000000000E+00 -0.45593999997E+02  0.45594000000E+02  0.51100000000E-03 0. -1.
    9900012    2    1    2    0    0 -0.20937933107E+02  0.31824576245E+02 -0.20794762025E+02  0.47787276232E+02  0.20000023650E+02 0.  0.
        -12    1    1    2    0    0  0.20937933107E+02 -0.31824576245E+02  0.20794762025E+02  0.43400723768E+02  0.00000000000E+00 0.  1.
         11    1    3    3    0    0 -0.44866847023E+01  0.67186588760E+01 -0.30918547069E+01  0.86504498438E+01  0.51100000000E-03 0. -1.
        -11    1    3    3    0    0 -0.16288543302E+02  0.20263889924E+02 -0.63056974797E+01  0.26752639098E+02  0.51100000000E-03 0.  1.
        -12    1    3    3    0    0 -0.16270510244E+00  0.48420274449E+01 -0.11397209838E+02  0.12384187289E+02  0.00000000000E+00 0.  1.
</event>
<event>
 7    1  0.7357971E-011  0.4778728E+02  0.7816164E-02  0.1312668E+00
        -11   -1    0    0    0    0  0.00000000000E+00  0.00000000000E+00  0.45593999997E+02  0.45594000000E+02  0.51100000000E-03 0.  1.
         11   -1    0    0    0    0 -0.00000000000E+00 -0.00000000000E+00 -0.45593999997E+02  0.45594000000E+02  0.51100000000E-03 0. -1.
    9900012    2    1    2    0    0  0.24816072203E+02  0.18473246486E+02 -0.30438863816E+02  0.47787277590E+02  0.20000029842E+02 0.  0.
         12    1    1    2    0    0 -0.24816072203E+02 -0.18473246486E+02  0.30438863816E+02  0.43400722410E+02  0.00000000000E+00 0. -1.
         11    1    3    3    0    0  0.56689490187E+00  0.15041442792E+01 -0.12792719281E+02  0.12893311704E+02  0.51100000000E-03 0. -1.
        -11    1    3    3    0    0  0.26899220470E+01  0.29274628895E+01 -0.57525709265E+00  0.40170437603E+01  0.51100000000E-03 0.  1.
         12    1    3    3    0    0  0.21559255254E+02  0.14041639318E+02 -0.17070887443E+02  0.30876922125E+02  0.00000000000E+00 0. -1.
</event>
<event>
 7    1  0.7357971E-011  0.4778727E+02  0.7816164E-02  0.1312668E+00
        -11   -1    0    0    0    0  0.00000000000E+00  0.00000000000E+00  0.45593999997E+02  0.45594000000E+02  0.51100000000E-03 0. -1.
         11   -1    0    0    0    0 -0.00000000000E+00 -0.00000000000E+00 -0.45593999997E+02  0.45594000000E+02  0.51100000000E-03 0.  1.
    9900012    2    1    2    0    0 -0.12473760062E+02  0.40010337722E+02 -0.11278367921E+02  0.47787269618E+02  0.19999993498E+02 0.  0.
         12    1    1    2    0    0  0.12473760062E+02 -0.40010337722E+02  0.11278367921E+02  0.43400730382E+02  0.00000000000E+00 0. -1.
         11    1    3    3    0    0 -0.46362077719E+01  0.76152186118E+01 -0.38221683013E+01  0.97002550376E+01  0.51100000000E-03 0.  1.
        -11    1    3    3    0    0 -0.13713134659E+01  0.15839213181E+02 -0.11789232971E+02  0.19792604405E+02  0.51100000000E-03 0. -1.
        -12    1    3    3    0    0 -0.64662388240E+01  0.16555905929E+02  0.43330333513E+01  0.18294410176E+02  0.00000000000E+00 0.  1.
</event>
<event>
 7    1  0.7357971E-011  0.4778733E+02  0.7816164E-02  0.1312668E+00
        -11   -1    0    0    0    0  0.00000000000E+00  0.00000000000E+00  0.45593999997E+02  0.45594000000E+02  0.51100000000E-03 0. -1.
         11   -1    0    0    0    0 -0.00000000000E+00 -0.00000000000E+00 -0.45593999997E+02  0.45594000000E+02  0.51100000000E-03 0.  1.
    9900012    2    1    2    0    0 -0.16626456936E+02  0.12097789467E+02 -0.38220712110E+02  0.47787327027E+02  0.20000255247E+02 0.  0.
         12    1    1    2    0    0  0.16626456936E+02 -0.12097789467E+02  0.38220712110E+02  0.43400672973E+02  0.00000000000E+00 0. -1.
         11    1    3    3    0    0 -0.23761825710E+01 -0.11409245121E+01 -0.42781397465E+01  0.50249808263E+01  0.51100000000E-03 0. -1.
        -11    1    3    3    0    0 -0.41960888455E+01  0.21301720022E+01  0.93942482224E+00  0.47986783198E+01  0.51100000000E-03 0.  1.
        -12    1    3    3    0    0 -0.10054185520E+02  0.11108541977E+02 -0.34881997186E+02  0.37963667881E+02  0.00000000000E+00 0.  1.
</event>
<event>
 7    1  0.7357971E-011  0.4778727E+02  0.7816164E-02  0.1312668E+00
        -11   -1    0    0    0    0  0.00000000000E+00  0.00000000000E+00  0.45593999997E+02  0.45594000000E+02  0.51100000000E-03 0. -1.
         11   -1    0    0    0    0 -0.00000000000E+00 -0.00000000000E+00 -0.45593999997E+02  0.45594000000E+02  0.51100000000E-03 0.  1.
    9900012    2    1    2    0    0  0.27304660873E+02 -0.32099030225E+02  0.10379354514E+02  0.47787271355E+02  0.20000001417E+02 0.  0.
        -12    1    1    2    0    0 -0.27304660873E+02  0.32099030225E+02 -0.10379354514E+02  0.43400728645E+02  0.00000000000E+00 0.  1.
         11    1    3    3    0    0  0.97240573689E+00 -0.58124215545E+01  0.64327780424E+01  0.87241303778E+01  0.51100000000E-03 0. -1.
        -11    1    3    3    0    0  0.15818357325E+02 -0.78965001525E+01  0.17704408462E+01  0.17768218936E+02  0.51100000000E-03 0.  1.
        -12    1    3    3    0    0  0.10513897811E+02 -0.18390108518E+02  0.21761356251E+01  0.21294922042E+02  0.00000000000E+00 0.  1.
</event>
<event>
 7    1  0.7357971E-011  0.4778727E+02  0.7816164E-02  0.1312668E+00
        -11   -1    0    0    0    0  0.00000000000E+00  0.00000000000E+00  0.45593999997E+02  0.45594000000E+02  0.51100000000E-03 0. -1.
         11   -1    0    0    0    0 -0.00000000000E+00 -0.00000000000E+00 -0.45593999997E+02  0.45594000000E+02  0.51100000000E-03 0.  1.
    9900012    2    1    2    0    0  0.66512104385E+00 -0.16168085963E+02 -0.40271259053E+02  0.47787266188E+02  0.19999977858E+02 0.  0.
         12    1    1    2    0    0 -0.66512104385E+00  0.16168085963E+02  0.40271259053E+02  0.43400733812E+02  0.00000000000E+00 0. -1.
         11    1    3    3    0    0  0.62596475437E+01 -0.97990030689E+00 -0.29996949312E+01  0.70101042734E+01  0.51100000000E-03 0. -1.
        -11    1    3    3    0    0 -0.37727333024E+01 -0.96752971176E+01 -0.19675393700E+02  0.22247831544E+02  0.51100000000E-03 0.  1.
         12    1    3    3    0    0 -0.18217931974E+01 -0.55128885388E+01 -0.17596170422E+02  0.18529330371E+02  0.00000000000E+00 0. -1.
</event>
<event>
 7    1  0.7357971E-011  0.4778727E+02  0.7816164E-02  0.1312668E+00
        -11   -1    0    0    0    0  0.00000000000E+00  0.00000000000E+00  0.45593999997E+02  0.45594000000E+02  0.51100000000E-03 0. -1.
         11   -1    0    0    0    0 -0.00000000000E+00 -0.00000000000E+00 -0.45593999997E+02  0.45594000000E+02  0.51100000000E-03 0.  1.
    9900012    2    1    2    0    0 -0.29292150905E+01  0.26529901855E+02  0.34222908217E+02  0.47787269127E+02  0.19999991257E+02 0.  0.
        -12    1    1    2    0    0  0.29292150905E+01 -0.26529901855E+02 -0.34222908217E+02  0.43400730873E+02  0.00000000000E+00 0.  1.
         11    1    3    3    0    0 -0.66198786550E+01  0.24820239288E+02  0.30474130124E+02  0.39856488541E+02  0.51100000000E-03 0. -1.
        -11    1    3    3    0    0  0.46048756562E+01  0.56191922057E+00  0.89888432428E+00  0.47253175882E+01  0.51100000000E-03 0.  1.
        -12    1    3    3    0    0 -0.91421209178E+00  0.11477433463E+01  0.28498937687E+01  0.32054629978E+01  0.00000000000E+00 0.  1.
</event>
<event>
 7    1  0.7357971E-011  0.4778727E+02  0.7816164E-02  0.1312668E+00
        -11   -1    0    0    0    0  0.00000000000E+00  0.00000000000E+00  0.45593999997E+02  0.45594000000E+02  0.51100000000E-03 0.  1.
         11   -1    0    0    0    0 -0.00000000000E+00 -0.00000000000E+00 -0.45593999997E+02  0.45594000000E+02  0.51100000000E-03 0. -1.
    9900012    2    1    2    0    0 -0.43205035418E+02  0.21003215190E+01  0.35407396513E+01  0.47787271052E+02  0.20000000035E+02 0.  0.
         12    1    1    2    0    0  0.43205035418E+02 -0.21003215190E+01 -0.35407396513E+01  0.43400728948E+02  0.00000000000E+00 0. -1.
         11    1    3    3    0    0 -0.25103248783E+02  0.91003563108E+01  0.18411194201E+01  0.26765263037E+02  0.51100000000E-03 0. -1.
        -11    1    3    3    0    0 -0.15509184736E+02 -0.66838463109E+01  0.42040053030E+01  0.17403513253E+02  0.51100000000E-03 0.  1.
         12    1    3    3    0    0 -0.25926018985E+01 -0.31618848091E+00 -0.25043850718E+01  0.36184947626E+01  0.00000000000E+00 0. -1.
</event>
<event>
 7    1  0.7357971E-011  0.4778728E+02  0.7816164E-02  0.1312668E+00
        -11   -1    0    0    0    0  0.00000000000E+00  0.00000000000E+00  0.45593999997E+02  0.45594000000E+02  0.51100000000E-03 0. -1.
         11   -1    0    0    0    0 -0.00000000000E+00 -0.00000000000E+00 -0.45593999997E+02  0.45594000000E+02  0.51100000000E-03 0.  1.
    9900012    2    1    2    0    0 -0.20360283712E+02  0.20500444624E+02 -0.32385387440E+02  0.47787277630E+02  0.20000030024E+02 0.  0.
         12    1    1    2    0    0  0.20360283712E+02 -0.20500444624E+02  0.32385387440E+02  0.43400722370E+02  0.00000000000E+00 0. -1.
         11    1    3    3    0    0  0.96013382789E+00 -0.20571479235E+01 -0.83978524301E+00  0.24205276413E+01  0.51100000000E-03 0. -1.
        -11    1    3    3    0    0 -0.14323180628E+02  0.17978617916E+02 -0.17004515670E+02  0.28592617210E+02  0.51100000000E-03 0.  1.
        -12    1    3    3    0    0 -0.69972369127E+01  0.45789746312E+01 -0.14541086527E+02  0.16774132778E+02  0.00000000000E+00 0.  1.
</event>
<event>
 7    1  0.7357971E-011  0.4778728E+02  0.7816164E-02  0.1312668E+00
        -11   -1    0    0    0    0  0.00000000000E+00  0.00000000000E+00  0.45593999997E+02  0.45594000000E+02  0.51100000000E-03 0. -1.
         11   -1    0    0    0    0 -0.00000000000E+00 -0.00000000000E+00 -0.45593999997E+02  0.45594000000E+02  0.51100000000E-03 0.  1.
    9900012    2    1    2    0    0  0.92493404024E+01 -0.62119551619E-01 -0.42403635539E+02  0.47787280379E+02  0.20000042561E+02 0.  0.
         12    1    1    2    0    0 -0.92493404024E+01  0.62119551619E-01  0.42403635539E+02  0.43400719621E+02  0.00000000000E+00 0. -1.
         11    1    3    3    0    0 -0.26624778152E+01 -0.45388567361E+01 -0.39800091917E+01  0.65977634100E+01  0.51100000000E-03 0. -1.
        -11    1    3    3    0    0  0.61867941938E+01  0.50934860774E+01 -0.29502194953E+02  0.30571220618E+02  0.51100000000E-03 0.  1.
        -12    1    3    3    0    0  0.57250240239E+01 -0.61674889293E+00 -0.89214313942E+01  0.10618296351E+02  0.00000000000E+00 0.  1.
</event>
<event>
 7    1  0.7357971E-011  0.4778732E+02  0.7816164E-02  0.1312668E+00
        -11   -1    0    0    0    0  0.00000000000E+00  0.00000000000E+00  0.45593999997E+02  0.45594000000E+02  0.51100000000E-03 0.  1.
         11   -1    0    0    0    0 -0.00000000000E+00 -0.00000000000E+00 -0.45593999997E+02  0.45594000000E+02  0.51100000000E-03 0. -1.
    9900012    2    1    2    0    0 -0.19405017691E+02 -0.37695726180E+02 -0.92788388785E+01  0.47787316425E+02  0.20000206906E+02 0.  0.
         12    1    1    2    0    0  0.19405017691E+02  0.37695726180E+02  0.92788388785E+01  0.43400683575E+02  0.00000000000E+00 0. -1.
         11    1    3    3    0    0  0.63031578690E+00 -0.27856351072E+01 -0.50794817327E+00  0.29008744457E+01  0.51100000000E-03 0. -1.
        -11    1    3    3    0    0 -0.97629866384E+01 -0.27941749199E+02 -0.12191695119E+02  0.32010852636E+02  0.51100000000E-03 0.  1.
        -12    1    3    3    0    0 -0.10272346840E+02 -0.69683418746E+01  0.34208044139E+01  0.12875589343E+02  0.00000000000E+00 0.  1.
</event>
<event>
 7    1  0.7357971E-011  0.4778728E+02  0.7816164E-02  0.1312668E+00
        -11   -1    0    0    0    0  0.00000000000E+00  0.00000000000E+00  0.45593999997E+02  0.45594000000E+02  0.51100000000E-03 0. -1.
         11   -1    0    0    0    0 -0.00000000000E+00 -0.00000000000E+00 -0.45593999997E+02  0.45594000000E+02  0.51100000000E-03 0.  1.
    9900012    2    1    2    0    0  0.32802513929E+02 -0.24565096031E+02 -0.14288940076E+02  0.47787277983E+02  0.20000031634E+02 0.  0.
         12    1    1    2    0    0 -0.32802513929E+02  0.24565096031E+02  0.14288940076E+02  0.43400722017E+02  0.00000000000E+00 0. -1.
         11    1    3    3    0    0  0.10083517709E+02 -0.37382318887E+01  0.13780673866E+01  0.10842083611E+02  0.51100000000E-03 0. -1.
        -11    1    3    3    0    0  0.24211965346E+02 -0.20759601419E+02 -0.15438209597E+02  0.35433298362E+02  0.51100000000E-03 0.  1.
        -12    1    3    3    0    0 -0.14929691250E+01 -0.67262723474E-01 -0.22879786561E+00  0.15118960101E+01  0.00000000000E+00 0.  1.
</event>
<event>
 7    1  0.7357971E-011  0.4778727E+02  0.7816164E-02  0.1312668E+00
        -11   -1    0    0    0    0  0.00000000000E+00  0.00000000000E+00  0.45593999997E+02  0.45594000000E+02  0.51100000000E-03 0. -1.
         11   -1    0    0    0    0 -0.00000000000E+00 -0.00000000000E+00 -0.45593999997E+02  0.45594000000E+02  0.51100000000E-03 0.  1.
    9900012    2    1    2    0    0 -0.12274113967E+02 -0.33260450718E+02  0.25034217920E+02  0.47787268180E+02  0.19999986940E+02 0.  0.
        -12    1    1    2    0    0  0.12274113967E+02  0.33260450718E+02 -0.25034217920E+02  0.43400731820E+02  0.00000000000E+00 0.  1.
         11    1    3    3    0    0 -0.14409421883E+02 -0.23505617376E+02  0.14660136810E+02  0.31226032389E+02  0.51100000000E-03 0. -1.
        -11    1    3    3    0    0 -0.37586912668E+00  0.13714677658E+01  0.61276478200E+00  0.15484451467E+01  0.51100000000E-03 0.  1.
         12    1    3    3    0    0  0.25111770421E+01 -0.11126301108E+02  0.97613163276E+01  0.15012790644E+02  0.00000000000E+00 0. -1.
</event>
<event>
 7    1  0.7357971E-011  0.4778727E+02  0.7816164E-02  0.1312668E+00
        -11   -1    0    0    0    0  0.00000000000E+00  0.00000000000E+00  0.45593999997E+02  0.45594000000E+02  0.51100000000E-03 0. -1.
         11   -1    0    0    0    0 -0.00000000000E+00 -0.00000000000E+00 -0.45593999997E+02  0.45594000000E+02  0.51100000000E-03 0.  1.
    9900012    2    1    2    0    0  0.13286641328E+02 -0.58104649278E+01 -0.40906318185E+02  0.47787271805E+02  0.20000003466E+02 0.  0.
         12    1    1    2    0    0 -0.13286641328E+02  0.58104649278E+01  0.40906318185E+02  0.43400728195E+02  0.00000000000E+00 0. -1.
         11    1    3    3    0    0  0.53291442159E+01  0.50064306127E+01 -0.13094790988E+02  0.14997922417E+02  0.51100000000E-03 0.  1.
        -11    1    3    3    0    0  0.45762518573E+01 -0.12107838387E+02 -0.16862334391E+02  0.21257472870E+02  0.51100000000E-03 0. -1.
         12    1    3    3    0    0  0.33812452553E+01  0.12909428461E+01 -0.10949192806E+02  0.11531876517E+02  0.00000000000E+00 0. -1.
</event>
<event>
 7    1  0.7357971E-011  0.4778727E+02  0.7816164E-02  0.1312668E+00
        -11   -1    0    0    0    0  0.00000000000E+00  0.00000000000E+00  0.45593999997E+02  0.45594000000E+02  0.51100000000E-03 0. -1.
         11   -1    0    0    0    0 -0.00000000000E+00 -0.00000000000E+00 -0.45593999997E+02  0.45594000000E+02  0.51100000000E-03 0.  1.
    9900012    2    1    2    0    0  0.94503315328E+01  0.36692070046E+02  0.21166167096E+02  0.47787269593E+02  0.19999993383E+02 0.  0.
        -12    1    1    2    0    0 -0.94503315328E+01 -0.36692070046E+02 -0.21166167096E+02  0.43400730407E+02  0.00000000000E+00 0.  1.
         11    1    3    3    0    0 -0.26398562045E+01 -0.30536283256E+00  0.28077633125E+01  0.38659568441E+01  0.51100000000E-03 0. -1.
        -11    1    3    3    0    0 -0.70073851887E+00  0.85070232558E+01  0.24930414165E+01  0.88924538184E+01  0.51100000000E-03 0.  1.
         12    1    3    3    0    0  0.12790926256E+02  0.28490409622E+02  0.15865362367E+02  0.35028858931E+02  0.00000000000E+00 0. -1.
</event>
<event>
 7    1  0.7357971E-011  0.4778727E+02  0.7816164E-02  0.1312668E+00
        -11   -1    0    0    0    0  0.00000000000E+00  0.00000000000E+00  0.45593999997E+02  0.45594000000E+02  0.51100000000E-03 0. -1.
         11   -1    0    0    0    0 -0.00000000000E+00 -0.00000000000E+00 -0.45593999997E+02  0.45594000000E+02  0.51100000000E-03 0.  1.
    9900012    2    1    2    0    0 -0.38131301981E+01 -0.25432437722E+02  0.34961038065E+02  0.47787273820E+02  0.20000012654E+02 0.  0.
        -12    1    1    2    0    0  0.38131301981E+01  0.25432437722E+02 -0.34961038065E+02  0.43400726180E+02  0.00000000000E+00 0.  1.
         11    1    3    3    0    0  0.68295456417E+00 -0.12862908448E+02  0.20015709528E+02  0.23802299655E+02  0.51100000000E-03 0. -1.
        -11    1    3    3    0    0 -0.90737806016E+01 -0.68603898927E+01  0.80995362035E+01  0.13964273374E+02  0.51100000000E-03 0.  1.
        -12    1    3    3    0    0  0.45776958394E+01 -0.57091393804E+01  0.68457923334E+01  0.10020700791E+02  0.00000000000E+00 0.  1.
</event>
<event>
 7    1  0.7357971E-011  0.4778725E+02  0.7816164E-02  0.1312668E+00
        -11   -1    0    0    0    0  0.00000000000E+00  0.00000000000E+00  0.45593999997E+02  0.45594000000E+02  0.51100000000E-03 0. -1.
         11   -1    0    0    0    0 -0.00000000000E+00 -0.00000000000E+00 -0.45593999997E+02  0.45594000000E+02  0.51100000000E-03 0.  1.
    9900012    2    1    2    0    0  0.21953320998E+02 -0.37426641606E+02  0.96080388988E+00  0.47787251748E+02  0.19999912019E+02 0.  0.
        -12    1    1    2    0    0 -0.21953320998E+02  0.37426641606E+02 -0.96080388988E+00  0.43400748252E+02  0.00000000000E+00 0.  1.
         11    1    3    3    0    0 -0.10703515206E+01 -0.10159576222E+01 -0.30150702199E+01  0.33568543251E+01  0.51100000000E-03 0. -1.
        -11    1    3    3    0    0 -0.28016918006E+00 -0.54084911983E+00 -0.11975227096E+01  0.13435302159E+01  0.51100000000E-03 0.  1.
         12    1    3    3    0    0  0.23303841699E+02 -0.35869834864E+02  0.51733968194E+01  0.43086867207E+02  0.00000000000E+00 0. -1.
</event>
<event>
 7    1  0.7357971E-011  0.4778727E+02  0.7816164E-02  0.1312668E+00
        -11   -1    0    0    0    0  0.00000000000E+00  0.00000000000E+00  0.45593999997E+02  0.45594000000E+02  0.51100000000E-03 0. -1.
         11   -1    0    0    0    0 -0.00000000000E+00 -0.00000000000E+00 -0.45593999997E+02  0.45594000000E+02  0.51100000000E-03 0.  1.
    9900012    2    1    2    0    0  0.34392928316E+02  0.59072748205E+01  0.25804144488E+02  0.47787270897E+02  0.19999999326E+02 0.  0.
        -12    1    1    2    0    0 -0.34392928316E+02 -0.59072748205E+01 -0.25804144488E+02  0.43400729103E+02  0.00000000000E+00 0.  1.
         11    1    3    3    0    0  0.10241282666E+02  0.79893159766E+01  0.15089838933E+02  0.19910205416E+02  0.51100000000E-03 0. -1.
        -11    1    3    3    0    0  0.12459152067E+01 -0.18195502603E+01 -0.65929725758E+00  0.23016822080E+01  0.51100000000E-03 0.  1.
         12    1    3    3    0    0  0.22905730443E+02 -0.26249089575E+00  0.11373602813E+02  0.25575383273E+02  0.00000000000E+00 0. -1.
</event>
<event>
 7    1  0.7357971E-011  0.4778727E+02  0.7816164E-02  0.1312668E+00
        -11   -1    0    0    0    0  0.00000000000E+00  0.00000000000E+00  0.45593999997E+02  0.45594000000E+02  0.51100000000E-03 0. -1.
         11   -1    0    0    0    0 -0.00000000000E+00 -0.00000000000E+00 -0.45593999997E+02  0.45594000000E+02  0.51100000000E-03 0.  1.
    9900012    2    1    2    0    0 -0.66637579688E+01  0.33649339716E+02  0.26588340712E+02  0.47787267340E+02  0.19999983112E+02 0.  0.
        -12    1    1    2    0    0  0.66637579688E+01 -0.33649339716E+02 -0.26588340712E+02  0.43400732660E+02  0.00000000000E+00 0.  1.
         11    1    3    3    0    0 -0.12188440741E+02  0.18024561846E+02  0.14315855736E+02  0.26045856544E+02  0.51100000000E-03 0. -1.
        -11    1    3    3    0    0  0.41379320172E+01  0.14106705004E+02  0.74119211224E+01  0.16463844704E+02  0.51100000000E-03 0.  1.
         12    1    3    3    0    0  0.13867507545E+01  0.15180728658E+01  0.48605638534E+01  0.52775660919E+01  0.00000000000E+00 0. -1.
</event>
<event>
 7    1  0.7357971E-011  0.4778724E+02  0.7816164E-02  0.1312668E+00
        -11   -1    0    0    0    0  0.00000000000E+00  0.00000000000E+00  0.45593999997E+02  0.45594000000E+02  0.51100000000E-03 0.  1.
         11   -1    0    0    0    0 -0.00000000000E+00 -0.00000000000E+00 -0.45593999997E+02  0.45594000000E+02  0.51100000000E-03 0. -1.
    9900012    2    1    2    0    0 -0.22375226118E+02 -0.34701182641E+02 -0.13371733578E+02  0.47787238723E+02  0.19999852634E+02 0.  0.
         12    1    1    2    0    0  0.22375226118E+02  0.34701182641E+02  0.13371733578E+02  0.43400761277E+02  0.00000000000E+00 0. -1.
         11    1    3    3    0    0 -0.17637816265E+02 -0.14711945409E+02 -0.15160239940E+01  0.23018084832E+02  0.51100000000E-03 0. -1.
        -11    1    3    3    0    0 -0.42895354658E+01 -0.19628505964E+02 -0.12684205870E+02  0.23760627932E+02  0.51100000000E-03 0.  1.
         12    1    3    3    0    0 -0.44787438745E+00 -0.36073126800E+00  0.82849628648E+00  0.10085259597E+01  0.00000000000E+00 0. -1.
</event>
<event>
 7    1  0.7357971E-011  0.4778727E+02  0.7816164E-02  0.1312668E+00
        -11   -1    0    0    0    0  0.00000000000E+00  0.00000000000E+00  0.45593999997E+02  0.45594000000E+02  0.51100000000E-03 0. -1.
         11   -1    0    0    0    0 -0.00000000000E+00 -0.00000000000E+00 -0.45593999997E+02  0.45594000000E+02  0.51100000000E-03 0.  1.
    9900012    2    1    2    0    0  0.36580563311E+01 -0.25125944119E+02  0.35198421308E+02  0.47787270668E+02  0.19999998285E+02 0.  0.
        -12    1    1    2    0    0 -0.36580563311E+01  0.25125944119E+02 -0.35198421308E+02  0.43400729332E+02  0.00000000000E+00 0.  1.
         11    1    3    3    0    0 -0.52996968918E+01 -0.12285046183E+02  0.22188252146E+02  0.25909991903E+02  0.51100000000E-03 0. -1.
        -11    1    3    3    0    0  0.85151426596E+01 -0.65227819112E+01  0.10657775818E+02  0.15120929999E+02  0.51100000000E-03 0.  1.
         12    1    3    3    0    0  0.44261056327E+00 -0.63181160246E+01  0.23523933435E+01  0.67563487664E+01  0.00000000000E+00 0. -1.
</event>
<event>
 7    1  0.7357971E-011  0.4778726E+02  0.7816164E-02  0.1312668E+00
        -11   -1    0    0    0    0  0.00000000000E+00  0.00000000000E+00  0.45593999997E+02  0.45594000000E+02  0.51100000000E-03 0. -1.
         11   -1    0    0    0    0 -0.00000000000E+00 -0.00000000000E+00 -0.45593999997E+02  0.45594000000E+02  0.51100000000E-03 0.  1.
    9900012    2    1    2    0    0  0.11560533109E+02 -0.34378030746E+01 -0.41691239703E+02  0.47787264019E+02  0.19999967967E+02 0.  0.
         12    1    1    2    0    0 -0.11560533109E+02  0.34378030746E+01  0.41691239703E+02  0.43400735981E+02  0.00000000000E+00 0. -1.
         11    1    3    3    0    0  0.60782501422E+01 -0.47439830611E+01 -0.41827929259E+01  0.87719015611E+01  0.51100000000E-03 0. -1.
        -11    1    3    3    0    0  0.31225904463E+01  0.16350282821E+01 -0.36532175457E+01  0.50764049558E+01  0.51100000000E-03 0.  1.
         12    1    3    3    0    0  0.23596925208E+01 -0.32884829556E+00 -0.33855229231E+02  0.33938957502E+02  0.00000000000E+00 0. -1.
</event>
<event>
 7    1  0.7357971E-011  0.4778728E+02  0.7816164E-02  0.1312668E+00
        -11   -1    0    0    0    0  0.00000000000E+00  0.00000000000E+00  0.45593999997E+02  0.45594000000E+02  0.51100000000E-03 0. -1.
         11   -1    0    0    0    0 -0.00000000000E+00 -0.00000000000E+00 -0.45593999997E+02  0.45594000000E+02  0.51100000000E-03 0.  1.
    9900012    2    1    2    0    0 -0.25394935283E+02 -0.10462738756E+02  0.33604330122E+02  0.47787278310E+02  0.20000033125E+02 0.  0.
        -12    1    1    2    0    0  0.25394935283E+02  0.10462738756E+02 -0.33604330122E+02  0.43400721690E+02  0.00000000000E+00 0.  1.
         11    1    3    3    0    0  0.13491982047E+01  0.19591146349E+01  0.24853070013E+01  0.34402350355E+01  0.51100000000E-03 0.  1.
        -11    1    3    3    0    0 -0.23943448704E+02 -0.70498574365E+01  0.21316429294E+02  0.32823457829E+02  0.51100000000E-03 0. -1.
        -12    1    3    3    0    0 -0.28006847830E+01 -0.53719959540E+01  0.98025938270E+01  0.11523585446E+02  0.00000000000E+00 0.  1.
</event>
<event>
 7    1  0.7357971E-011  0.4778727E+02  0.7816164E-02  0.1312668E+00
        -11   -1    0    0    0    0  0.00000000000E+00  0.00000000000E+00  0.45593999997E+02  0.45594000000E+02  0.51100000000E-03 0. -1.
         11   -1    0    0    0    0 -0.00000000000E+00 -0.00000000000E+00 -0.45593999997E+02  0.45594000000E+02  0.51100000000E-03 0.  1.
    9900012    2    1    2    0    0 -0.37393711602E+02  0.31996378373E+01 -0.21796694549E+02  0.47787271401E+02  0.20000001625E+02 0.  0.
         12    1    1    2    0    0  0.37393711602E+02 -0.31996378373E+01  0.21796694549E+02  0.43400728599E+02  0.00000000000E+00 0. -1.
         11    1    3    3    0    0 -0.71213934472E+01  0.47309172774E+01 -0.35810205372E+01  0.92692788967E+01  0.51100000000E-03 0. -1.
        -11    1    3    3    0    0 -0.16525050448E+02  0.66736759093E+01 -0.80656852451E+01  0.19561966189E+02  0.51100000000E-03 0.  1.
         12    1    3    3    0    0 -0.13747267707E+02 -0.82049553495E+01 -0.10149988767E+02  0.18956026315E+02  0.00000000000E+00 0. -1.
</event>
<event>
 7    1  0.7357971E-011  0.4778727E+02  0.7816164E-02  0.1312668E+00
        -11   -1    0    0    0    0  0.00000000000E+00  0.00000000000E+00  0.45593999997E+02  0.45594000000E+02  0.51100000000E-03 0. -1.
         11   -1    0    0    0    0 -0.00000000000E+00 -0.00000000000E+00 -0.45593999997E+02  0.45594000000E+02  0.51100000000E-03 0.  1.
    9900012    2    1    2    0    0 -0.22237457251E+02 -0.31773162447E+00  0.37269527838E+02  0.47787272315E+02  0.20000005792E+02 0.  0.
        -12    1    1    2    0    0  0.22237457251E+02  0.31773162447E+00 -0.37269527838E+02  0.43400727685E+02  0.00000000000E+00 0.  1.
         11    1    3    3    0    0 -0.22538077137E+01 -0.56610307893E+00  0.85451447238E+01  0.88554853349E+01  0.51100000000E-03 0. -1.
        -11    1    3    3    0    0 -0.45583525337E+00  0.55384722750E+01  0.95965699832E+01  0.11089482252E+02  0.51100000000E-03 0.  1.
        -12    1    3    3    0    0 -0.19527814284E+02 -0.52901008205E+01  0.19127813131E+02  0.27842304728E+02  0.00000000000E+00 0.  1.
</event>
<event>
 7    1  0.7357971E-011  0.4778726E+02  0.7816164E-02  0.1312668E+00
        -11   -1    0    0    0    0  0.00000000000E+00  0.00000000000E+00  0.45593999997E+02  0.45594000000E+02  0.51100000000E-03 0. -1.
         11   -1    0    0    0    0 -0.00000000000E+00 -0.00000000000E+00 -0.45593999997E+02  0.45594000000E+02  0.51100000000E-03 0.  1.
    9900012    2    1    2    0    0  0.35251956376E+02 -0.18163761230E+02  0.17635232359E+02  0.47787261864E+02  0.19999958145E+02 0.  0.
        -12    1    1    2    0    0 -0.35251956376E+02  0.18163761230E+02 -0.17635232359E+02  0.43400738136E+02  0.00000000000E+00 0.  1.
         11    1    3    3    0    0  0.23038981193E+02 -0.39277447058E+01  0.16532550933E+02  0.28627732594E+02  0.51100000000E-03 0. -1.
        -11    1    3    3    0    0  0.12143657552E+02 -0.13226150825E+02  0.46172286630E+00  0.17961421788E+02  0.51100000000E-03 0.  1.
        -12    1    3    3    0    0  0.69317631669E-01 -0.10098656990E+01  0.64095855979E+00  0.11981074824E+01  0.00000000000E+00 0.  1.
</event>
<event>
 7    1  0.7357971E-011  0.4778727E+02  0.7816164E-02  0.1312668E+00
        -11   -1    0    0    0    0  0.00000000000E+00  0.00000000000E+00  0.45593999997E+02  0.45594000000E+02  0.51100000000E-03 0. -1.
         11   -1    0    0    0    0 -0.00000000000E+00 -0.00000000000E+00 -0.45593999997E+02  0.45594000000E+02  0.51100000000E-03 0.  1.
    9900012    2    1    2    0    0 -0.16806485247E+02 -0.15862079115E+02  0.36736356417E+02  0.47787269788E+02  0.19999994269E+02 0.  0.
        -12    1    1    2    0    0  0.16806485247E+02  0.15862079115E+02 -0.36736356417E+02  0.43400730212E+02  0.00000000000E+00 0.  1.
         11    1    3    3    0    0 -0.53255206066E+01 -0.12115263591E+02  0.17942177608E+02  0.22294898950E+02  0.51100000000E-03 0. -1.
        -11    1    3    3    0    0 -0.58801657007E+01  0.18376366131E+01  0.13041335951E+01  0.62971439308E+01  0.51100000000E-03 0.  1.
        -12    1    3    3    0    0 -0.56007989393E+01 -0.55844521371E+01  0.17490045214E+02  0.19195226907E+02  0.00000000000E+00 0.  1.
</event>
<event>
 7    1  0.7357971E-011  0.4778727E+02  0.7816164E-02  0.1312668E+00
        -11   -1    0    0    0    0  0.00000000000E+00  0.00000000000E+00  0.45593999997E+02  0.45594000000E+02  0.51100000000E-03 0. -1.
         11   -1    0    0    0    0 -0.00000000000E+00 -0.00000000000E+00 -0.45593999997E+02  0.45594000000E+02  0.51100000000E-03 0.  1.
    9900012    2    1    2    0    0 -0.17952457313E+02  0.16768222996E+02  0.35779309509E+02  0.47787274027E+02  0.20000013598E+02 0.  0.
        -12    1    1    2    0    0  0.17952457313E+02 -0.16768222996E+02 -0.35779309509E+02  0.43400725973E+02  0.00000000000E+00 0.  1.
         11    1    3    3    0    0 -0.14323775842E+02  0.12834242679E+00  0.17456558209E+02  0.22581373982E+02  0.51100000000E-03 0. -1.
        -11    1    3    3    0    0 -0.99974125189E+00  0.41722681821E+01  0.27993565934E+01  0.51228607196E+01  0.51100000000E-03 0.  1.
         12    1    3    3    0    0 -0.26289402196E+01  0.12467612387E+02  0.15523394707E+02  0.20083039325E+02  0.00000000000E+00 0. -1.
</event>
<event>
 7    1  0.7357971E-011  0.4778727E+02  0.7816164E-02  0.1312668E+00
        -11   -1    0    0    0    0  0.00000000000E+00  0.00000000000E+00  0.45593999997E+02  0.45594000000E+02  0.51100000000E-03 0. -1.
         11   -1    0    0    0    0 -0.00000000000E+00 -0.00000000000E+00 -0.45593999997E+02  0.45594000000E+02  0.51100000000E-03 0.  1.
    9900012    2    1    2    0    0  0.33867109299E+02 -0.21080485295E+02  0.17095472539E+02  0.47787272657E+02  0.20000007352E+02 0.  0.
        -12    1    1    2    0    0 -0.33867109299E+02  0.21080485295E+02 -0.17095472539E+02  0.43400727343E+02  0.00000000000E+00 0.  1.
         11    1    3    3    0    0  0.12031777604E+02 -0.85556101725E+01 -0.61499158312E-01  0.14763668926E+02  0.51100000000E-03 0. -1.
        -11    1    3    3    0    0  0.15357762028E+01 -0.30387425049E+01 -0.16376459688E+01  0.37781541970E+01  0.51100000000E-03 0.  1.
         12    1    3    3    0    0  0.20299555492E+02 -0.94861326179E+01  0.18794617666E+02  0.29245449534E+02  0.00000000000E+00 0. -1.
</event>
<event>
 7    1  0.7357971E-011  0.4778728E+02  0.7816164E-02  0.1312668E+00
        -11   -1    0    0    0    0  0.00000000000E+00  0.00000000000E+00  0.45593999997E+02  0.45594000000E+02  0.51100000000E-03 0. -1.
         11   -1    0    0    0    0 -0.00000000000E+00 -0.00000000000E+00 -0.45593999997E+02  0.45594000000E+02  0.51100000000E-03 0.  1.
    9900012    2    1    2    0    0 -0.88133847995E+01 -0.17204838163E+02  0.38857948809E+02  0.47787281187E+02  0.20000046245E+02 0.  0.
        -12    1    1    2    0    0  0.88133847995E+01  0.17204838163E+02 -0.38857948809E+02  0.43400718813E+02  0.00000000000E+00 0.  1.
         11    1    3    3    0    0  0.60583720899E+01 -0.54155135377E+01  0.12151079378E+02  0.14617810697E+02  0.51100000000E-03 0. -1.
        -11    1    3    3    0    0 -0.22929532719E+01 -0.38596570390E+01  0.39189029537E+01  0.59592271133E+01  0.51100000000E-03 0.  1.
         12    1    3    3    0    0 -0.12578803618E+02 -0.79296675867E+01  0.22787966477E+02  0.27210243377E+02  0.00000000000E+00 0. -1.
</event>
<event>
 7    1  0.7357971E-011  0.4778728E+02  0.7816164E-02  0.1312668E+00
        -11   -1    0    0    0    0  0.00000000000E+00  0.00000000000E+00  0.45593999997E+02  0.45594000000E+02  0.51100000000E-03 0. -1.
         11   -1    0    0    0    0 -0.00000000000E+00 -0.00000000000E+00 -0.45593999997E+02  0.45594000000E+02  0.51100000000E-03 0.  1.
    9900012    2    1    2    0    0  0.12085945245E+02  0.19957118117E+02  0.36595986518E+02  0.47787275752E+02  0.20000021464E+02 0.  0.
        -12    1    1    2    0    0 -0.12085945245E+02 -0.19957118117E+02 -0.36595986518E+02  0.43400724248E+02  0.00000000000E+00 0.  1.
         11    1    3    3    0    0  0.55625155696E+00  0.13088675682E+02  0.15015157959E+02  0.19926811479E+02  0.51100000000E-03 0. -1.
        -11    1    3    3    0    0  0.95652070823E+01 -0.82201647941E+00  0.10464585979E+02  0.14201283660E+02  0.51100000000E-03 0.  1.
        -12    1    3    3    0    0  0.19644866062E+01  0.76904589140E+01  0.11116242580E+02  0.13659180614E+02  0.00000000000E+00 0.  1.
</event>
<event>
 7    1  0.7357971E-011  0.4778726E+02  0.7816164E-02  0.1312668E+00
        -11   -1    0    0    0    0  0.00000000000E+00  0.00000000000E+00  0.45593999997E+02  0.45594000000E+02  0.51100000000E-03 0. -1.
         11   -1    0    0    0    0 -0.00000000000E+00 -0.00000000000E+00 -0.45593999997E+02  0.45594000000E+02  0.51100000000E-03 0.  1.
    9900012    2    1    2    0    0  0.31433829940E+02  0.16914807001E+02 -0.24686589174E+02  0.47787262153E+02  0.19999959462E+02 0.  0.
         12    1    1    2    0    0 -0.31433829940E+02 -0.16914807001E+02  0.24686589174E+02  0.43400737847E+02  0.00000000000E+00 0. -1.
         11    1    3    3    0    0  0.30750602512E+01  0.40200671216E+01 -0.23302317794E+01  0.55719759168E+01  0.51100000000E-03 0. -1.
        -11    1    3    3    0    0  0.19335867062E+02  0.75450399673E+01 -0.23853350751E+02  0.31619388442E+02  0.51100000000E-03 0.  1.
        -12    1    3    3    0    0  0.90229026266E+01  0.53496999124E+01  0.14969933561E+01  0.10595897794E+02  0.00000000000E+00 0.  1.
</event>
<event>
 7    1  0.7357971E-011  0.4778727E+02  0.7816164E-02  0.1312668E+00
        -11   -1    0    0    0    0  0.00000000000E+00  0.00000000000E+00  0.45593999997E+02  0.45594000000E+02  0.51100000000E-03 0. -1.
         11   -1    0    0    0    0 -0.00000000000E+00 -0.00000000000E+00 -0.45593999997E+02  0.45594000000E+02  0.51100000000E-03 0.  1.
    9900012    2    1    2    0    0  0.13318681513E+02 -0.10225251667E+02  0.40021000200E+02  0.47787268371E+02  0.19999987811E+02 0.  0.
        -12    1    1    2    0    0 -0.13318681513E+02  0.10225251667E+02 -0.40021000200E+02  0.43400731629E+02  0.00000000000E+00 0.  1.
         11    1    3    3    0    0  0.17888497444E+01 -0.46374312705E+01  0.12442398821E+02  0.13398471587E+02  0.51100000000E-03 0.  1.
        -11    1    3    3    0    0 -0.27814323060E+01 -0.67268310935E+00  0.13229027942E+02  0.13534993490E+02  0.51100000000E-03 0. -1.
        -12    1    3    3    0    0  0.14311264075E+02 -0.49151372869E+01  0.14349573438E+02  0.20853803293E+02  0.00000000000E+00 0.  1.
</event>
<event>
 7    1  0.7357971E-011  0.4778728E+02  0.7816164E-02  0.1312668E+00
        -11   -1    0    0    0    0  0.00000000000E+00  0.00000000000E+00  0.45593999997E+02  0.45594000000E+02  0.51100000000E-03 0. -1.
         11   -1    0    0    0    0 -0.00000000000E+00 -0.00000000000E+00 -0.45593999997E+02  0.45594000000E+02  0.51100000000E-03 0.  1.
    9900012    2    1    2    0    0  0.72080307102E+01  0.14645446555E+02  0.40214145485E+02  0.47787282165E+02  0.20000050701E+02 0.  0.
        -12    1    1    2    0    0 -0.72080307102E+01 -0.14645446555E+02 -0.40214145485E+02  0.43400717835E+02  0.00000000000E+00 0.  1.
         11    1    3    3    0    0  0.23282536381E+01 -0.23358359871E+01  0.60373722825E+00  0.33528187640E+01  0.51100000000E-03 0. -1.
        -11    1    3    3    0    0 -0.27584317725E-01 -0.69616277464E+00  0.68628434292E+01  0.68981174025E+01  0.51100000000E-03 0.  1.
         12    1    3    3    0    0  0.49073613898E+01  0.17677445317E+02  0.32747564828E+02  0.37536345998E+02  0.00000000000E+00 0. -1.
</event>
<event>
 7    1  0.7357971E-011  0.4778727E+02  0.7816164E-02  0.1312668E+00
        -11   -1    0    0    0    0  0.00000000000E+00  0.00000000000E+00  0.45593999997E+02  0.45594000000E+02  0.51100000000E-03 0. -1.
         11   -1    0    0    0    0 -0.00000000000E+00 -0.00000000000E+00 -0.45593999997E+02  0.45594000000E+02  0.51100000000E-03 0.  1.
    9900012    2    1    2    0    0 -0.12463808675E+01  0.10330730677E+02 -0.42134852764E+02  0.47787270985E+02  0.19999999727E+02 0.  0.
         12    1    1    2    0    0  0.12463808675E+01 -0.10330730677E+02  0.42134852764E+02  0.43400729015E+02  0.00000000000E+00 0. -1.
         11    1    3    3    0    0 -0.21322592649E+00  0.83433043874E+01 -0.43203587668E+01  0.93979622010E+01  0.51100000000E-03 0. -1.
        -11    1    3    3    0    0 -0.36269960404E+01  0.77911594922E+00 -0.23582287332E+02  0.23872293522E+02  0.51100000000E-03 0.  1.
        -12    1    3    3    0    0  0.25938410994E+01  0.12083103403E+01 -0.14232206666E+02  0.14517015261E+02  0.00000000000E+00 0.  1.
</event>
<event>
 7    1  0.7357971E-011  0.4778727E+02  0.7816164E-02  0.1312668E+00
        -11   -1    0    0    0    0  0.00000000000E+00  0.00000000000E+00  0.45593999997E+02  0.45594000000E+02  0.51100000000E-03 0. -1.
         11   -1    0    0    0    0 -0.00000000000E+00 -0.00000000000E+00 -0.45593999997E+02  0.45594000000E+02  0.51100000000E-03 0.  1.
    9900012    2    1    2    0    0  0.30874174430E+02 -0.15441165303E+02  0.26305497986E+02  0.47787268936E+02  0.19999990385E+02 0.  0.
        -12    1    1    2    0    0 -0.30874174430E+02  0.15441165303E+02 -0.26305497986E+02  0.43400731064E+02  0.00000000000E+00 0.  1.
         11    1    3    3    0    0  0.34247831056E+01 -0.10213179019E+02  0.11811969274E+02  0.15986268588E+02  0.51100000000E-03 0. -1.
        -11    1    3    3    0    0  0.24015543006E+02 -0.59552910056E+01  0.12027668736E+02  0.27511390592E+02  0.51100000000E-03 0.  1.
         12    1    3    3    0    0  0.34338483181E+01  0.72730472097E+00  0.24658599757E+01  0.42896097548E+01  0.00000000000E+00 0. -1.
</event>
<event>
 7    1  0.7357971E-011  0.4778727E+02  0.7816164E-02  0.1312668E+00
        -11   -1    0    0    0    0  0.00000000000E+00  0.00000000000E+00  0.45593999997E+02  0.45594000000E+02  0.51100000000E-03 0. -1.
         11   -1    0    0    0    0 -0.00000000000E+00 -0.00000000000E+00 -0.45593999997E+02  0.45594000000E+02  0.51100000000E-03 0.  1.
    9900012    2    1    2    0    0 -0.81059586609E+01  0.71137534803E+01 -0.42039403296E+02  0.47787268626E+02  0.19999988971E+02 0.  0.
         12    1    1    2    0    0  0.81059586609E+01 -0.71137534803E+01  0.42039403296E+02  0.43400731374E+02  0.00000000000E+00 0. -1.
         11    1    3    3    0    0  0.24839407683E+01 -0.70012315542E+00 -0.61984669415E+01  0.67142480487E+01  0.51100000000E-03 0. -1.
        -11    1    3    3    0    0 -0.14435320192E+02  0.52148260353E+01 -0.28907985199E+02  0.32729871496E+02  0.51100000000E-03 0.  1.
        -12    1    3    3    0    0  0.38454207628E+01  0.25990506004E+01 -0.69329511552E+01  0.83431490810E+01  0.00000000000E+00 0.  1.
</event>
<event>
 7    1  0.7357971E-011  0.4778725E+02  0.7816164E-02  0.1312668E+00
        -11   -1    0    0    0    0  0.00000000000E+00  0.00000000000E+00  0.45593999997E+02  0.45594000000E+02  0.51100000000E-03 0. -1.
         11   -1    0    0    0    0 -0.00000000000E+00 -0.00000000000E+00 -0.45593999997E+02  0.45594000000E+02  0.51100000000E-03 0.  1.
    9900012    2    1    2    0    0 -0.10939588201E+02  0.17578916254E+02  0.38143575799E+02  0.47787248147E+02  0.19999895601E+02 0.  0.
        -12    1    1    2    0    0  0.10939588201E+02 -0.17578916254E+02 -0.38143575799E+02  0.43400751853E+02  0.00000000000E+00 0.  1.
         11    1    3    3    0    0 -0.57305774294E+00  0.13880464527E+02  0.14171765387E+02  0.19845267070E+02  0.51100000000E-03 0. -1.
        -11    1    3    3    0    0 -0.10783903170E+02  0.21516016336E+01  0.13803340210E+02  0.17648063870E+02  0.51100000000E-03 0.  1.
         12    1    3    3    0    0  0.41737271122E+00  0.15468500934E+01  0.10168470203E+02  0.10293917206E+02  0.00000000000E+00 0. -1.
</event>
<event>
 7    1  0.7357971E-011  0.4778729E+02  0.7816164E-02  0.1312668E+00
        -11   -1    0    0    0    0  0.00000000000E+00  0.00000000000E+00  0.45593999997E+02  0.45594000000E+02  0.51100000000E-03 0. -1.
         11   -1    0    0    0    0 -0.00000000000E+00 -0.00000000000E+00 -0.45593999997E+02  0.45594000000E+02  0.51100000000E-03 0.  1.
    9900012    2    1    2    0    0 -0.19246326964E+02 -0.31740778019E+02 -0.22488300461E+02  0.47787288618E+02  0.20000080127E+02 0.  0.
         12    1    1    2    0    0  0.19246326964E+02  0.31740778019E+02  0.22488300461E+02  0.43400711382E+02  0.00000000000E+00 0. -1.
         11    1    3    3    0    0 -0.87335774075E+01 -0.10526403902E+02 -0.11416918469E+01  0.13725305606E+02  0.51100000000E-03 0.  1.
        -11    1    3    3    0    0 -0.73246380243E+01 -0.22012836738E+02 -0.19401783163E+02  0.30243090014E+02  0.51100000000E-03 0. -1.
         12    1    3    3    0    0 -0.31881115318E+01  0.79846262166E+00 -0.19448254508E+01  0.38188929982E+01  0.00000000000E+00 0. -1.
</event>
<event>
 7    1  0.7357971E-011  0.4778727E+02  0.7816164E-02  0.1312668E+00
        -11   -1    0    0    0    0  0.00000000000E+00  0.00000000000E+00  0.45593999997E+02  0.45594000000E+02  0.51100000000E-03 0. -1.
         11   -1    0    0    0    0 -0.00000000000E+00 -0.00000000000E+00 -0.45593999997E+02  0.45594000000E+02  0.51100000000E-03 0.  1.
    9900012    2    1    2    0    0  0.32582814481E+02  0.28144334857E+02  0.54662784766E+01  0.47787267467E+02  0.19999983689E+02 0.  0.
        -12    1    1    2    0    0 -0.32582814481E+02 -0.28144334857E+02 -0.54662784766E+01  0.43400732533E+02  0.00000000000E+00 0.  1.
         11    1    3    3    0    0  0.24732835539E+02  0.10689928589E+02  0.84863115843E+01  0.28248986028E+02  0.51100000000E-03 0. -1.
        -11    1    3    3    0    0  0.19467121469E+01  0.73065763602E+01 -0.10449527236E+01  0.76333264535E+01  0.51100000000E-03 0.  1.
         12    1    3    3    0    0  0.59032667946E+01  0.10147829908E+02 -0.19750803841E+01  0.11904954985E+02  0.00000000000E+00 0. -1.
</event>
<event>
 7    1  0.7357971E-011  0.4778727E+02  0.7816164E-02  0.1312668E+00
        -11   -1    0    0    0    0  0.00000000000E+00  0.00000000000E+00  0.45593999997E+02  0.45594000000E+02  0.51100000000E-03 0. -1.
         11   -1    0    0    0    0 -0.00000000000E+00 -0.00000000000E+00 -0.45593999997E+02  0.45594000000E+02  0.51100000000E-03 0.  1.
    9900012    2    1    2    0    0 -0.17957339711E+02  0.19608334020E+02 -0.34302628324E+02  0.47787272789E+02  0.20000007952E+02 0.  0.
         12    1    1    2    0    0  0.17957339711E+02 -0.19608334020E+02  0.34302628324E+02  0.43400727211E+02  0.00000000000E+00 0. -1.
         11    1    3    3    0    0 -0.13297069856E+02  0.12977717186E+02 -0.11482297305E+02  0.21842077780E+02  0.51100000000E-03 0.  1.
        -11    1    3    3    0    0  0.17946875770E+01  0.27132979433E+00 -0.10476366723E+02  0.10632440140E+02  0.51100000000E-03 0. -1.
         12    1    3    3    0    0 -0.64549574322E+01  0.63592870397E+01 -0.12343964296E+02  0.15312754868E+02  0.00000000000E+00 0. -1.
</event>
<event>
 7    1  0.7357971E-011  0.4778727E+02  0.7816164E-02  0.1312668E+00
        -11   -1    0    0    0    0  0.00000000000E+00  0.00000000000E+00  0.45593999997E+02  0.45594000000E+02  0.51100000000E-03 0.  1.
         11   -1    0    0    0    0 -0.00000000000E+00 -0.00000000000E+00 -0.45593999997E+02  0.45594000000E+02  0.51100000000E-03 0. -1.
    9900012    2    1    2    0    0 -0.24049296242E+02  0.35729787984E+02 -0.53513515862E+01  0.47787270019E+02  0.19999995323E+02 0.  0.
         12    1    1    2    0    0  0.24049296242E+02 -0.35729787984E+02  0.53513515862E+01  0.43400729981E+02  0.00000000000E+00 0. -1.
         11    1    3    3    0    0 -0.71037605943E+01  0.19443679440E+02 -0.87330235859E+01  0.22467438349E+02  0.51100000000E-03 0. -1.
        -11    1    3    3    0    0 -0.97813142648E+01  0.12475572672E+02 -0.13774668069E+01  0.15912618808E+02  0.51100000000E-03 0.  1.
         12    1    3    3    0    0 -0.71642213831E+01  0.38105358714E+01  0.47591388067E+01  0.94072128622E+01  0.00000000000E+00 0. -1.
</event>
<event>
 7    1  0.7357971E-011  0.4778728E+02  0.7816164E-02  0.1312668E+00
        -11   -1    0    0    0    0  0.00000000000E+00  0.00000000000E+00  0.45593999997E+02  0.45594000000E+02  0.51100000000E-03 0. -1.
         11   -1    0    0    0    0 -0.00000000000E+00 -0.00000000000E+00 -0.45593999997E+02  0.45594000000E+02  0.51100000000E-03 0.  1.
    9900012    2    1    2    0    0 -0.17042264254E+02 -0.10960526378E+02  0.38380339071E+02  0.47787281842E+02  0.20000049232E+02 0.  0.
        -12    1    1    2    0    0  0.17042264254E+02  0.10960526378E+02 -0.38380339071E+02  0.43400718158E+02  0.00000000000E+00 0.  1.
         11    1    3    3    0    0 -0.31154952575E+01 -0.31677780102E+01  0.25373042686E+02  0.25759123114E+02  0.51100000000E-03 0. -1.
        -11    1    3    3    0    0 -0.10604076207E+02 -0.42074799497E+01  0.45953152014E+01  0.12299034181E+02  0.51100000000E-03 0.  1.
        -12    1    3    3    0    0 -0.33226927895E+01 -0.35852684177E+01  0.84119811840E+01  0.97291245465E+01  0.00000000000E+00 0.  1.
</event>
<event>
 7    1  0.7357971E-011  0.4778727E+02  0.7816164E-02  0.1312668E+00
        -11   -1    0    0    0    0  0.00000000000E+00  0.00000000000E+00  0.45593999997E+02  0.45594000000E+02  0.51100000000E-03 0. -1.
         11   -1    0    0    0    0 -0.00000000000E+00 -0.00000000000E+00 -0.45593999997E+02  0.45594000000E+02  0.51100000000E-03 0.  1.
    9900012    2    1    2    0    0 -0.85220171176E+01  0.11213409438E+02 -0.41051897583E+02  0.47787267032E+02  0.19999981705E+02 0.  0.
         12    1    1    2    0    0  0.85220171176E+01 -0.11213409438E+02  0.41051897583E+02  0.43400732968E+02  0.00000000000E+00 0. -1.
         11    1    3    3    0    0 -0.27728137958E+01  0.11090969555E+02 -0.97062343940E+01  0.14996969307E+02  0.51100000000E-03 0. -1.
        -11    1    3    3    0    0 -0.68569278181E+01  0.13276984824E+01 -0.17407981829E+02  0.18756814068E+02  0.51100000000E-03 0.  1.
         12    1    3    3    0    0  0.11077244964E+01 -0.12052585990E+01 -0.13937681361E+02  0.14033483657E+02  0.00000000000E+00 0. -1.
</event>
<event>
 7    1  0.7357971E-011  0.4778727E+02  0.7816164E-02  0.1312668E+00
        -11   -1    0    0    0    0  0.00000000000E+00  0.00000000000E+00  0.45593999997E+02  0.45594000000E+02  0.51100000000E-03 0. -1.
         11   -1    0    0    0    0 -0.00000000000E+00 -0.00000000000E+00 -0.45593999997E+02  0.45594000000E+02  0.51100000000E-03 0.  1.
    9900012    2    1    2    0    0 -0.30963414522E+02 -0.20595206085E+01 -0.30342193554E+02  0.47787269895E+02  0.19999994757E+02 0.  0.
         12    1    1    2    0    0  0.30963414522E+02  0.20595206085E+01  0.30342193554E+02  0.43400730105E+02  0.00000000000E+00 0. -1.
         11    1    3    3    0    0 -0.16230234691E+02  0.16625122345E+01 -0.40951932313E+01  0.16821268469E+02  0.51100000000E-03 0. -1.
        -11    1    3    3    0    0 -0.14986641960E+02 -0.42586999161E+01 -0.23784974098E+02  0.28433447827E+02  0.51100000000E-03 0.  1.
         12    1    3    3    0    0  0.25346212873E+00  0.53666707316E+00 -0.24620262250E+01  0.25325535988E+01  0.00000000000E+00 0. -1.
</event>
<event>
 7    1  0.7357971E-011  0.4778727E+02  0.7816164E-02  0.1312668E+00
        -11   -1    0    0    0    0  0.00000000000E+00  0.00000000000E+00  0.45593999997E+02  0.45594000000E+02  0.51100000000E-03 0. -1.
         11   -1    0    0    0    0 -0.00000000000E+00 -0.00000000000E+00 -0.45593999997E+02  0.45594000000E+02  0.51100000000E-03 0.  1.
    9900012    2    1    2    0    0 -0.33743709625E+02 -0.26821369651E+02  0.50595605960E+01  0.47787274630E+02  0.20000016348E+02 0.  0.
        -12    1    1    2    0    0  0.33743709625E+02  0.26821369651E+02 -0.50595605960E+01  0.43400725370E+02  0.00000000000E+00 0.  1.
         11    1    3    3    0    0 -0.20406649388E+01 -0.40846756036E+00  0.48706841199E+01  0.52966709543E+01  0.51100000000E-03 0. -1.
        -11    1    3    3    0    0 -0.21740407599E+02 -0.23468342986E+02  0.14623823200E+01  0.32024162868E+02  0.51100000000E-03 0.  1.
         12    1    3    3    0    0 -0.99626370872E+01 -0.29445591052E+01 -0.12735058439E+01  0.10466440808E+02  0.00000000000E+00 0. -1.
</event>
<event>
 7    1  0.7357971E-011  0.4778727E+02  0.7816164E-02  0.1312668E+00
        -11   -1    0    0    0    0  0.00000000000E+00  0.00000000000E+00  0.45593999997E+02  0.45594000000E+02  0.51100000000E-03 0. -1.
         11   -1    0    0    0    0 -0.00000000000E+00 -0.00000000000E+00 -0.45593999997E+02  0.45594000000E+02  0.51100000000E-03 0.  1.
    9900012    2    1    2    0    0  0.18140493961E+02  0.19003968439E+02  0.34545547503E+02  0.47787272012E+02  0.20000004411E+02 0.  0.
        -12    1    1    2    0    0 -0.18140493961E+02 -0.19003968439E+02 -0.34545547503E+02  0.43400727988E+02  0.00000000000E+00 0.  1.
         11    1    3    3    0    0  0.17592126632E+02  0.14348754043E+02  0.29293132488E+02  0.37060184474E+02  0.51100000000E-03 0. -1.
        -11    1    3    3    0    0  0.17866044117E+01  0.67155633992E+01  0.39368912738E+01  0.79868554673E+01  0.51100000000E-03 0.  1.
         12    1    3    3    0    0 -0.12382370827E+01 -0.20603490029E+01  0.13155237417E+01  0.27402320708E+01  0.00000000000E+00 0. -1.
</event>
<event>
 7    1  0.7357971E-011  0.4778727E+02  0.7816164E-02  0.1312668E+00
        -11   -1    0    0    0    0  0.00000000000E+00  0.00000000000E+00  0.45593999997E+02  0.45594000000E+02  0.51100000000E-03 0. -1.
         11   -1    0    0    0    0 -0.00000000000E+00 -0.00000000000E+00 -0.45593999997E+02  0.45594000000E+02  0.51100000000E-03 0.  1.
    9900012    2    1    2    0    0  0.16782845308E+02  0.15287666289E+02 -0.36989820001E+02  0.47787269351E+02  0.19999992277E+02 0.  0.
         12    1    1    2    0    0 -0.16782845308E+02 -0.15287666289E+02  0.36989820001E+02  0.43400730649E+02  0.00000000000E+00 0. -1.
         11    1    3    3    0    0  0.94717073303E+01 -0.64481497012E+00 -0.65276248379E+01  0.11521237450E+02  0.51100000000E-03 0. -1.
        -11    1    3    3    0    0  0.51719592152E+01  0.68018390148E+01 -0.71617930083E+01  0.11149235645E+02  0.51100000000E-03 0.  1.
         12    1    3    3    0    0  0.21391787627E+01  0.91306422440E+01 -0.23300402155E+02  0.25116796256E+02  0.00000000000E+00 0. -1.
</event>
<event>
 7    1  0.7357971E-011  0.4778728E+02  0.7816164E-02  0.1312668E+00
        -11   -1    0    0    0    0  0.00000000000E+00  0.00000000000E+00  0.45593999997E+02  0.45594000000E+02  0.51100000000E-03 0. -1.
         11   -1    0    0    0    0 -0.00000000000E+00 -0.00000000000E+00 -0.45593999997E+02  0.45594000000E+02  0.51100000000E-03 0.  1.
    9900012    2    1    2    0    0 -0.23036139611E+02 -0.31762799910E+02  0.18549490257E+02  0.47787276791E+02  0.20000026199E+02 0.  0.
        -12    1    1    2    0    0  0.23036139611E+02  0.31762799910E+02 -0.18549490257E+02  0.43400723209E+02  0.00000000000E+00 0.  1.
         11    1    3    3    0    0  0.14258266174E+01  0.71299556884E+00 -0.10682285866E+01  0.19189728499E+01  0.51100000000E-03 0. -1.
        -11    1    3    3    0    0 -0.13910277911E+01 -0.45117359231E+01  0.16019802399E+00  0.47240219118E+01  0.51100000000E-03 0.  1.
         12    1    3    3    0    0 -0.23070938438E+02 -0.27964059555E+02  0.19457520820E+02  0.41144282029E+02  0.00000000000E+00 0. -1.
</event>
<event>
 7    1  0.7357971E-011  0.4778727E+02  0.7816164E-02  0.1312668E+00
        -11   -1    0    0    0    0  0.00000000000E+00  0.00000000000E+00  0.45593999997E+02  0.45594000000E+02  0.51100000000E-03 0. -1.
         11   -1    0    0    0    0 -0.00000000000E+00 -0.00000000000E+00 -0.45593999997E+02  0.45594000000E+02  0.51100000000E-03 0.  1.
    9900012    2    1    2    0    0 -0.22908507737E+02  0.23987699172E+02 -0.27989530062E+02  0.47787271534E+02  0.20000002233E+02 0.  0.
         12    1    1    2    0    0  0.22908507737E+02 -0.23987699172E+02  0.27989530062E+02  0.43400728466E+02  0.00000000000E+00 0. -1.
         11    1    3    3    0    0 -0.39988462485E+01  0.12101070677E+02 -0.32452477376E+01  0.13151361754E+02  0.51100000000E-03 0. -1.
        -11    1    3    3    0    0 -0.17595166007E+02  0.73926713458E+01 -0.16857908885E+02  0.25464299493E+02  0.51100000000E-03 0.  1.
         12    1    3    3    0    0 -0.13144954811E+01  0.44939571485E+01 -0.78863734394E+01  0.91716102865E+01  0.00000000000E+00 0. -1.
</event>
<event>
 7    1  0.7357971E-011  0.4778727E+02  0.7816164E-02  0.1312668E+00
        -11   -1    0    0    0    0  0.00000000000E+00  0.00000000000E+00  0.45593999997E+02  0.45594000000E+02  0.51100000000E-03 0.  1.
         11   -1    0    0    0    0 -0.00000000000E+00 -0.00000000000E+00 -0.45593999997E+02  0.45594000000E+02  0.51100000000E-03 0. -1.
    9900012    2    1    2    0    0 -0.35905360140E+02 -0.21008030091E+02  0.12373012418E+02  0.47787266695E+02  0.19999980168E+02 0.  0.
        -12    1    1    2    0    0  0.35905360140E+02  0.21008030091E+02 -0.12373012418E+02  0.43400733305E+02  0.00000000000E+00 0.  1.
         11    1    3    3    0    0 -0.20901898017E+02 -0.69619837542E+01 -0.11178063358E+01  0.22059194223E+02  0.51100000000E-03 0. -1.
        -11    1    3    3    0    0  0.58546856500E+00 -0.23199939669E+01  0.12632519993E+01  0.27057256554E+01  0.51100000000E-03 0.  1.
         12    1    3    3    0    0 -0.15588930689E+02 -0.11726052370E+02  0.12227566755E+02  0.23022346816E+02  0.00000000000E+00 0. -1.
</event>
<event>
 7    1  0.7357971E-011  0.4778726E+02  0.7816164E-02  0.1312668E+00
        -11   -1    0    0    0    0  0.00000000000E+00  0.00000000000E+00  0.45593999997E+02  0.45594000000E+02  0.51100000000E-03 0. -1.
         11   -1    0    0    0    0 -0.00000000000E+00 -0.00000000000E+00 -0.45593999997E+02  0.45594000000E+02  0.51100000000E-03 0.  1.
    9900012    2    1    2    0    0  0.40125657122E+02  0.11924469501E+02 -0.11461367416E+02  0.47787259507E+02  0.19999947394E+02 0.  0.
         12    1    1    2    0    0 -0.40125657122E+02 -0.11924469501E+02  0.11461367416E+02  0.43400740493E+02  0.00000000000E+00 0. -1.
         11    1    3    3    0    0  0.12677008769E+02  0.16620111212E+01  0.10279274292E+01  0.12826748121E+02  0.51100000000E-03 0. -1.
        -11    1    3    3    0    0  0.20652583451E+02  0.13383035693E+02 -0.12221959178E+02  0.27477465931E+02  0.51100000000E-03 0.  1.
        -12    1    3    3    0    0  0.67960649019E+01 -0.31205773135E+01 -0.26733566682E+00  0.74830454549E+01  0.00000000000E+00 0.  1.
</event>
<event>
 7    1  0.7357971E-011  0.4778727E+02  0.7816164E-02  0.1312668E+00
        -11   -1    0    0    0    0  0.00000000000E+00  0.00000000000E+00  0.45593999997E+02  0.45594000000E+02  0.51100000000E-03 0.  1.
         11   -1    0    0    0    0 -0.00000000000E+00 -0.00000000000E+00 -0.45593999997E+02  0.45594000000E+02  0.51100000000E-03 0. -1.
    9900012    2    1    2    0    0 -0.17095173776E+02 -0.39142184886E+02 -0.76985404692E+01  0.47787272708E+02  0.20000007585E+02 0.  0.
         12    1    1    2    0    0  0.17095173776E+02  0.39142184886E+02  0.76985404692E+01  0.43400727292E+02  0.00000000000E+00 0. -1.
         11    1    3    3    0    0 -0.97391143831E+01 -0.11832096499E+02 -0.71528547027E+01  0.16911894843E+02  0.51100000000E-03 0.  1.
        -11    1    3    3    0    0 -0.91649587677E+01 -0.22049523476E+02  0.33102849086E+01  0.24106761317E+02  0.51100000000E-03 0. -1.
         12    1    3    3    0    0  0.18088993745E+01 -0.52605649112E+01 -0.38559706751E+01  0.67686165483E+01  0.00000000000E+00 0. -1.
</event>
<event>
 7    1  0.8242147E-011  0.4778727E+02  0.7816164E-02  0.1312668E+00
        -11   -1    0    0    0    0  0.00000000000E+00  0.00000000000E+00  0.45593999997E+02  0.45594000000E+02  0.51100000000E-03 0. -1.
         11   -1    0    0    0    0 -0.00000000000E+00 -0.00000000000E+00 -0.45593999997E+02  0.45594000000E+02  0.51100000000E-03 0.  1.
    9900012    2    1    2    0    0  0.68100338621E+01  0.37908605164E+01 -0.42695152348E+02  0.47787271681E+02  0.20000002901E+02 0.  0.
         12    1    1    2    0    0 -0.68100338621E+01 -0.37908605164E+01  0.42695152348E+02  0.43400728319E+02  0.00000000000E+00 0. -1.
         11    1    3    3    0    0 -0.44659735277E+01 -0.21777385493E+01 -0.40754292104E+01  0.64262421561E+01  0.51100000000E-03 0. -1.
        -11    1    3    3    0    0  0.50136846651E+01  0.12636952314E+01 -0.25991963049E+02  0.26501247197E+02  0.51100000000E-03 0.  1.
        -12    1    3    3    0    0  0.62623227247E+01  0.47049038343E+01 -0.12627760088E+02  0.14859782328E+02  0.00000000000E+00 0.  1.
</event>
<event>
 7    1  0.7357971E-011  0.4778727E+02  0.7816164E-02  0.1312668E+00
        -11   -1    0    0    0    0  0.00000000000E+00  0.00000000000E+00  0.45593999997E+02  0.45594000000E+02  0.51100000000E-03 0. -1.
         11   -1    0    0    0    0 -0.00000000000E+00 -0.00000000000E+00 -0.45593999997E+02  0.45594000000E+02  0.51100000000E-03 0.  1.
    9900012    2    1    2    0    0  0.18872182231E+02  0.20248641150E+02 -0.33428377080E+02  0.47787272762E+02  0.20000007832E+02 0.  0.
         12    1    1    2    0    0 -0.18872182231E+02 -0.20248641150E+02  0.33428377080E+02  0.43400727238E+02  0.00000000000E+00 0. -1.
         11    1    3    3    0    0  0.77492010209E+01  0.14626268696E+02 -0.29806716307E+02  0.34094254496E+02  0.51100000000E-03 0. -1.
        -11    1    3    3    0    0  0.76554352565E+01  0.59484419086E+01 -0.30521456562E+01  0.10163918707E+02  0.51100000000E-03 0.  1.
         12    1    3    3    0    0  0.34675459537E+01 -0.32606945443E+00 -0.56951511697E+00  0.35290995592E+01  0.00000000000E+00 0. -1.
</event>
<event>
 7    1  0.7357971E-011  0.4778727E+02  0.7816164E-02  0.1312668E+00
        -11   -1    0    0    0    0  0.00000000000E+00  0.00000000000E+00  0.45593999997E+02  0.45594000000E+02  0.51100000000E-03 0. -1.
         11   -1    0    0    0    0 -0.00000000000E+00 -0.00000000000E+00 -0.45593999997E+02  0.45594000000E+02  0.51100000000E-03 0.  1.
    9900012    2    1    2    0    0  0.28638584881E+02 -0.15693894872E+02  0.28585946363E+02  0.47787271783E+02  0.20000003369E+02 0.  0.
        -12    1    1    2    0    0 -0.28638584881E+02  0.15693894872E+02 -0.28585946363E+02  0.43400728217E+02  0.00000000000E+00 0.  1.
         11    1    3    3    0    0  0.20966105367E+02 -0.14280234435E+02  0.24407209115E+02  0.35202478987E+02  0.51100000000E-03 0. -1.
        -11    1    3    3    0    0  0.87658688184E+01 -0.11463870757E+01  0.63125207399E+00  0.88630208683E+01  0.51100000000E-03 0.  1.
         12    1    3    3    0    0 -0.10933893048E+01 -0.26727336137E+00  0.35474851749E+01  0.37217719285E+01  0.00000000000E+00 0. -1.
</event>
<event>
 7    1  0.7357971E-011  0.4778725E+02  0.7816164E-02  0.1312668E+00
        -11   -1    0    0    0    0  0.00000000000E+00  0.00000000000E+00  0.45593999997E+02  0.45594000000E+02  0.51100000000E-03 0. -1.
         11   -1    0    0    0    0 -0.00000000000E+00 -0.00000000000E+00 -0.45593999997E+02  0.45594000000E+02  0.51100000000E-03 0.  1.
    9900012    2    1    2    0    0  0.11688955059E+02  0.31085686211E+02  0.27940537758E+02  0.47787248765E+02  0.19999898417E+02 0.  0.
        -12    1    1    2    0    0 -0.11688955059E+02 -0.31085686211E+02 -0.27940537758E+02  0.43400751235E+02  0.00000000000E+00 0.  1.
         11    1    3    3    0    0 -0.41944130198E+01  0.48666756674E+01  0.74552870634E+01  0.98416938629E+01  0.51100000000E-03 0. -1.
        -11    1    3    3    0    0  0.26865858755E+01  0.55221463084E+01  0.88739129323E+01  0.10791578870E+02  0.51100000000E-03 0.  1.
         12    1    3    3    0    0  0.13196782203E+02  0.20696864236E+02  0.11611337762E+02  0.27153976032E+02  0.00000000000E+00 0. -1.
</event>
<event>
 7    1  0.7357971E-011  0.4778727E+02  0.7816164E-02  0.1312668E+00
        -11   -1    0    0    0    0  0.00000000000E+00  0.00000000000E+00  0.45593999997E+02  0.45594000000E+02  0.51100000000E-03 0. -1.
         11   -1    0    0    0    0 -0.00000000000E+00 -0.00000000000E+00 -0.45593999997E+02  0.45594000000E+02  0.51100000000E-03 0.  1.
    9900012    2    1    2    0    0  0.10954901801E+02 -0.85234085015E+01  0.41121343513E+02  0.47787271224E+02  0.20000000821E+02 0.  0.
        -12    1    1    2    0    0 -0.10954901801E+02  0.85234085015E+01 -0.41121343513E+02  0.43400728776E+02  0.00000000000E+00 0.  1.
         11    1    3    3    0    0  0.13038044221E+02 -0.67611245459E+01  0.18725963274E+02  0.23798426483E+02  0.51100000000E-03 0. -1.
        -11    1    3    3    0    0  0.30411601583E+00  0.30524566687E+01  0.10435816732E+02  0.10877327309E+02  0.51100000000E-03 0.  1.
         12    1    3    3    0    0 -0.23872584359E+01 -0.48147406244E+01  0.11959563507E+02  0.13111517433E+02  0.00000000000E+00 0. -1.
</event>
<event>
 7    1  0.7357971E-011  0.4778727E+02  0.7816164E-02  0.1312668E+00
        -11   -1    0    0    0    0  0.00000000000E+00  0.00000000000E+00  0.45593999997E+02  0.45594000000E+02  0.51100000000E-03 0. -1.
         11   -1    0    0    0    0 -0.00000000000E+00 -0.00000000000E+00 -0.45593999997E+02  0.45594000000E+02  0.51100000000E-03 0.  1.
    9900012    2    1    2    0    0 -0.90905676768E+01 -0.28799312804E+02 -0.31170252394E+02  0.47787268750E+02  0.19999989541E+02 0.  0.
         12    1    1    2    0    0  0.90905676768E+01  0.28799312804E+02  0.31170252394E+02  0.43400731250E+02  0.00000000000E+00 0. -1.
         11    1    3    3    0    0  0.52142899353E+01 -0.24806034608E+01 -0.32918684286E+01  0.66466992614E+01  0.51100000000E-03 0. -1.
        -11    1    3    3    0    0 -0.72390221864E+01 -0.11305374819E+02 -0.15047697290E+02  0.20165518491E+02  0.51100000000E-03 0.  1.
         12    1    3    3    0    0 -0.70658354257E+01 -0.15013334525E+02 -0.12830686676E+02  0.20975050998E+02  0.00000000000E+00 0. -1.
</event>
<event>
 7    1  0.7357971E-011  0.4778727E+02  0.7816164E-02  0.1312668E+00
        -11   -1    0    0    0    0  0.00000000000E+00  0.00000000000E+00  0.45593999997E+02  0.45594000000E+02  0.51100000000E-03 0. -1.
         11   -1    0    0    0    0 -0.00000000000E+00 -0.00000000000E+00 -0.45593999997E+02  0.45594000000E+02  0.51100000000E-03 0.  1.
    9900012    2    1    2    0    0  0.10078936141E+02  0.33354061590E+02 -0.25875563151E+02  0.47787272510E+02  0.20000006682E+02 0.  0.
         12    1    1    2    0    0 -0.10078936141E+02 -0.33354061590E+02  0.25875563151E+02  0.43400727490E+02  0.00000000000E+00 0. -1.
         11    1    3    3    0    0 -0.74444913367E+00  0.62826292160E+01 -0.26788297546E+01  0.68703539570E+01  0.51100000000E-03 0. -1.
        -11    1    3    3    0    0 -0.13428554960E+01 -0.18731561419E+01 -0.17445281180E+01  0.28905628224E+01  0.51100000000E-03 0.  1.
        -12    1    3    3    0    0  0.12166240770E+02  0.28944588516E+02 -0.21452205278E+02  0.38026355731E+02  0.00000000000E+00 0.  1.
</event>
<event>
 7    1  0.7357971E-011  0.4778727E+02  0.7816164E-02  0.1312668E+00
        -11   -1    0    0    0    0  0.00000000000E+00  0.00000000000E+00  0.45593999997E+02  0.45594000000E+02  0.51100000000E-03 0. -1.
         11   -1    0    0    0    0 -0.00000000000E+00 -0.00000000000E+00 -0.45593999997E+02  0.45594000000E+02  0.51100000000E-03 0.  1.
    9900012    2    1    2    0    0  0.50079162122E+01  0.57466966590E+01  0.42726100983E+02  0.47787268987E+02  0.19999990619E+02 0.  0.
        -12    1    1    2    0    0 -0.50079162122E+01 -0.57466966590E+01 -0.42726100983E+02  0.43400731013E+02  0.00000000000E+00 0.  1.
         11    1    3    3    0    0 -0.25176710514E+01  0.54497218671E+01  0.88604825722E+01  0.10702629940E+02  0.51100000000E-03 0. -1.
        -11    1    3    3    0    0  0.52713909157E+01  0.13187733748E+01  0.34162477766E+02  0.34591929879E+02  0.51100000000E-03 0.  1.
        -12    1    3    3    0    0  0.22541963479E+01 -0.10217985829E+01 -0.29685935551E+00  0.24927091679E+01  0.00000000000E+00 0.  1.
</event>
<event>
 7    1  0.7357971E-011  0.4778727E+02  0.7816164E-02  0.1312668E+00
        -11   -1    0    0    0    0  0.00000000000E+00  0.00000000000E+00  0.45593999997E+02  0.45594000000E+02  0.51100000000E-03 0. -1.
         11   -1    0    0    0    0 -0.00000000000E+00 -0.00000000000E+00 -0.45593999997E+02  0.45594000000E+02  0.51100000000E-03 0.  1.
    9900012    2    1    2    0    0  0.43115778350E+01 -0.43129948694E+02 -0.22002036637E+01  0.47787273348E+02  0.20000010504E+02 0.  0.
        -12    1    1    2    0    0 -0.43115778350E+01  0.43129948694E+02  0.22002036637E+01  0.43400726652E+02  0.00000000000E+00 0.  1.
         11    1    3    3    0    0  0.30392069814E+01 -0.22959042873E+02  0.11213204900E+01  0.23186457009E+02  0.51100000000E-03 0. -1.
        -11    1    3    3    0    0 -0.30565405210E+01 -0.10221107276E+02 -0.74274388779E+01  0.12999243149E+02  0.51100000000E-03 0.  1.
        -12    1    3    3    0    0  0.43289113746E+01 -0.99497985446E+01  0.41059147242E+01  0.11601573190E+02  0.00000000000E+00 0.  1.
</event>
<event>
 7    1  0.7357971E-011  0.4778727E+02  0.7816164E-02  0.1312668E+00
        -11   -1    0    0    0    0  0.00000000000E+00  0.00000000000E+00  0.45593999997E+02  0.45594000000E+02  0.51100000000E-03 0. -1.
         11   -1    0    0    0    0 -0.00000000000E+00 -0.00000000000E+00 -0.45593999997E+02  0.45594000000E+02  0.51100000000E-03 0.  1.
    9900012    2    1    2    0    0  0.19868871233E+02 -0.36359511071E+01  0.38413944518E+02  0.47787270536E+02  0.19999997684E+02 0.  0.
        -12    1    1    2    0    0 -0.19868871233E+02  0.36359511071E+01 -0.38413944518E+02  0.43400729464E+02  0.00000000000E+00 0.  1.
         11    1    3    3    0    0  0.88852655923E+00 -0.96104996982E+00  0.90827720238E+01  0.91765921991E+01  0.51100000000E-03 0. -1.
        -11    1    3    3    0    0 -0.24115636407E+01 -0.80882476100E+00  0.38990859046E+00  0.25732985946E+01  0.51100000000E-03 0.  1.
        -12    1    3    3    0    0  0.21391908314E+02 -0.18660763763E+01  0.28941263904E+02  0.36037379743E+02  0.00000000000E+00 0.  1.
</event>
<event>
 7    1  0.7357971E-011  0.4778726E+02  0.7816164E-02  0.1312668E+00
        -11   -1    0    0    0    0  0.00000000000E+00  0.00000000000E+00  0.45593999997E+02  0.45594000000E+02  0.51100000000E-03 0. -1.
         11   -1    0    0    0    0 -0.00000000000E+00 -0.00000000000E+00 -0.45593999997E+02  0.45594000000E+02  0.51100000000E-03 0.  1.
    9900012    2    1    2    0    0  0.33834582186E+02 -0.96136292583E+01  0.25424851198E+02  0.47787264088E+02  0.19999968284E+02 0.  0.
        -12    1    1    2    0    0 -0.33834582186E+02  0.96136292583E+01 -0.25424851198E+02  0.43400735912E+02  0.00000000000E+00 0.  1.
         11    1    3    3    0    0  0.22962623470E+02 -0.66947661785E+01  0.16948335548E+02  0.29314638816E+02  0.51100000000E-03 0. -1.
        -11    1    3    3    0    0 -0.28653067985E+00  0.21454201014E+01  0.54302463185E+01  0.58457251546E+01  0.51100000000E-03 0.  1.
         12    1    3    3    0    0  0.11158489396E+02 -0.50642831812E+01  0.30462693323E+01  0.12626900118E+02  0.00000000000E+00 0. -1.
</event>
<event>
 7    1  0.7357971E-011  0.4778727E+02  0.7816164E-02  0.1312668E+00
        -11   -1    0    0    0    0  0.00000000000E+00  0.00000000000E+00  0.45593999997E+02  0.45594000000E+02  0.51100000000E-03 0.  1.
         11   -1    0    0    0    0 -0.00000000000E+00 -0.00000000000E+00 -0.45593999997E+02  0.45594000000E+02  0.51100000000E-03 0. -1.
    9900012    2    1    2    0    0  0.35809154036E+02  0.19346585454E+02 -0.15067767183E+02  0.47787268562E+02  0.19999988680E+02 0.  0.
        -12    1    1    2    0    0 -0.35809154036E+02 -0.19346585454E+02  0.15067767183E+02  0.43400731438E+02  0.00000000000E+00 0.  1.
         11    1    3    3    0    0  0.31478667305E+02  0.13023979136E+02 -0.11695115337E+02  0.36018137804E+02  0.51100000000E-03 0. -1.
        -11    1    3    3    0    0 -0.78490649582E+00  0.24175249813E+01  0.21187998598E+01  0.33090509741E+01  0.51100000000E-03 0.  1.
         12    1    3    3    0    0  0.51153932270E+01  0.39050813364E+01 -0.54914517060E+01  0.84600797839E+01  0.00000000000E+00 0. -1.
</event>
<event>
 7    1  0.7357971E-011  0.4778727E+02  0.7816164E-02  0.1312668E+00
        -11   -1    0    0    0    0  0.00000000000E+00  0.00000000000E+00  0.45593999997E+02  0.45594000000E+02  0.51100000000E-03 0. -1.
         11   -1    0    0    0    0 -0.00000000000E+00 -0.00000000000E+00 -0.45593999997E+02  0.45594000000E+02  0.51100000000E-03 0.  1.
    9900012    2    1    2    0    0  0.21241910285E+02  0.13237626725E+02  0.35456587993E+02  0.47787272518E+02  0.20000006719E+02 0.  0.
        -12    1    1    2    0    0 -0.21241910285E+02 -0.13237626725E+02 -0.35456587993E+02  0.43400727482E+02  0.00000000000E+00 0.  1.
         11    1    3    3    0    0  0.82312672587E+01 -0.26896798083E+01  0.11025633482E+02  0.14019726534E+02  0.51100000000E-03 0. -1.
        -11    1    3    3    0    0 -0.96705337699E+00  0.38434478566E+01  0.84701445325E+01  0.93515042813E+01  0.51100000000E-03 0.  1.
         12    1    3    3    0    0  0.13977696403E+02  0.12083858677E+02  0.15960809978E+02  0.24416041703E+02  0.00000000000E+00 0. -1.
</event>
<event>
 7    1  0.7357971E-011  0.4778727E+02  0.7816164E-02  0.1312668E+00
        -11   -1    0    0    0    0  0.00000000000E+00  0.00000000000E+00  0.45593999997E+02  0.45594000000E+02  0.51100000000E-03 0.  1.
         11   -1    0    0    0    0 -0.00000000000E+00 -0.00000000000E+00 -0.45593999997E+02  0.45594000000E+02  0.51100000000E-03 0. -1.
    9900012    2    1    2    0    0 -0.37666452318E+02  0.21015497384E+02 -0.48177246340E+01  0.47787271536E+02  0.20000002243E+02 0.  0.
         12    1    1    2    0    0  0.37666452318E+02 -0.21015497384E+02  0.48177246340E+01  0.43400728464E+02  0.00000000000E+00 0. -1.
         11    1    3    3    0    0 -0.12955511735E+02  0.12719040528E+02 -0.10144486168E+02  0.20797352623E+02  0.51100000000E-03 0. -1.
        -11    1    3    3    0    0 -0.20335556501E+02  0.58459794428E+01  0.58360738538E+01  0.21949261767E+02  0.51100000000E-03 0.  1.
        -12    1    3    3    0    0 -0.43753840824E+01  0.24504774135E+01 -0.50931231972E+00  0.50406571458E+01  0.00000000000E+00 0.  1.
</event>
<event>
 7    1  0.7357971E-011  0.4778727E+02  0.7816164E-02  0.1312668E+00
        -11   -1    0    0    0    0  0.00000000000E+00  0.00000000000E+00  0.45593999997E+02  0.45594000000E+02  0.51100000000E-03 0. -1.
         11   -1    0    0    0    0 -0.00000000000E+00 -0.00000000000E+00 -0.45593999997E+02  0.45594000000E+02  0.51100000000E-03 0.  1.
    9900012    2    1    2    0    0 -0.25164110945E+02  0.10805154033E+02 -0.33669559312E+02  0.47787273537E+02  0.20000011363E+02 0.  0.
         12    1    1    2    0    0  0.25164110945E+02 -0.10805154033E+02  0.33669559312E+02  0.43400726463E+02  0.00000000000E+00 0. -1.
         11    1    3    3    0    0 -0.45084161346E+01 -0.22265583888E+01 -0.46552489472E+01  0.68523515177E+01  0.51100000000E-03 0. -1.
        -11    1    3    3    0    0 -0.15148206884E+02  0.45501680138E+01 -0.82505047389E+01  0.17839367406E+02  0.51100000000E-03 0.  1.
        -12    1    3    3    0    0 -0.55074879263E+01  0.84815444084E+01 -0.20763805626E+02  0.23095554613E+02  0.00000000000E+00 0.  1.
</event>
<event>
 7    1  0.7357971E-011  0.4778727E+02  0.7816164E-02  0.1312668E+00
        -11   -1    0    0    0    0  0.00000000000E+00  0.00000000000E+00  0.45593999997E+02  0.45594000000E+02  0.51100000000E-03 0. -1.
         11   -1    0    0    0    0 -0.00000000000E+00 -0.00000000000E+00 -0.45593999997E+02  0.45594000000E+02  0.51100000000E-03 0.  1.
    9900012    2    1    2    0    0  0.11945302944E+02  0.33816882291E+02  0.24440776086E+02  0.47787270444E+02  0.19999997261E+02 0.  0.
        -12    1    1    2    0    0 -0.11945302944E+02 -0.33816882291E+02 -0.24440776086E+02  0.43400729556E+02  0.00000000000E+00 0.  1.
         11    1    3    3    0    0  0.73767103015E+01  0.15138924421E+02  0.96193374683E+01  0.19394188333E+02  0.51100000000E-03 0. -1.
        -11    1    3    3    0    0 -0.45623821265E+00 -0.13390314234E+01  0.56225279902E+01  0.57977564386E+01  0.51100000000E-03 0.  1.
        -12    1    3    3    0    0  0.50248308551E+01  0.20016989293E+02  0.91989106274E+01  0.22595325672E+02  0.00000000000E+00 0.  1.
</event>
<event>
 7    1  0.7357971E-011  0.4778727E+02  0.7816164E-02  0.1312668E+00
        -11   -1    0    0    0    0  0.00000000000E+00  0.00000000000E+00  0.45593999997E+02  0.45594000000E+02  0.51100000000E-03 0. -1.
         11   -1    0    0    0    0 -0.00000000000E+00 -0.00000000000E+00 -0.45593999997E+02  0.45594000000E+02  0.51100000000E-03 0.  1.
    9900012    2    1    2    0    0 -0.11966838838E+01  0.17070890820E+02  0.39884528793E+02  0.47787274167E+02  0.20000014239E+02 0.  0.
        -12    1    1    2    0    0  0.11966838838E+01 -0.17070890820E+02 -0.39884528793E+02  0.43400725833E+02  0.00000000000E+00 0.  1.
         11    1    3    3    0    0 -0.62081847072E+01 -0.24602779752E+00  0.14156709783E+02  0.15460094411E+02  0.51100000000E-03 0. -1.
        -11    1    3    3    0    0  0.51186894667E+01  0.60084849320E+01  0.13747542402E+02  0.15852375071E+02  0.51100000000E-03 0.  1.
         12    1    3    3    0    0 -0.10718864334E+00  0.11308433686E+02  0.11980276608E+02  0.16474804686E+02  0.00000000000E+00 0. -1.
</event>
<event>
 7    1  0.7357971E-011  0.4778727E+02  0.7816164E-02  0.1312668E+00
        -11   -1    0    0    0    0  0.00000000000E+00  0.00000000000E+00  0.45593999997E+02  0.45594000000E+02  0.51100000000E-03 0.  1.
         11   -1    0    0    0    0 -0.00000000000E+00 -0.00000000000E+00 -0.45593999997E+02  0.45594000000E+02  0.51100000000E-03 0. -1.
    9900012    2    1    2    0    0  0.30194258797E+02 -0.29947942876E+02 -0.86632058568E+01  0.47787266337E+02  0.19999978535E+02 0.  0.
         12    1    1    2    0    0 -0.30194258797E+02  0.29947942876E+02  0.86632058568E+01  0.43400733663E+02  0.00000000000E+00 0. -1.
         11    1    3    3    0    0  0.15497309466E+02 -0.93595003158E+01 -0.11191130732E+02  0.21283990560E+02  0.51100000000E-03 0. -1.
        -11    1    3    3    0    0  0.15012569254E+02 -0.16694645241E+02  0.17500490049E+01  0.22520015256E+02  0.51100000000E-03 0.  1.
        -12    1    3    3    0    0 -0.31561992362E+00 -0.38937973198E+01  0.77787587068E+00  0.39832605205E+01  0.00000000000E+00 0.  1.
</event>
<event>
 7    1  0.7357971E-011  0.4778727E+02  0.7816164E-02  0.1312668E+00
        -11   -1    0    0    0    0  0.00000000000E+00  0.00000000000E+00  0.45593999997E+02  0.45594000000E+02  0.51100000000E-03 0. -1.
         11   -1    0    0    0    0 -0.00000000000E+00 -0.00000000000E+00 -0.45593999997E+02  0.45594000000E+02  0.51100000000E-03 0.  1.
    9900012    2    1    2    0    0 -0.24633912073E+02 -0.11688502201E+02 -0.33766443443E+02  0.47787269471E+02  0.19999992824E+02 0.  0.
         12    1    1    2    0    0  0.24633912073E+02  0.11688502201E+02  0.33766443443E+02  0.43400730529E+02  0.00000000000E+00 0. -1.
         11    1    3    3    0    0 -0.93579421255E+00 -0.25227213846E+01 -0.81167991311E+00  0.28104552185E+01  0.51100000000E-03 0. -1.
        -11    1    3    3    0    0 -0.15007874820E+01 -0.70310304198E+01 -0.13881812142E+02  0.15633056657E+02  0.51100000000E-03 0.  1.
        -12    1    3    3    0    0 -0.22197330378E+02 -0.21347503967E+01 -0.19072951388E+02  0.29343757596E+02  0.00000000000E+00 0.  1.
</event>
<event>
 7    1  0.7357971E-011  0.4778727E+02  0.7816164E-02  0.1312668E+00
        -11   -1    0    0    0    0  0.00000000000E+00  0.00000000000E+00  0.45593999997E+02  0.45594000000E+02  0.51100000000E-03 0. -1.
         11   -1    0    0    0    0 -0.00000000000E+00 -0.00000000000E+00 -0.45593999997E+02  0.45594000000E+02  0.51100000000E-03 0.  1.
    9900012    2    1    2    0    0 -0.70605819920E+01 -0.17299776921E+02 -0.39172558952E+02  0.47787268734E+02  0.19999989465E+02 0.  0.
         12    1    1    2    0    0  0.70605819920E+01  0.17299776921E+02  0.39172558952E+02  0.43400731266E+02  0.00000000000E+00 0. -1.
         11    1    3    3    0    0  0.65091361870E+01 -0.35482553364E+01 -0.70897247581E+01  0.10257834432E+02  0.51100000000E-03 0. -1.
        -11    1    3    3    0    0 -0.64376507337E+01 -0.57137492149E+01 -0.16344375000E+02  0.18472381315E+02  0.51100000000E-03 0.  1.
         12    1    3    3    0    0 -0.71320674453E+01 -0.80377723693E+01 -0.15738459194E+02  0.19057052986E+02  0.00000000000E+00 0. -1.
</event>
<event>
 7    1  0.7357971E-011  0.4778727E+02  0.7816164E-02  0.1312668E+00
        -11   -1    0    0    0    0  0.00000000000E+00  0.00000000000E+00  0.45593999997E+02  0.45594000000E+02  0.51100000000E-03 0. -1.
         11   -1    0    0    0    0 -0.00000000000E+00 -0.00000000000E+00 -0.45593999997E+02  0.45594000000E+02  0.51100000000E-03 0.  1.
    9900012    2    1    2    0    0 -0.22748424333E+02 -0.21074545232E+02  0.30364386240E+02  0.47787271687E+02  0.20000002930E+02 0.  0.
        -12    1    1    2    0    0  0.22748424333E+02  0.21074545232E+02 -0.30364386240E+02  0.43400728313E+02  0.00000000000E+00 0.  1.
         11    1    3    3    0    0 -0.13080920385E+02 -0.11971275965E+02  0.81363420624E+01  0.19509535842E+02  0.51100000000E-03 0. -1.
        -11    1    3    3    0    0  0.14629206287E+01 -0.68685553636E+00  0.86777295155E+01  0.88269415484E+01  0.51100000000E-03 0.  1.
        -12    1    3    3    0    0 -0.11130424576E+02 -0.84164137302E+01  0.13550314662E+02  0.19450794297E+02  0.00000000000E+00 0.  1.
</event>
<event>
 7    1  0.8030866E-011  0.4778727E+02  0.7816164E-02  0.1312668E+00
        -11   -1    0    0    0    0  0.00000000000E+00  0.00000000000E+00  0.45593999997E+02  0.45594000000E+02  0.51100000000E-03 0. -1.
         11   -1    0    0    0    0 -0.00000000000E+00 -0.00000000000E+00 -0.45593999997E+02  0.45594000000E+02  0.51100000000E-03 0.  1.
    9900012    2    1    2    0    0  0.17284801108E+02 -0.24601964001E+02  0.31298601507E+02  0.47787269149E+02  0.19999991359E+02 0.  0.
        -12    1    1    2    0    0 -0.17284801108E+02  0.24601964001E+02 -0.31298601507E+02  0.43400730851E+02  0.00000000000E+00 0.  1.
         11    1    3    3    0    0  0.10899380160E+02 -0.42199190390E+01  0.14269114732E+02  0.18444832340E+02  0.51100000000E-03 0.  1.
        -11    1    3    3    0    0 -0.29977350975E+01 -0.60680961297E+01  0.44168715798E+01  0.80818909401E+01  0.51100000000E-03 0. -1.
         12    1    3    3    0    0  0.93831560457E+01 -0.14313948833E+02  0.12612615195E+02  0.21260545869E+02  0.00000000000E+00 0. -1.
</event>
<event>
 7    1  0.7357971E-011  0.4778727E+02  0.7816164E-02  0.1312668E+00
        -11   -1    0    0    0    0  0.00000000000E+00  0.00000000000E+00  0.45593999997E+02  0.45594000000E+02  0.51100000000E-03 0. -1.
         11   -1    0    0    0    0 -0.00000000000E+00 -0.00000000000E+00 -0.45593999997E+02  0.45594000000E+02  0.51100000000E-03 0.  1.
    9900012    2    1    2    0    0 -0.87459810092E+01  0.10366382714E+02  0.41227043783E+02  0.47787271740E+02  0.20000003172E+02 0.  0.
        -12    1    1    2    0    0  0.87459810092E+01 -0.10366382714E+02 -0.41227043783E+02  0.43400728260E+02  0.00000000000E+00 0.  1.
         11    1    3    3    0    0 -0.44663954935E+00 -0.46249363973E+01  0.59417132562E+01  0.75427766933E+01  0.51100000000E-03 0.  1.
        -11    1    3    3    0    0 -0.65758079223E+01  0.15967460395E+02  0.32783698535E+02  0.37053635870E+02  0.51100000000E-03 0. -1.
         12    1    3    3    0    0 -0.17235335375E+01 -0.97614128430E+00  0.25016319920E+01  0.31908591767E+01  0.00000000000E+00 0. -1.
</event>
<event>
 7    1  0.7357971E-011  0.4778727E+02  0.7816164E-02  0.1312668E+00
        -11   -1    0    0    0    0  0.00000000000E+00  0.00000000000E+00  0.45593999997E+02  0.45594000000E+02  0.51100000000E-03 0. -1.
         11   -1    0    0    0    0 -0.00000000000E+00 -0.00000000000E+00 -0.45593999997E+02  0.45594000000E+02  0.51100000000E-03 0.  1.
    9900012    2    1    2    0    0  0.25028990694E+02  0.27759466499E+02  0.22058666545E+02  0.47787272757E+02  0.20000007808E+02 0.  0.
        -12    1    1    2    0    0 -0.25028990694E+02 -0.27759466499E+02 -0.22058666545E+02  0.43400727243E+02  0.00000000000E+00 0.  1.
         11    1    3    3    0    0  0.16204935784E+02  0.18556564467E+02  0.23748376321E+02  0.34218875006E+02  0.51100000000E-03 0. -1.
        -11    1    3    3    0    0 -0.17834060648E+00 -0.16209886909E+00  0.34390109495E+00  0.41994004275E+00  0.51100000000E-03 0.  1.
         12    1    3    3    0    0  0.90023955171E+01  0.93650009010E+01 -0.20336108707E+01  0.13148457708E+02  0.00000000000E+00 0. -1.
</event>
<event>
 7    1  0.7357971E-011  0.4778727E+02  0.7816164E-02  0.1312668E+00
        -11   -1    0    0    0    0  0.00000000000E+00  0.00000000000E+00  0.45593999997E+02  0.45594000000E+02  0.51100000000E-03 0. -1.
         11   -1    0    0    0    0 -0.00000000000E+00 -0.00000000000E+00 -0.45593999997E+02  0.45594000000E+02  0.51100000000E-03 0.  1.
    9900012    2    1    2    0    0  0.88522240263E+01  0.51574811006E+01 -0.42174183431E+02  0.47787271554E+02  0.20000002325E+02 0.  0.
         12    1    1    2    0    0 -0.88522240263E+01 -0.51574811006E+01  0.42174183431E+02  0.43400728446E+02  0.00000000000E+00 0. -1.
         11    1    3    3    0    0  0.11158181216E+02  0.76728121769E+01 -0.35746965768E+02  0.38225941671E+02  0.51100000000E-03 0. -1.
        -11    1    3    3    0    0 -0.23929157602E+01  0.15089613474E+01 -0.15101474474E+01  0.32067983656E+01  0.51100000000E-03 0.  1.
         12    1    3    3    0    0  0.86958570686E-01 -0.40242924237E+01 -0.49170702162E+01  0.63545315182E+01  0.00000000000E+00 0. -1.
</event>
<event>
 7    1  0.7357971E-011  0.4778727E+02  0.7816164E-02  0.1312668E+00
        -11   -1    0    0    0    0  0.00000000000E+00  0.00000000000E+00  0.45593999997E+02  0.45594000000E+02  0.51100000000E-03 0. -1.
         11   -1    0    0    0    0 -0.00000000000E+00 -0.00000000000E+00 -0.45593999997E+02  0.45594000000E+02  0.51100000000E-03 0.  1.
    9900012    2    1    2    0    0  0.36505460536E+02 -0.80355825995E+01 -0.22054562635E+02  0.47787274549E+02  0.20000015976E+02 0.  0.
         12    1    1    2    0    0 -0.36505460536E+02  0.80355825995E+01  0.22054562635E+02  0.43400725451E+02  0.00000000000E+00 0. -1.
         11    1    3    3    0    0  0.16380700786E+02 -0.10434533130E+02 -0.10901414064E+02  0.22272127620E+02  0.51100000000E-03 0. -1.
        -11    1    3    3    0    0  0.98640448772E+01 -0.24992788603E+01 -0.91811291971E+00  0.10217079218E+02  0.51100000000E-03 0.  1.
         12    1    3    3    0    0  0.10260714873E+02  0.48982293905E+01 -0.10235035651E+02  0.15298067710E+02  0.00000000000E+00 0. -1.
</event>
<event>
 7    1  0.7357971E-011  0.4778729E+02  0.7816164E-02  0.1312668E+00
        -11   -1    0    0    0    0  0.00000000000E+00  0.00000000000E+00  0.45593999997E+02  0.45594000000E+02  0.51100000000E-03 0. -1.
         11   -1    0    0    0    0 -0.00000000000E+00 -0.00000000000E+00 -0.45593999997E+02  0.45594000000E+02  0.51100000000E-03 0.  1.
    9900012    2    1    2    0    0 -0.22047489813E+01  0.11543498910E+02  0.41779280595E+02  0.47787290649E+02  0.20000089383E+02 0.  0.
        -12    1    1    2    0    0  0.22047489813E+01 -0.11543498910E+02 -0.41779280595E+02  0.43400709351E+02  0.00000000000E+00 0.  1.
         11    1    3    3    0    0 -0.91428131136E+00  0.44470210365E+01  0.31071849678E+02  0.31401779394E+02  0.51100000000E-03 0. -1.
        -11    1    3    3    0    0 -0.12565959188E+01  0.95427302838E+01  0.68352813835E+01  0.11805244869E+02  0.51100000000E-03 0.  1.
         12    1    3    3    0    0 -0.33871751143E-01 -0.24462524106E+01  0.38721495332E+01  0.45802663852E+01  0.00000000000E+00 0. -1.
</event>
<event>
 7    1  0.7357971E-011  0.4778727E+02  0.7816164E-02  0.1312668E+00
        -11   -1    0    0    0    0  0.00000000000E+00  0.00000000000E+00  0.45593999997E+02  0.45594000000E+02  0.51100000000E-03 0. -1.
         11   -1    0    0    0    0 -0.00000000000E+00 -0.00000000000E+00 -0.45593999997E+02  0.45594000000E+02  0.51100000000E-03 0.  1.
    9900012    2    1    2    0    0 -0.17575973908E+02 -0.93132156886E+01  0.38574246114E+02  0.47787270645E+02  0.19999998177E+02 0.  0.
        -12    1    1    2    0    0  0.17575973908E+02  0.93132156886E+01 -0.38574246114E+02  0.43400729355E+02  0.00000000000E+00 0.  1.
         11    1    3    3    0    0 -0.43148007137E+01 -0.94775044180E+01  0.22836493607E+02  0.25098725779E+02  0.51100000000E-03 0. -1.
        -11    1    3    3    0    0 -0.11287914526E+02 -0.68675284678E+00  0.61700444365E+01  0.12882472295E+02  0.51100000000E-03 0.  1.
        -12    1    3    3    0    0 -0.19732586684E+01  0.85104157619E+00  0.95677080707E+01  0.98060725708E+01  0.00000000000E+00 0.  1.
</event>
<event>
 7    1  0.7357971E-011  0.4778728E+02  0.7816164E-02  0.1312668E+00
        -11   -1    0    0    0    0  0.00000000000E+00  0.00000000000E+00  0.45593999997E+02  0.45594000000E+02  0.51100000000E-03 0. -1.
         11   -1    0    0    0    0 -0.00000000000E+00 -0.00000000000E+00 -0.45593999997E+02  0.45594000000E+02  0.51100000000E-03 0.  1.
    9900012    2    1    2    0    0  0.30288227276E+02 -0.43820335015E+01 -0.30774079578E+02  0.47787275317E+02  0.20000019478E+02 0.  0.
         12    1    1    2    0    0 -0.30288227276E+02  0.43820335015E+01  0.30774079578E+02  0.43400724683E+02  0.00000000000E+00 0. -1.
         11    1    3    3    0    0  0.39936946719E+01 -0.20984992968E+01  0.19551164093E+01  0.49168869080E+01  0.51100000000E-03 0. -1.
        -11    1    3    3    0    0  0.19563260659E+02  0.61208137289E+00 -0.18840897261E+02  0.27167539842E+02  0.51100000000E-03 0.  1.
         12    1    3    3    0    0  0.67312719459E+01 -0.28956155777E+01 -0.13888298727E+02  0.15702848567E+02  0.00000000000E+00 0. -1.
</event>
<event>
 7    1  0.7357971E-011  0.4778727E+02  0.7816164E-02  0.1312668E+00
        -11   -1    0    0    0    0  0.00000000000E+00  0.00000000000E+00  0.45593999997E+02  0.45594000000E+02  0.51100000000E-03 0. -1.
         11   -1    0    0    0    0 -0.00000000000E+00 -0.00000000000E+00 -0.45593999997E+02  0.45594000000E+02  0.51100000000E-03 0.  1.
    9900012    2    1    2    0    0 -0.34075542046E+02  0.73058051650E+01 -0.25867087449E+02  0.47787267657E+02  0.19999984555E+02 0.  0.
         12    1    1    2    0    0  0.34075542046E+02 -0.73058051650E+01  0.25867087449E+02  0.43400732343E+02  0.00000000000E+00 0. -1.
         11    1    3    3    0    0 -0.24679258964E+02 -0.33341803186E+01 -0.14117976426E+02  0.28626907623E+02  0.51100000000E-03 0. -1.
        -11    1    3    3    0    0 -0.87890133432E+01  0.11208529899E+02 -0.11454174631E+02  0.18277746436E+02  0.51100000000E-03 0.  1.
        -12    1    3    3    0    0 -0.60726973845E+00 -0.56854441555E+00 -0.29493639123E+00  0.88261359754E+00  0.00000000000E+00 0.  1.
</event>
<event>
 7    1  0.7357971E-011  0.4778727E+02  0.7816164E-02  0.1312668E+00
        -11   -1    0    0    0    0  0.00000000000E+00  0.00000000000E+00  0.45593999997E+02  0.45594000000E+02  0.51100000000E-03 0. -1.
         11   -1    0    0    0    0 -0.00000000000E+00 -0.00000000000E+00 -0.45593999997E+02  0.45594000000E+02  0.51100000000E-03 0.  1.
    9900012    2    1    2    0    0 -0.28370534373E+02  0.13644170591E+02  0.29875951826E+02  0.47787272941E+02  0.20000008648E+02 0.  0.
        -12    1    1    2    0    0  0.28370534373E+02 -0.13644170591E+02 -0.29875951826E+02  0.43400727059E+02  0.00000000000E+00 0.  1.
         11    1    3    3    0    0 -0.11842008665E+02  0.90376152933E+01  0.14694090838E+02  0.20924339063E+02  0.51100000000E-03 0. -1.
        -11    1    3    3    0    0 -0.84417870736E+01  0.89705586189E+01  0.54240023274E+01  0.13459364489E+02  0.51100000000E-03 0.  1.
         12    1    3    3    0    0 -0.80867386339E+01 -0.43640033216E+01  0.97578586613E+01  0.13403569389E+02  0.00000000000E+00 0. -1.
</event>
<event>
 7    1  0.7357971E-011  0.4778728E+02  0.7816164E-02  0.1312668E+00
        -11   -1    0    0    0    0  0.00000000000E+00  0.00000000000E+00  0.45593999997E+02  0.45594000000E+02  0.51100000000E-03 0. -1.
         11   -1    0    0    0    0 -0.00000000000E+00 -0.00000000000E+00 -0.45593999997E+02  0.45594000000E+02  0.51100000000E-03 0.  1.
    9900012    2    1    2    0    0 -0.14438716974E+02  0.24759040451E+01 -0.40853591481E+02  0.47787278974E+02  0.20000036153E+02 0.  0.
         12    1    1    2    0    0  0.14438716974E+02 -0.24759040451E+01  0.40853591481E+02  0.43400721026E+02  0.00000000000E+00 0. -1.
         11    1    3    3    0    0 -0.15422578257E+02  0.43206154591E+01 -0.33306589019E+02  0.36957441881E+02  0.51100000000E-03 0. -1.
        -11    1    3    3    0    0 -0.30341980933E+01 -0.54647842148E+00 -0.50716108353E+01  0.59351692024E+01  0.51100000000E-03 0.  1.
         12    1    3    3    0    0  0.40180593759E+01 -0.12982329925E+01 -0.24753916263E+01  0.48946678902E+01  0.00000000000E+00 0. -1.
</event>
<event>
 7    1  0.7357971E-011  0.4778727E+02  0.7816164E-02  0.1312668E+00
        -11   -1    0    0    0    0  0.00000000000E+00  0.00000000000E+00  0.45593999997E+02  0.45594000000E+02  0.51100000000E-03 0.  1.
         11   -1    0    0    0    0 -0.00000000000E+00 -0.00000000000E+00 -0.45593999997E+02  0.45594000000E+02  0.51100000000E-03 0. -1.
    9900012    2    1    2    0    0  0.23626338927E+02 -0.30903025244E+02  0.19246358763E+02  0.47787272058E+02  0.20000004621E+02 0.  0.
         12    1    1    2    0    0 -0.23626338927E+02  0.30903025244E+02 -0.19246358763E+02  0.43400727942E+02  0.00000000000E+00 0. -1.
         11    1    3    3    0    0 -0.31726511625E+01 -0.53557148980E+01  0.10549008340E+01  0.63136529441E+01  0.51100000000E-03 0. -1.
        -11    1    3    3    0    0  0.13940752229E+02 -0.10343099603E+02  0.84730484266E+01  0.19316232345E+02  0.51100000000E-03 0.  1.
         12    1    3    3    0    0  0.12858237860E+02 -0.15204210742E+02  0.97184095021E+01  0.22157386768E+02  0.00000000000E+00 0. -1.
</event>
<event>
 7    1  0.7357971E-011  0.4778727E+02  0.7816164E-02  0.1312668E+00
        -11   -1    0    0    0    0  0.00000000000E+00  0.00000000000E+00  0.45593999997E+02  0.45594000000E+02  0.51100000000E-03 0. -1.
         11   -1    0    0    0    0 -0.00000000000E+00 -0.00000000000E+00 -0.45593999997E+02  0.45594000000E+02  0.51100000000E-03 0.  1.
    9900012    2    1    2    0    0  0.23660725034E+02  0.10576336096E+02 -0.34812854350E+02  0.47787267030E+02  0.19999981696E+02 0.  0.
         12    1    1    2    0    0 -0.23660725034E+02 -0.10576336096E+02  0.34812854350E+02  0.43400732970E+02  0.00000000000E+00 0. -1.
         11    1    3    3    0    0  0.19004655398E+02  0.11407512608E+02 -0.14249043092E+02  0.26350398479E+02  0.51100000000E-03 0. -1.
        -11    1    3    3    0    0  0.48512966169E+01  0.34170768968E+00 -0.16792456139E+02  0.17482517737E+02  0.51100000000E-03 0.  1.
         12    1    3    3    0    0 -0.19522698074E+00 -0.11728842013E+01 -0.37713551187E+01  0.39543508133E+01  0.00000000000E+00 0. -1.
</event>
<event>
 7    1  0.7357971E-011  0.4778727E+02  0.7816164E-02  0.1312668E+00
        -11   -1    0    0    0    0  0.00000000000E+00  0.00000000000E+00  0.45593999997E+02  0.45594000000E+02  0.51100000000E-03 0. -1.
         11   -1    0    0    0    0 -0.00000000000E+00 -0.00000000000E+00 -0.45593999997E+02  0.45594000000E+02  0.51100000000E-03 0.  1.
    9900012    2    1    2    0    0 -0.11455465431E+02  0.13920698621E+02  0.39479233769E+02  0.47787269161E+02  0.19999991414E+02 0.  0.
        -12    1    1    2    0    0  0.11455465431E+02 -0.13920698621E+02 -0.39479233769E+02  0.43400730839E+02  0.00000000000E+00 0.  1.
         11    1    3    3    0    0 -0.92575252827E+00  0.26344387761E+01  0.28213495424E+02  0.28351342292E+02  0.51100000000E-03 0. -1.
        -11    1    3    3    0    0 -0.67713568016E+01  0.94723440995E+01  0.87269226551E+01  0.14551142737E+02  0.51100000000E-03 0.  1.
        -12    1    3    3    0    0 -0.37583561013E+01  0.18139157455E+01  0.25388156894E+01  0.48847841325E+01  0.00000000000E+00 0.  1.
</event>
<event>
 7    1  0.7357971E-011  0.4778727E+02  0.7816164E-02  0.1312668E+00
        -11   -1    0    0    0    0  0.00000000000E+00  0.00000000000E+00  0.45593999997E+02  0.45594000000E+02  0.51100000000E-03 0. -1.
         11   -1    0    0    0    0 -0.00000000000E+00 -0.00000000000E+00 -0.45593999997E+02  0.45594000000E+02  0.51100000000E-03 0.  1.
    9900012    2    1    2    0    0  0.78928944725E+01  0.31372281718E+01 -0.42561529222E+02  0.47787265519E+02  0.19999974808E+02 0.  0.
         12    1    1    2    0    0 -0.78928944725E+01 -0.31372281718E+01  0.42561529222E+02  0.43400734481E+02  0.00000000000E+00 0. -1.
         11    1    3    3    0    0  0.34069986469E+01 -0.36253376825E+01 -0.15833525641E+01  0.52208925191E+01  0.51100000000E-03 0. -1.
        -11    1    3    3    0    0  0.18383787459E+01  0.78552538255E+01 -0.23287224470E+02  0.24645069950E+02  0.51100000000E-03 0.  1.
         12    1    3    3    0    0  0.26475170797E+01 -0.10926879713E+01 -0.17690952188E+02  0.17921303050E+02  0.00000000000E+00 0. -1.
</event>
<event>
 7    1  0.7357971E-011  0.4778727E+02  0.7816164E-02  0.1312668E+00
        -11   -1    0    0    0    0  0.00000000000E+00  0.00000000000E+00  0.45593999997E+02  0.45594000000E+02  0.51100000000E-03 0. -1.
         11   -1    0    0    0    0 -0.00000000000E+00 -0.00000000000E+00 -0.45593999997E+02  0.45594000000E+02  0.51100000000E-03 0.  1.
    9900012    2    1    2    0    0  0.23385557983E+02 -0.13302815851E+02 -0.34055457280E+02  0.47787269565E+02  0.19999993255E+02 0.  0.
         12    1    1    2    0    0 -0.23385557983E+02  0.13302815851E+02  0.34055457280E+02  0.43400730435E+02  0.00000000000E+00 0. -1.
         11    1    3    3    0    0  0.19677718268E+02 -0.14871568483E+01 -0.26839675034E+02  0.33313546612E+02  0.51100000000E-03 0. -1.
        -11    1    3    3    0    0  0.68027652113E+00 -0.21451347900E+01 -0.22750497856E+01  0.32000361249E+01  0.51100000000E-03 0.  1.
         12    1    3    3    0    0  0.30275631941E+01 -0.96705242130E+01 -0.49407324607E+01  0.11273686828E+02  0.00000000000E+00 0. -1.
</event>
<event>
 7    1  0.7357971E-011  0.4778727E+02  0.7816164E-02  0.1312668E+00
        -11   -1    0    0    0    0  0.00000000000E+00  0.00000000000E+00  0.45593999997E+02  0.45594000000E+02  0.51100000000E-03 0. -1.
         11   -1    0    0    0    0 -0.00000000000E+00 -0.00000000000E+00 -0.45593999997E+02  0.45594000000E+02  0.51100000000E-03 0.  1.
    9900012    2    1    2    0    0 -0.27519022265E+02  0.19109227457E+02  0.27589205145E+02  0.47787269580E+02  0.19999993324E+02 0.  0.
        -12    1    1    2    0    0  0.27519022265E+02 -0.19109227457E+02 -0.27589205145E+02  0.43400730420E+02  0.00000000000E+00 0.  1.
         11    1    3    3    0    0 -0.20070256207E+02  0.20573801308E+02  0.26021945192E+02  0.38771614827E+02  0.51100000000E-03 0. -1.
        -11    1    3    3    0    0 -0.76211842770E+01 -0.30707873307E+00  0.93203844425E+00  0.76841032694E+01  0.51100000000E-03 0.  1.
         12    1    3    3    0    0  0.17241821865E+00 -0.11574951174E+01  0.63522150851E+00  0.13315514837E+01  0.00000000000E+00 0. -1.
</event>
<event>
 7    1  0.7357971E-011  0.4778727E+02  0.7816164E-02  0.1312668E+00
        -11   -1    0    0    0    0  0.00000000000E+00  0.00000000000E+00  0.45593999997E+02  0.45594000000E+02  0.51100000000E-03 0. -1.
         11   -1    0    0    0    0 -0.00000000000E+00 -0.00000000000E+00 -0.45593999997E+02  0.45594000000E+02  0.51100000000E-03 0.  1.
    9900012    2    1    2    0    0 -0.20698148742E+02 -0.32507285851E+02 -0.19962120020E+02  0.47787271545E+02  0.20000002280E+02 0.  0.
         12    1    1    2    0    0  0.20698148742E+02  0.32507285851E+02  0.19962120020E+02  0.43400728455E+02  0.00000000000E+00 0. -1.
         11    1    3    3    0    0 -0.65836263219E+01 -0.10985115985E+02  0.20181880496E+01  0.12964952449E+02  0.51100000000E-03 0. -1.
        -11    1    3    3    0    0 -0.54598217483E+01 -0.15353213973E+02 -0.11938153320E+02  0.20200255884E+02  0.51100000000E-03 0.  1.
         12    1    3    3    0    0 -0.86547006722E+01 -0.61689558930E+01 -0.10042154750E+02  0.14622063211E+02  0.00000000000E+00 0. -1.
</event>
<event>
 7    1  0.7357971E-011  0.4778727E+02  0.7816164E-02  0.1312668E+00
        -11   -1    0    0    0    0  0.00000000000E+00  0.00000000000E+00  0.45593999997E+02  0.45594000000E+02  0.51100000000E-03 0. -1.
         11   -1    0    0    0    0 -0.00000000000E+00 -0.00000000000E+00 -0.45593999997E+02  0.45594000000E+02  0.51100000000E-03 0.  1.
    9900012    2    1    2    0    0 -0.13930424119E+02  0.35032555592E+02  0.21500854163E+02  0.47787269624E+02  0.19999993523E+02 0.  0.
        -12    1    1    2    0    0  0.13930424119E+02 -0.35032555592E+02 -0.21500854163E+02  0.43400730376E+02  0.00000000000E+00 0.  1.
         11    1    3    3    0    0 -0.48010741814E+01  0.78023170375E+01  0.35019147557E+01  0.98076435327E+01  0.51100000000E-03 0. -1.
        -11    1    3    3    0    0  0.27646245787E+01  0.17109081188E+02  0.62016349065E+01  0.18407174795E+02  0.51100000000E-03 0.  1.
        -12    1    3    3    0    0 -0.11893974517E+02  0.10121157366E+02  0.11797304501E+02  0.19572451296E+02  0.00000000000E+00 0.  1.
</event>
<event>
 7    1  0.7357971E-011  0.4778726E+02  0.7816164E-02  0.1312668E+00
        -11   -1    0    0    0    0  0.00000000000E+00  0.00000000000E+00  0.45593999997E+02  0.45594000000E+02  0.51100000000E-03 0. -1.
         11   -1    0    0    0    0 -0.00000000000E+00 -0.00000000000E+00 -0.45593999997E+02  0.45594000000E+02  0.51100000000E-03 0.  1.
    9900012    2    1    2    0    0 -0.13108199259E+02  0.11372378169E+02 -0.39780246131E+02  0.47787264346E+02  0.19999969460E+02 0.  0.
         12    1    1    2    0    0  0.13108199259E+02 -0.11372378169E+02  0.39780246131E+02  0.43400735654E+02  0.00000000000E+00 0. -1.
         11    1    3    3    0    0  0.80772968599E+00  0.77045110407E+01 -0.62100469109E+01  0.99285749491E+01  0.51100000000E-03 0. -1.
        -11    1    3    3    0    0 -0.66874444499E+01  0.35236391705E+01 -0.27173332308E+02  0.28205104773E+02  0.51100000000E-03 0.  1.
        -12    1    3    3    0    0 -0.72284844948E+01  0.14422795756E+00 -0.63968669125E+01  0.96535846239E+01  0.00000000000E+00 0.  1.
</event>
<event>
 7    1  0.7357971E-011  0.4778727E+02  0.7816164E-02  0.1312668E+00
        -11   -1    0    0    0    0  0.00000000000E+00  0.00000000000E+00  0.45593999997E+02  0.45594000000E+02  0.51100000000E-03 0. -1.
         11   -1    0    0    0    0 -0.00000000000E+00 -0.00000000000E+00 -0.45593999997E+02  0.45594000000E+02  0.51100000000E-03 0.  1.
    9900012    2    1    2    0    0 -0.25244879445E+02 -0.11160885790E+02 -0.33492594330E+02  0.47787272072E+02  0.20000004683E+02 0.  0.
         12    1    1    2    0    0  0.25244879445E+02  0.11160885790E+02  0.33492594330E+02  0.43400727928E+02  0.00000000000E+00 0. -1.
         11    1    3    3    0    0 -0.83653760039E+01 -0.91168347889E-01 -0.47650011797E+01  0.96277237111E+01  0.51100000000E-03 0. -1.
        -11    1    3    3    0    0 -0.12854341001E+02 -0.16935051145E+01 -0.23143545941E+02  0.26527829936E+02  0.51100000000E-03 0.  1.
        -12    1    3    3    0    0 -0.40251624403E+01 -0.93762123273E+01 -0.55840472092E+01  0.11631718425E+02  0.00000000000E+00 0.  1.
</event>
<event>
 7    1  0.7357971E-011  0.4778729E+02  0.7816164E-02  0.1312668E+00
        -11   -1    0    0    0    0  0.00000000000E+00  0.00000000000E+00  0.45593999997E+02  0.45594000000E+02  0.51100000000E-03 0. -1.
         11   -1    0    0    0    0 -0.00000000000E+00 -0.00000000000E+00 -0.45593999997E+02  0.45594000000E+02  0.51100000000E-03 0.  1.
    9900012    2    1    2    0    0  0.24058326357E+02 -0.27108632482E+01  0.36020408366E+02  0.47787289574E+02  0.20000084483E+02 0.  0.
        -12    1    1    2    0    0 -0.24058326357E+02  0.27108632482E+01 -0.36020408366E+02  0.43400710426E+02  0.00000000000E+00 0.  1.
         11    1    3    3    0    0  0.10445136799E+02 -0.71943869734E+01  0.18251861175E+02  0.22225897581E+02  0.51100000000E-03 0. -1.
        -11    1    3    3    0    0  0.57545886554E+01  0.11894469892E+01  0.23258965495E-01  0.58762756890E+01  0.51100000000E-03 0.  1.
        -12    1    3    3    0    0  0.78586009027E+01  0.32940767360E+01  0.17745288225E+02  0.19685116304E+02  0.00000000000E+00 0.  1.
</event>
<event>
 7    1  0.7357971E-011  0.4778727E+02  0.7816164E-02  0.1312668E+00
        -11   -1    0    0    0    0  0.00000000000E+00  0.00000000000E+00  0.45593999997E+02  0.45594000000E+02  0.51100000000E-03 0. -1.
         11   -1    0    0    0    0 -0.00000000000E+00 -0.00000000000E+00 -0.45593999997E+02  0.45594000000E+02  0.51100000000E-03 0.  1.
    9900012    2    1    2    0    0  0.11556785278E+02 -0.14848917225E+02  0.39109770149E+02  0.47787265561E+02  0.19999975000E+02 0.  0.
        -12    1    1    2    0    0 -0.11556785278E+02  0.14848917225E+02 -0.39109770149E+02  0.43400734439E+02  0.00000000000E+00 0.  1.
         11    1    3    3    0    0  0.11239937531E+01 -0.26668790982E+01  0.19245154046E+02  0.19461540550E+02  0.51100000000E-03 0. -1.
        -11    1    3    3    0    0  0.11851577469E+02 -0.10702972024E+02  0.11410815015E+02  0.19627027239E+02  0.51100000000E-03 0.  1.
        -12    1    3    3    0    0 -0.14187859444E+01 -0.14790661022E+01  0.84538010884E+01  0.86986977723E+01  0.00000000000E+00 0.  1.
</event>
<event>
 7    1  0.7357971E-011  0.4778727E+02  0.7816164E-02  0.1312668E+00
        -11   -1    0    0    0    0  0.00000000000E+00  0.00000000000E+00  0.45593999997E+02  0.45594000000E+02  0.51100000000E-03 0.  1.
         11   -1    0    0    0    0 -0.00000000000E+00 -0.00000000000E+00 -0.45593999997E+02  0.45594000000E+02  0.51100000000E-03 0. -1.
    9900012    2    1    2    0    0 -0.38789817346E+02 -0.61358735130E+01  0.18474972471E+02  0.47787268655E+02  0.19999989105E+02 0.  0.
        -12    1    1    2    0    0  0.38789817346E+02  0.61358735130E+01 -0.18474972471E+02  0.43400731345E+02  0.00000000000E+00 0.  1.
         11    1    3    3    0    0 -0.71044639763E+01 -0.68206609185E+01  0.40213398294E+01  0.10637950838E+02  0.51100000000E-03 0. -1.
        -11    1    3    3    0    0 -0.14792017596E+02  0.24555286365E+01  0.23258794846E+00  0.14996249627E+02  0.51100000000E-03 0.  1.
        -12    1    3    3    0    0 -0.16893335773E+02 -0.17707412310E+01  0.14221044693E+02  0.22153068190E+02  0.00000000000E+00 0.  1.
</event>
<event>
 7    1  0.7357971E-011  0.4778727E+02  0.7816164E-02  0.1312668E+00
        -11   -1    0    0    0    0  0.00000000000E+00  0.00000000000E+00  0.45593999997E+02  0.45594000000E+02  0.51100000000E-03 0. -1.
         11   -1    0    0    0    0 -0.00000000000E+00 -0.00000000000E+00 -0.45593999997E+02  0.45594000000E+02  0.51100000000E-03 0.  1.
    9900012    2    1    2    0    0 -0.19513526964E+02 -0.44412079358E+01 -0.38511314421E+02  0.47787269581E+02  0.19999993327E+02 0.  0.
         12    1    1    2    0    0  0.19513526964E+02  0.44412079358E+01  0.38511314421E+02  0.43400730419E+02  0.00000000000E+00 0. -1.
         11    1    3    3    0    0  0.64657861865E+00  0.37537516195E+01 -0.35582403618E+01  0.52124648550E+01  0.51100000000E-03 0. -1.
        -11    1    3    3    0    0 -0.50520422074E+01  0.13568534384E+01 -0.31877340055E+01  0.61258330103E+01  0.51100000000E-03 0.  1.
         12    1    3    3    0    0 -0.15108063375E+02 -0.95518129938E+01 -0.31765340053E+02  0.36448971716E+02  0.00000000000E+00 0. -1.
</event>
<event>
 7    1  0.7357971E-011  0.4778727E+02  0.7816164E-02  0.1312668E+00
        -11   -1    0    0    0    0  0.00000000000E+00  0.00000000000E+00  0.45593999997E+02  0.45594000000E+02  0.51100000000E-03 0. -1.
         11   -1    0    0    0    0 -0.00000000000E+00 -0.00000000000E+00 -0.45593999997E+02  0.45594000000E+02  0.51100000000E-03 0.  1.
    9900012    2    1    2    0    0  0.63182640338E+01  0.16595993258E+02 -0.39601467526E+02  0.47787266333E+02  0.19999978519E+02 0.  0.
         12    1    1    2    0    0 -0.63182640338E+01 -0.16595993258E+02  0.39601467526E+02  0.43400733667E+02  0.00000000000E+00 0. -1.
         11    1    3    3    0    0 -0.93372254771E+00  0.15631020211E+02 -0.13919467706E+02  0.20951186413E+02  0.51100000000E-03 0. -1.
        -11    1    3    3    0    0  0.50322656667E+01  0.18589452355E+01 -0.18768962558E+02  0.19520587360E+02  0.51100000000E-03 0.  1.
         12    1    3    3    0    0  0.22197209148E+01 -0.89397218798E+00 -0.69130372619E+01  0.73154925601E+01  0.00000000000E+00 0. -1.
</event>
<event>
 7    1  0.7357971E-011  0.4778727E+02  0.7816164E-02  0.1312668E+00
        -11   -1    0    0    0    0  0.00000000000E+00  0.00000000000E+00  0.45593999997E+02  0.45594000000E+02  0.51100000000E-03 0. -1.
         11   -1    0    0    0    0 -0.00000000000E+00 -0.00000000000E+00 -0.45593999997E+02  0.45594000000E+02  0.51100000000E-03 0.  1.
    9900012    2    1    2    0    0 -0.10469948123E+02  0.27882971362E+02 -0.31568074565E+02  0.47787271465E+02  0.20000001917E+02 0.  0.
         12    1    1    2    0    0  0.10469948123E+02 -0.27882971362E+02  0.31568074565E+02  0.43400728535E+02  0.00000000000E+00 0. -1.
         11    1    3    3    0    0 -0.54000510064E+01  0.25938144390E+01 -0.10480929727E+02  0.12072212408E+02  0.51100000000E-03 0. -1.
        -11    1    3    3    0    0 -0.34646289085E+01  0.19161672455E+02 -0.77646289104E+01  0.20963368220E+02  0.51100000000E-03 0.  1.
        -12    1    3    3    0    0 -0.16052682076E+01  0.61274844683E+01 -0.13322515927E+02  0.14751690837E+02  0.00000000000E+00 0.  1.
</event>
<event>
 7    1  0.7357971E-011  0.4778727E+02  0.7816164E-02  0.1312668E+00
        -11   -1    0    0    0    0  0.00000000000E+00  0.00000000000E+00  0.45593999997E+02  0.45594000000E+02  0.51100000000E-03 0. -1.
         11   -1    0    0    0    0 -0.00000000000E+00 -0.00000000000E+00 -0.45593999997E+02  0.45594000000E+02  0.51100000000E-03 0.  1.
    9900012    2    1    2    0    0 -0.53422619075E+00 -0.15431671575E+02  0.40561083093E+02  0.47787270203E+02  0.19999996162E+02 0.  0.
        -12    1    1    2    0    0  0.53422619075E+00  0.15431671575E+02 -0.40561083093E+02  0.43400729797E+02  0.00000000000E+00 0.  1.
         11    1    3    3    0    0  0.71572831755E+01 -0.94771772720E+01  0.11236826835E+02  0.16349613729E+02  0.51100000000E-03 0.  1.
        -11    1    3    3    0    0  0.18965596408E+00 -0.18218104040E+01  0.20536365316E+01  0.27517968308E+01  0.51100000000E-03 0. -1.
         12    1    3    3    0    0 -0.78811653304E+01 -0.41326838991E+01  0.27270619727E+02  0.28685859643E+02  0.00000000000E+00 0. -1.
</event>
<event>
 7    1  0.7357971E-011  0.4778727E+02  0.7816164E-02  0.1312668E+00
        -11   -1    0    0    0    0  0.00000000000E+00  0.00000000000E+00  0.45593999997E+02  0.45594000000E+02  0.51100000000E-03 0. -1.
         11   -1    0    0    0    0 -0.00000000000E+00 -0.00000000000E+00 -0.45593999997E+02  0.45594000000E+02  0.51100000000E-03 0.  1.
    9900012    2    1    2    0    0  0.19296844644E+02 -0.87681306358E+00  0.38864974980E+02  0.47787270806E+02  0.19999998913E+02 0.  0.
        -12    1    1    2    0    0 -0.19296844644E+02  0.87681306358E+00 -0.38864974980E+02  0.43400729194E+02  0.00000000000E+00 0.  1.
         11    1    3    3    0    0  0.11012189990E+02 -0.11965526707E+01  0.35490906702E+02  0.37179356173E+02  0.51100000000E-03 0. -1.
        -11    1    3    3    0    0  0.49195192618E+01 -0.14742725384E+01 -0.51462899081E+00  0.51613944379E+01  0.51100000000E-03 0.  1.
        -12    1    3    3    0    0  0.33651353919E+01  0.17940121455E+01  0.38886972695E+01  0.54465201953E+01  0.00000000000E+00 0.  1.
</event>
<event>
 7    1  0.7357971E-011  0.4778726E+02  0.7816164E-02  0.1312668E+00
        -11   -1    0    0    0    0  0.00000000000E+00  0.00000000000E+00  0.45593999997E+02  0.45594000000E+02  0.51100000000E-03 0. -1.
         11   -1    0    0    0    0 -0.00000000000E+00 -0.00000000000E+00 -0.45593999997E+02  0.45594000000E+02  0.51100000000E-03 0.  1.
    9900012    2    1    2    0    0 -0.66715975290E+01  0.25423192516E+01  0.42809465925E+02  0.47787262983E+02  0.19999963246E+02 0.  0.
        -12    1    1    2    0    0  0.66715975290E+01 -0.25423192516E+01 -0.42809465925E+02  0.43400737017E+02  0.00000000000E+00 0.  1.
         11    1    3    3    0    0 -0.59230363700E+01  0.39953961889E+01  0.22189391826E+02  0.23311256088E+02  0.51100000000E-03 0. -1.
        -11    1    3    3    0    0  0.50731941677E+01  0.13919294352E+01  0.39130654352E+01  0.65564356153E+01  0.51100000000E-03 0.  1.
        -12    1    3    3    0    0 -0.58217553267E+01 -0.28450063726E+01  0.16707008665E+02  0.17919571280E+02  0.00000000000E+00 0.  1.
</event>
<event>
 7    1  0.7357971E-011  0.4778728E+02  0.7816164E-02  0.1312668E+00
        -11   -1    0    0    0    0  0.00000000000E+00  0.00000000000E+00  0.45593999997E+02  0.45594000000E+02  0.51100000000E-03 0. -1.
         11   -1    0    0    0    0 -0.00000000000E+00 -0.00000000000E+00 -0.45593999997E+02  0.45594000000E+02  0.51100000000E-03 0.  1.
    9900012    2    1    2    0    0 -0.30535306602E+02  0.21626209657E+01 -0.30765901731E+02  0.47787278945E+02  0.20000036023E+02 0.  0.
         12    1    1    2    0    0  0.30535306602E+02 -0.21626209657E+01  0.30765901731E+02  0.43400721055E+02  0.00000000000E+00 0. -1.
         11    1    3    3    0    0 -0.74155184296E+00 -0.38789903322E+01 -0.13020465499E+01  0.41583398865E+01  0.51100000000E-03 0. -1.
        -11    1    3    3    0    0 -0.27551738961E+02  0.69690125943E+01 -0.29800657280E+02  0.41179419992E+02  0.51100000000E-03 0.  1.
        -12    1    3    3    0    0 -0.22420157983E+01 -0.92740129640E+00  0.33680209855E+00  0.24495190667E+01  0.00000000000E+00 0.  1.
</event>
<event>
 7    1  0.7357971E-011  0.4778727E+02  0.7816164E-02  0.1312668E+00
        -11   -1    0    0    0    0  0.00000000000E+00  0.00000000000E+00  0.45593999997E+02  0.45594000000E+02  0.51100000000E-03 0. -1.
         11   -1    0    0    0    0 -0.00000000000E+00 -0.00000000000E+00 -0.45593999997E+02  0.45594000000E+02  0.51100000000E-03 0.  1.
    9900012    2    1    2    0    0  0.21316335076E+02 -0.24167038242E+00 -0.37804479919E+02  0.47787271347E+02  0.20000001379E+02 0.  0.
         12    1    1    2    0    0 -0.21316335076E+02  0.24167038242E+00  0.37804479919E+02  0.43400728653E+02  0.00000000000E+00 0. -1.
         11    1    3    3    0    0 -0.97400010457E+00 -0.67410542626E+00  0.63986574779E+00  0.13462996567E+01  0.51100000000E-03 0. -1.
        -11    1    3    3    0    0  0.13444411184E+02  0.46463415147E+01 -0.31090305958E+02  0.34189878712E+02  0.51100000000E-03 0.  1.
        -12    1    3    3    0    0  0.88459239974E+01 -0.42139064709E+01 -0.73540397093E+01  0.12251092978E+02  0.00000000000E+00 0.  1.
</event>
<event>
 7    1  0.7357971E-011  0.4778727E+02  0.7816164E-02  0.1312668E+00
        -11   -1    0    0    0    0  0.00000000000E+00  0.00000000000E+00  0.45593999997E+02  0.45594000000E+02  0.51100000000E-03 0. -1.
         11   -1    0    0    0    0 -0.00000000000E+00 -0.00000000000E+00 -0.45593999997E+02  0.45594000000E+02  0.51100000000E-03 0.  1.
    9900012    2    1    2    0    0 -0.32240316112E+02  0.10279585424E+02  0.27175648120E+02  0.47787266018E+02  0.19999977080E+02 0.  0.
        -12    1    1    2    0    0  0.32240316112E+02 -0.10279585424E+02 -0.27175648120E+02  0.43400733982E+02  0.00000000000E+00 0.  1.
         11    1    3    3    0    0 -0.15339737623E+02  0.19159768750E+01  0.10618015466E+02  0.18754220070E+02  0.51100000000E-03 0. -1.
        -11    1    3    3    0    0 -0.91732743203E+01  0.64766453335E+01  0.17735934589E+02  0.20991885874E+02  0.51100000000E-03 0.  1.
        -12    1    3    3    0    0 -0.77273041680E+01  0.18869632152E+01 -0.11783019347E+01  0.80411600736E+01  0.00000000000E+00 0.  1.
</event>
<event>
 7    1  0.7357971E-011  0.4778727E+02  0.7816164E-02  0.1312668E+00
        -11   -1    0    0    0    0  0.00000000000E+00  0.00000000000E+00  0.45593999997E+02  0.45594000000E+02  0.51100000000E-03 0.  1.
         11   -1    0    0    0    0 -0.00000000000E+00 -0.00000000000E+00 -0.45593999997E+02  0.45594000000E+02  0.51100000000E-03 0. -1.
    9900012    2    1    2    0    0 -0.37169667562E+02  0.12827185065E+02  0.18371236906E+02  0.47787271794E+02  0.20000003418E+02 0.  0.
        -12    1    1    2    0    0  0.37169667562E+02 -0.12827185065E+02 -0.18371236906E+02  0.43400728206E+02  0.00000000000E+00 0.  1.
         11    1    3    3    0    0 -0.10507008992E+02 -0.25204317774E+01  0.70864355889E+00  0.10828295815E+02  0.51100000000E-03 0. -1.
        -11    1    3    3    0    0 -0.88215932424E+01  0.98421803749E+01  0.10793691897E+02  0.17064372443E+02  0.51100000000E-03 0.  1.
         12    1    3    3    0    0 -0.17841065327E+02  0.55054364675E+01  0.68689014507E+01  0.19894603536E+02  0.00000000000E+00 0. -1.
</event>
<event>
 7    1  0.7357971E-011  0.4778727E+02  0.7816164E-02  0.1312668E+00
        -11   -1    0    0    0    0  0.00000000000E+00  0.00000000000E+00  0.45593999997E+02  0.45594000000E+02  0.51100000000E-03 0. -1.
         11   -1    0    0    0    0 -0.00000000000E+00 -0.00000000000E+00 -0.45593999997E+02  0.45594000000E+02  0.51100000000E-03 0.  1.
    9900012    2    1    2    0    0 -0.31570856322E+02 -0.11186317687E+02  0.27600195770E+02  0.47787268683E+02  0.19999989235E+02 0.  0.
        -12    1    1    2    0    0  0.31570856322E+02  0.11186317687E+02 -0.27600195770E+02  0.43400731317E+02  0.00000000000E+00 0.  1.
         11    1    3    3    0    0 -0.10993750512E+02 -0.13370821112E+02  0.92478075502E+01  0.19625579030E+02  0.51100000000E-03 0. -1.
        -11    1    3    3    0    0 -0.10126289217E+02  0.34758534286E+01  0.10766105524E+02  0.15183290775E+02  0.51100000000E-03 0.  1.
        -12    1    3    3    0    0 -0.10450816593E+02 -0.12913500040E+01  0.75862826955E+01  0.12978398878E+02  0.00000000000E+00 0.  1.
</event>
<event>
 7    1  0.7357971E-011  0.4778727E+02  0.7816164E-02  0.1312668E+00
        -11   -1    0    0    0    0  0.00000000000E+00  0.00000000000E+00  0.45593999997E+02  0.45594000000E+02  0.51100000000E-03 0. -1.
         11   -1    0    0    0    0 -0.00000000000E+00 -0.00000000000E+00 -0.45593999997E+02  0.45594000000E+02  0.51100000000E-03 0.  1.
    9900012    2    1    2    0    0  0.25588334792E+02 -0.21453656751E+02  0.27723659392E+02  0.47787267800E+02  0.19999985209E+02 0.  0.
        -12    1    1    2    0    0 -0.25588334792E+02  0.21453656751E+02 -0.27723659392E+02  0.43400732200E+02  0.00000000000E+00 0.  1.
         11    1    3    3    0    0  0.14759924059E+02 -0.42534453791E+01  0.11360789798E+02  0.19105357911E+02  0.51100000000E-03 0. -1.
        -11    1    3    3    0    0  0.64315795914E+01 -0.12052255879E+02  0.34312083722E+01  0.14085285903E+02  0.51100000000E-03 0.  1.
        -12    1    3    3    0    0  0.43968311411E+01 -0.51479554928E+01  0.12931661222E+02  0.14596623986E+02  0.00000000000E+00 0.  1.
</event>
<event>
 7    1  0.9575084E-011  0.4778727E+02  0.7816164E-02  0.1312668E+00
        -11   -1    0    0    0    0  0.00000000000E+00  0.00000000000E+00  0.45593999997E+02  0.45594000000E+02  0.51100000000E-03 0. -1.
         11   -1    0    0    0    0 -0.00000000000E+00 -0.00000000000E+00 -0.45593999997E+02  0.45594000000E+02  0.51100000000E-03 0.  1.
    9900012    2    1    2    0    0 -0.29717244880E+01 -0.18165850062E+02 -0.39303871576E+02  0.47787267567E+02  0.19999984143E+02 0.  0.
         12    1    1    2    0    0  0.29717244880E+01  0.18165850062E+02  0.39303871576E+02  0.43400732433E+02  0.00000000000E+00 0. -1.
         11    1    3    3    0    0  0.33362721339E+01 -0.12877009701E+01 -0.21267544942E+01  0.41607656122E+01  0.51100000000E-03 0. -1.
        -11    1    3    3    0    0 -0.68449748291E+01 -0.16638337126E+02 -0.21919615722E+02  0.28357670856E+02  0.51100000000E-03 0.  1.
        -12    1    3    3    0    0  0.53697820719E+00 -0.23981196631E+00 -0.15257501360E+02  0.15268831099E+02  0.00000000000E+00 0.  1.
</event>
<event>
 7    1  0.7357971E-011  0.4778727E+02  0.7816164E-02  0.1312668E+00
        -11   -1    0    0    0    0  0.00000000000E+00  0.00000000000E+00  0.45593999997E+02  0.45594000000E+02  0.51100000000E-03 0. -1.
         11   -1    0    0    0    0 -0.00000000000E+00 -0.00000000000E+00 -0.45593999997E+02  0.45594000000E+02  0.51100000000E-03 0.  1.
    9900012    2    1    2    0    0 -0.14439513861E+02 -0.22229211577E+02 -0.34365473196E+02  0.47787272403E+02  0.20000006196E+02 0.  0.
         12    1    1    2    0    0  0.14439513861E+02  0.22229211577E+02  0.34365473196E+02  0.43400727597E+02  0.00000000000E+00 0. -1.
         11    1    3    3    0    0  0.94712716429E+00 -0.26246306929E+01 -0.94642730786E+00  0.29464319184E+01  0.51100000000E-03 0. -1.
        -11    1    3    3    0    0 -0.74127942611E+01 -0.18871740757E+02 -0.29824165554E+02  0.36063457532E+02  0.51100000000E-03 0.  1.
        -12    1    3    3    0    0 -0.79738467645E+01 -0.73284012729E+00 -0.35948803348E+01  0.87773829527E+01  0.00000000000E+00 0.  1.
</event>
<event>
 7    1  0.7357971E-011  0.4778727E+02  0.7816164E-02  0.1312668E+00
        -11   -1    0    0    0    0  0.00000000000E+00  0.00000000000E+00  0.45593999997E+02  0.45594000000E+02  0.51100000000E-03 0. -1.
         11   -1    0    0    0    0 -0.00000000000E+00 -0.00000000000E+00 -0.45593999997E+02  0.45594000000E+02  0.51100000000E-03 0.  1.
    9900012    2    1    2    0    0  0.18551858876E+02  0.23825572910E+02 -0.31173611416E+02  0.47787269119E+02  0.19999991222E+02 0.  0.
         12    1    1    2    0    0 -0.18551858876E+02 -0.23825572910E+02  0.31173611416E+02  0.43400730881E+02  0.00000000000E+00 0. -1.
         11    1    3    3    0    0  0.10126688215E+02  0.17885627130E+02 -0.25933631455E+02  0.33090764765E+02  0.51100000000E-03 0. -1.
        -11    1    3    3    0    0  0.35772081154E+01 -0.20330703720E+01 -0.30224971514E+01  0.51054169594E+01  0.51100000000E-03 0.  1.
         12    1    3    3    0    0  0.48479625463E+01  0.79730161516E+01 -0.22174828101E+01  0.95910873949E+01  0.00000000000E+00 0. -1.
</event>
<event>
 7    1  0.7357971E-011  0.4778727E+02  0.7816164E-02  0.1312668E+00
        -11   -1    0    0    0    0  0.00000000000E+00  0.00000000000E+00  0.45593999997E+02  0.45594000000E+02  0.51100000000E-03 0. -1.
         11   -1    0    0    0    0 -0.00000000000E+00 -0.00000000000E+00 -0.45593999997E+02  0.45594000000E+02  0.51100000000E-03 0.  1.
    9900012    2    1    2    0    0 -0.25067772179E+02 -0.10925398010E+02 -0.33702608161E+02  0.47787270506E+02  0.19999997546E+02 0.  0.
         12    1    1    2    0    0  0.25067772179E+02  0.10925398010E+02  0.33702608161E+02  0.43400729494E+02  0.00000000000E+00 0. -1.
         11    1    3    3    0    0 -0.19804413760E+02 -0.11940029385E+02 -0.20207599752E+02  0.30710359719E+02  0.51100000000E-03 0. -1.
        -11    1    3    3    0    0 -0.49236566182E+01  0.44624567819E+01 -0.10829469731E+02  0.12705641658E+02  0.51100000000E-03 0.  1.
         12    1    3    3    0    0 -0.33970180126E+00 -0.34478254072E+01 -0.26655386776E+01  0.43712691285E+01  0.00000000000E+00 0. -1.
</event>
<event>
 7    1  0.7357971E-011  0.4778727E+02  0.7816164E-02  0.1312668E+00
        -11   -1    0    0    0    0  0.00000000000E+00  0.00000000000E+00  0.45593999997E+02  0.45594000000E+02  0.51100000000E-03 0. -1.
         11   -1    0    0    0    0 -0.00000000000E+00 -0.00000000000E+00 -0.45593999997E+02  0.45594000000E+02  0.51100000000E-03 0.  1.
    9900012    2    1    2    0    0 -0.54636056524E+01  0.24558892652E+02  0.35364295890E+02  0.47787267071E+02  0.19999981882E+02 0.  0.
        -12    1    1    2    0    0  0.54636056524E+01 -0.24558892652E+02 -0.35364295890E+02  0.43400732929E+02  0.00000000000E+00 0.  1.
         11    1    3    3    0    0 -0.34715425346E+01  0.19204824743E+02  0.20333432035E+02  0.28183778305E+02  0.51100000000E-03 0. -1.
        -11    1    3    3    0    0 -0.42006266114E+01 -0.13519593659E+01  0.21367814020E+01  0.49029473867E+01  0.51100000000E-03 0.  1.
         12    1    3    3    0    0  0.22085634936E+01  0.67060272747E+01  0.12894082453E+02  0.14700541379E+02  0.00000000000E+00 0. -1.
</event>
<event>
 7    1  0.7357971E-011  0.4778725E+02  0.7816164E-02  0.1312668E+00
        -11   -1    0    0    0    0  0.00000000000E+00  0.00000000000E+00  0.45593999997E+02  0.45594000000E+02  0.51100000000E-03 0. -1.
         11   -1    0    0    0    0 -0.00000000000E+00 -0.00000000000E+00 -0.45593999997E+02  0.45594000000E+02  0.51100000000E-03 0.  1.
    9900012    2    1    2    0    0 -0.28583593839E+02 -0.32502631637E+02 -0.31909329707E+01  0.47787251697E+02  0.19999911785E+02 0.  0.
         12    1    1    2    0    0  0.28583593839E+02  0.32502631637E+02  0.31909329707E+01  0.43400748303E+02  0.00000000000E+00 0. -1.
         11    1    3    3    0    0 -0.17621557593E+02 -0.23028915722E+02  0.14392843673E+01  0.29033115422E+02  0.51100000000E-03 0.  1.
        -11    1    3    3    0    0 -0.59132207258E+01 -0.66404074144E+01  0.28115519758E+01  0.93255570748E+01  0.51100000000E-03 0. -1.
         12    1    3    3    0    0 -0.50488155201E+01 -0.28333085006E+01 -0.74417693137E+01  0.94285792002E+01  0.00000000000E+00 0. -1.
</event>
<event>
 7    1  0.7357971E-011  0.4778727E+02  0.7816164E-02  0.1312668E+00
        -11   -1    0    0    0    0  0.00000000000E+00  0.00000000000E+00  0.45593999997E+02  0.45594000000E+02  0.51100000000E-03 0. -1.
         11   -1    0    0    0    0 -0.00000000000E+00 -0.00000000000E+00 -0.45593999997E+02  0.45594000000E+02  0.51100000000E-03 0.  1.
    9900012    2    1    2    0    0  0.42030605200E+01 -0.31676972265E+02 -0.29368807066E+02  0.47787272839E+02  0.20000008183E+02 0.  0.
         12    1    1    2    0    0 -0.42030605200E+01  0.31676972265E+02  0.29368807066E+02  0.43400727161E+02  0.00000000000E+00 0. -1.
         11    1    3    3    0    0 -0.39277982238E+01 -0.54922769314E+01 -0.12995882415E+02  0.14645329111E+02  0.51100000000E-03 0. -1.
        -11    1    3    3    0    0  0.65177182155E+01 -0.25477434823E+02 -0.12997388037E+02  0.29334492188E+02  0.51100000000E-03 0.  1.
         12    1    3    3    0    0  0.16131405283E+01 -0.70726051111E+00 -0.33755366140E+01  0.38074515397E+01  0.00000000000E+00 0. -1.
</event>
<event>
 7    1  0.7357971E-011  0.4778727E+02  0.7816164E-02  0.1312668E+00
        -11   -1    0    0    0    0  0.00000000000E+00  0.00000000000E+00  0.45593999997E+02  0.45594000000E+02  0.51100000000E-03 0.  1.
         11   -1    0    0    0    0 -0.00000000000E+00 -0.00000000000E+00 -0.45593999997E+02  0.45594000000E+02  0.51100000000E-03 0. -1.
    9900012    2    1    2    0    0 -0.36238604888E+02 -0.21980250033E+02  0.93410685926E+01  0.47787269151E+02  0.19999991368E+02 0.  0.
         12    1    1    2    0    0  0.36238604888E+02  0.21980250033E+02 -0.93410685926E+01  0.43400730849E+02  0.00000000000E+00 0. -1.
         11    1    3    3    0    0 -0.28593782844E+02 -0.21135767059E+02  0.87086350337E+01  0.36608269434E+02  0.51100000000E-03 0.  1.
        -11    1    3    3    0    0 -0.52063026921E+01  0.97370758323E+00  0.40028150243E+01  0.66389925862E+01  0.51100000000E-03 0. -1.
         12    1    3    3    0    0 -0.24385193521E+01 -0.18181905567E+01 -0.33703814654E+01  0.45400071314E+01  0.00000000000E+00 0. -1.
</event>
<event>
 7    1  0.7357971E-011  0.4778727E+02  0.7816164E-02  0.1312668E+00
        -11   -1    0    0    0    0  0.00000000000E+00  0.00000000000E+00  0.45593999997E+02  0.45594000000E+02  0.51100000000E-03 0. -1.
         11   -1    0    0    0    0 -0.00000000000E+00 -0.00000000000E+00 -0.45593999997E+02  0.45594000000E+02  0.51100000000E-03 0.  1.
    9900012    2    1    2    0    0 -0.28224059510E+02 -0.13025243408E+02 -0.30288094797E+02  0.47787272040E+02  0.20000004539E+02 0.  0.
         12    1    1    2    0    0  0.28224059510E+02  0.13025243408E+02  0.30288094797E+02  0.43400727960E+02  0.00000000000E+00 0. -1.
         11    1    3    3    0    0 -0.10423693231E+02  0.38325816197E+01 -0.92675396964E+01  0.14464762519E+02  0.51100000000E-03 0. -1.
        -11    1    3    3    0    0 -0.61723926795E+01 -0.70535742493E+01 -0.13285368527E+02  0.16258916269E+02  0.51100000000E-03 0.  1.
         12    1    3    3    0    0 -0.11627973599E+02 -0.98042507781E+01 -0.77351865732E+01  0.17063593252E+02  0.00000000000E+00 0. -1.
</event>
<event>
 7    1  0.7357971E-011  0.4778727E+02  0.7816164E-02  0.1312668E+00
        -11   -1    0    0    0    0  0.00000000000E+00  0.00000000000E+00  0.45593999997E+02  0.45594000000E+02  0.51100000000E-03 0. -1.
         11   -1    0    0    0    0 -0.00000000000E+00 -0.00000000000E+00 -0.45593999997E+02  0.45594000000E+02  0.51100000000E-03 0.  1.
    9900012    2    1    2    0    0 -0.17430057835E+02  0.26338687304E+01  0.39659543673E+02  0.47787267460E+02  0.19999983657E+02 0.  0.
        -12    1    1    2    0    0  0.17430057835E+02 -0.26338687304E+01 -0.39659543673E+02  0.43400732540E+02  0.00000000000E+00 0.  1.
         11    1    3    3    0    0 -0.41984573310E+01 -0.18220359930E+01  0.76544507843E+01  0.89183785629E+01  0.51100000000E-03 0. -1.
        -11    1    3    3    0    0 -0.50650486571E+01 -0.16193714805E+01  0.35133418770E-01  0.53177360322E+01  0.51100000000E-03 0.  1.
        -12    1    3    3    0    0 -0.81665518472E+01  0.60752762039E+01  0.31969959470E+02  0.33551152865E+02  0.00000000000E+00 0.  1.
</event>
<event>
 7    1  0.7357971E-011  0.4778727E+02  0.7816164E-02  0.1312668E+00
        -11   -1    0    0    0    0  0.00000000000E+00  0.00000000000E+00  0.45593999997E+02  0.45594000000E+02  0.51100000000E-03 0. -1.
         11   -1    0    0    0    0 -0.00000000000E+00 -0.00000000000E+00 -0.45593999997E+02  0.45594000000E+02  0.51100000000E-03 0.  1.
    9900012    2    1    2    0    0  0.27060807094E+02 -0.29079709511E+02 -0.17484477219E+02  0.47787265796E+02  0.19999976071E+02 0.  0.
         12    1    1    2    0    0 -0.27060807094E+02  0.29079709511E+02  0.17484477219E+02  0.43400734204E+02  0.00000000000E+00 0. -1.
         11    1    3    3    0    0  0.19960303432E+02 -0.20672519382E+02 -0.60477505937E+01  0.29365661208E+02  0.51100000000E-03 0. -1.
        -11    1    3    3    0    0  0.22815583155E+01 -0.56263285099E+01 -0.11333060184E+02  0.12856878869E+02  0.51100000000E-03 0.  1.
         12    1    3    3    0    0  0.48189453465E+01 -0.27808616194E+01 -0.10366644102E+00  0.55647257192E+01  0.00000000000E+00 0. -1.
</event>
<event>
 7    1  0.7357971E-011  0.4778726E+02  0.7816164E-02  0.1312668E+00
        -11   -1    0    0    0    0  0.00000000000E+00  0.00000000000E+00  0.45593999997E+02  0.45594000000E+02  0.51100000000E-03 0. -1.
         11   -1    0    0    0    0 -0.00000000000E+00 -0.00000000000E+00 -0.45593999997E+02  0.45594000000E+02  0.51100000000E-03 0.  1.
    9900012    2    1    2    0    0  0.84952407157E+01  0.16607418893E+02  0.39187354073E+02  0.47787260417E+02  0.19999951547E+02 0.  0.
        -12    1    1    2    0    0 -0.84952407157E+01 -0.16607418893E+02 -0.39187354073E+02  0.43400739583E+02  0.00000000000E+00 0.  1.
         11    1    3    3    0    0 -0.25216364843E+01  0.13046026758E+02  0.28033111155E+02  0.31022778502E+02  0.51100000000E-03 0. -1.
        -11    1    3    3    0    0  0.72036864675E+01 -0.13430992512E+00  0.63999511394E+01  0.96369348201E+01  0.51100000000E-03 0.  1.
         12    1    3    3    0    0  0.38131907325E+01  0.36957020596E+01  0.47542917785E+01  0.71275470949E+01  0.00000000000E+00 0. -1.
</event>
<event>
 7    1  0.7357971E-011  0.4778728E+02  0.7816164E-02  0.1312668E+00
        -11   -1    0    0    0    0  0.00000000000E+00  0.00000000000E+00  0.45593999997E+02  0.45594000000E+02  0.51100000000E-03 0. -1.
         11   -1    0    0    0    0 -0.00000000000E+00 -0.00000000000E+00 -0.45593999997E+02  0.45594000000E+02  0.51100000000E-03 0.  1.
    9900012    2    1    2    0    0 -0.36776556555E+02  0.77932096383E+00 -0.23032586818E+02  0.47787279859E+02  0.20000040188E+02 0.  0.
         12    1    1    2    0    0  0.36776556555E+02 -0.77932096383E+00  0.23032586818E+02  0.43400720141E+02  0.00000000000E+00 0. -1.
         11    1    3    3    0    0 -0.14760526238E+02  0.25424784433E+01 -0.12470766684E+02  0.19489929538E+02  0.51100000000E-03 0. -1.
        -11    1    3    3    0    0 -0.15454833366E+02 -0.77529152604E+01 -0.59352095854E+01  0.18280762634E+02  0.51100000000E-03 0.  1.
        -12    1    3    3    0    0 -0.65611969511E+01  0.59897577810E+01 -0.46266105494E+01  0.10016587686E+02  0.00000000000E+00 0.  1.
</event>
<event>
 7    1  0.7357971E-011  0.4778727E+02  0.7816164E-02  0.1312668E+00
        -11   -1    0    0    0    0  0.00000000000E+00  0.00000000000E+00  0.45593999997E+02  0.45594000000E+02  0.51100000000E-03 0. -1.
         11   -1    0    0    0    0 -0.00000000000E+00 -0.00000000000E+00 -0.45593999997E+02  0.45594000000E+02  0.51100000000E-03 0.  1.
    9900012    2    1    2    0    0  0.39833887218E+02  0.65834180268E+01 -0.15923050873E+02  0.47787268291E+02  0.19999987446E+02 0.  0.
         12    1    1    2    0    0 -0.39833887218E+02 -0.65834180268E+01  0.15923050873E+02  0.43400731709E+02  0.00000000000E+00 0. -1.
         11    1    3    3    0    0  0.18194049501E+02  0.30594301261E+01 -0.94211578477E+00  0.18473525174E+02  0.51100000000E-03 0. -1.
        -11    1    3    3    0    0  0.84734055771E+01  0.16072012541E+01 -0.13371417573E+02  0.15911521176E+02  0.51100000000E-03 0.  1.
        -12    1    3    3    0    0  0.13166432140E+02  0.19167866467E+01 -0.16095175144E+01  0.13402221942E+02  0.00000000000E+00 0.  1.
</event>
<event>
 7    1  0.7357971E-011  0.4778728E+02  0.7816164E-02  0.1312668E+00
        -11   -1    0    0    0    0  0.00000000000E+00  0.00000000000E+00  0.45593999997E+02  0.45594000000E+02  0.51100000000E-03 0. -1.
         11   -1    0    0    0    0 -0.00000000000E+00 -0.00000000000E+00 -0.45593999997E+02  0.45594000000E+02  0.51100000000E-03 0.  1.
    9900012    2    1    2    0    0 -0.23751781911E+02  0.23049673025E+02  0.28074689720E+02  0.47787276810E+02  0.20000026290E+02 0.  0.
        -12    1    1    2    0    0  0.23751781911E+02 -0.23049673025E+02 -0.28074689720E+02  0.43400723190E+02  0.00000000000E+00 0.  1.
         11    1    3    3    0    0 -0.88077543056E+01  0.27230231348E+00  0.14078876509E+02  0.16609197707E+02  0.51100000000E-03 0. -1.
        -11    1    3    3    0    0 -0.10643894965E+02  0.18758131036E+02  0.86860287068E+01  0.23250958581E+02  0.51100000000E-03 0.  1.
        -12    1    3    3    0    0 -0.43001326405E+01  0.40192396756E+01  0.53097845047E+01  0.79271205227E+01  0.00000000000E+00 0.  1.
</event>
<event>
 7    1  0.7357971E-011  0.4778727E+02  0.7816164E-02  0.1312668E+00
        -11   -1    0    0    0    0  0.00000000000E+00  0.00000000000E+00  0.45593999997E+02  0.45594000000E+02  0.51100000000E-03 0. -1.
         11   -1    0    0    0    0 -0.00000000000E+00 -0.00000000000E+00 -0.45593999997E+02  0.45594000000E+02  0.51100000000E-03 0.  1.
    9900012    2    1    2    0    0 -0.25014663649E+02 -0.25022960476E+02 -0.25134465860E+02  0.47787270484E+02  0.19999997444E+02 0.  0.
         12    1    1    2    0    0  0.25014663649E+02  0.25022960476E+02  0.25134465860E+02  0.43400729516E+02  0.00000000000E+00 0. -1.
         11    1    3    3    0    0 -0.59179604605E+01 -0.14903084951E+02 -0.17519947088E+02  0.23750215648E+02  0.51100000000E-03 0. -1.
        -11    1    3    3    0    0 -0.54811723888E+01 -0.54900906678E+01 -0.54804924899E+01  0.94984285274E+01  0.51100000000E-03 0.  1.
         12    1    3    3    0    0 -0.13615530799E+02 -0.46297848573E+01 -0.21340262824E+01  0.14538626309E+02  0.00000000000E+00 0. -1.
</event>
<event>
 7    1  0.8365759E-011  0.4778727E+02  0.7816164E-02  0.1312668E+00
        -11   -1    0    0    0    0  0.00000000000E+00  0.00000000000E+00  0.45593999997E+02  0.45594000000E+02  0.51100000000E-03 0. -1.
         11   -1    0    0    0    0 -0.00000000000E+00 -0.00000000000E+00 -0.45593999997E+02  0.45594000000E+02  0.51100000000E-03 0.  1.
    9900012    2    1    2    0    0  0.62948174097E+01 -0.78595024606E+01 -0.42216429664E+02  0.47787269145E+02  0.19999991341E+02 0.  0.
         12    1    1    2    0    0 -0.62948174097E+01  0.78595024606E+01  0.42216429664E+02  0.43400730855E+02  0.00000000000E+00 0. -1.
         11    1    3    3    0    0 -0.52069835840E-01 -0.52831819868E+01 -0.26285715188E+01  0.59011957826E+01  0.51100000000E-03 0. -1.
        -11    1    3    3    0    0 -0.62576436461E+00 -0.22556425516E+01 -0.29647805628E+02  0.29740072011E+02  0.51100000000E-03 0.  1.
        -12    1    3    3    0    0  0.69726516102E+01 -0.32067792222E+00 -0.99400525166E+01  0.12146001352E+02  0.00000000000E+00 0.  1.
</event>
<event>
 7    1  0.7357971E-011  0.4778728E+02  0.7816164E-02  0.1312668E+00
        -11   -1    0    0    0    0  0.00000000000E+00  0.00000000000E+00  0.45593999997E+02  0.45594000000E+02  0.51100000000E-03 0. -1.
         11   -1    0    0    0    0 -0.00000000000E+00 -0.00000000000E+00 -0.45593999997E+02  0.45594000000E+02  0.51100000000E-03 0.  1.
    9900012    2    1    2    0    0  0.18937954737E+02 -0.23583521310E+02 -0.31125453618E+02  0.47787280307E+02  0.20000042230E+02 0.  0.
         12    1    1    2    0    0 -0.18937954737E+02  0.23583521310E+02  0.31125453618E+02  0.43400719693E+02  0.00000000000E+00 0. -1.
         11    1    3    3    0    0  0.95271986971E+01 -0.30758769092E+01 -0.73854939580E+01  0.12440822121E+02  0.51100000000E-03 0. -1.
        -11    1    3    3    0    0 -0.29097411462E+01 -0.81948431775E+01 -0.66835950756E+01  0.10967793380E+02  0.51100000000E-03 0.  1.
        -12    1    3    3    0    0  0.12320497186E+02 -0.12312801223E+02 -0.17056364584E+02  0.24378664805E+02  0.00000000000E+00 0.  1.
</event>
<event>
 7    1  0.7357971E-011  0.4778727E+02  0.7816164E-02  0.1312668E+00
        -11   -1    0    0    0    0  0.00000000000E+00  0.00000000000E+00  0.45593999997E+02  0.45594000000E+02  0.51100000000E-03 0.  1.
         11   -1    0    0    0    0 -0.00000000000E+00 -0.00000000000E+00 -0.45593999997E+02  0.45594000000E+02  0.51100000000E-03 0. -1.
    9900012    2    1    2    0    0 -0.21091733954E+02  0.37811821625E+02 -0.30047118725E+01  0.47787269715E+02  0.19999993940E+02 0.  0.
        -12    1    1    2    0    0  0.21091733954E+02 -0.37811821625E+02  0.30047118725E+01  0.43400730285E+02  0.00000000000E+00 0.  1.
         11    1    3    3    0    0 -0.48410221372E+00  0.62978302548E+01 -0.51665916184E+00  0.63375040688E+01  0.51100000000E-03 0. -1.
        -11    1    3    3    0    0 -0.20813845312E+02  0.32546901770E+02  0.12403749054E+00  0.38633306318E+02  0.51100000000E-03 0.  1.
        -12    1    3    3    0    0  0.20621357213E+00 -0.10329103993E+01 -0.26120902012E+01  0.28164593286E+01  0.00000000000E+00 0.  1.
</event>
<event>
 7    1  0.7357971E-011  0.4778727E+02  0.7816164E-02  0.1312668E+00
        -11   -1    0    0    0    0  0.00000000000E+00  0.00000000000E+00  0.45593999997E+02  0.45594000000E+02  0.51100000000E-03 0.  1.
         11   -1    0    0    0    0 -0.00000000000E+00 -0.00000000000E+00 -0.45593999997E+02  0.45594000000E+02  0.51100000000E-03 0. -1.
    9900012    2    1    2    0    0 -0.27346460008E+01 -0.43264872061E+02  0.20726550290E+01  0.47787270259E+02  0.19999996417E+02 0.  0.
         12    1    1    2    0    0  0.27346460008E+01  0.43264872061E+02 -0.20726550290E+01  0.43400729741E+02  0.00000000000E+00 0. -1.
         11    1    3    3    0    0 -0.15640418169E+01 -0.44478013835E+01 -0.32893564910E+01  0.57488286057E+01  0.51100000000E-03 0. -1.
        -11    1    3    3    0    0 -0.54514275951E+01 -0.10596479775E+02  0.63004719619E+01  0.13479591746E+02  0.51100000000E-03 0.  1.
        -12    1    3    3    0    0  0.42808234112E+01 -0.28220590903E+02 -0.93846044186E+00  0.28558849906E+02  0.00000000000E+00 0.  1.
</event>
<event>
 7    1  0.7357971E-011  0.4778727E+02  0.7816164E-02  0.1312668E+00
        -11   -1    0    0    0    0  0.00000000000E+00  0.00000000000E+00  0.45593999997E+02  0.45594000000E+02  0.51100000000E-03 0. -1.
         11   -1    0    0    0    0 -0.00000000000E+00 -0.00000000000E+00 -0.45593999997E+02  0.45594000000E+02  0.51100000000E-03 0.  1.
    9900012    2    1    2    0    0 -0.15631780270E+02 -0.20643751167E+02  0.34829677926E+02  0.47787268657E+02  0.19999989116E+02 0.  0.
        -12    1    1    2    0    0  0.15631780270E+02  0.20643751167E+02 -0.34829677926E+02  0.43400731343E+02  0.00000000000E+00 0.  1.
         11    1    3    3    0    0  0.69190077701E+00  0.17653846758E+01  0.57097774110E+01  0.60163833059E+01  0.51100000000E-03 0. -1.
        -11    1    3    3    0    0 -0.83264539483E+00  0.30397423831E+00  0.53627346531E+01  0.54354964733E+01  0.51100000000E-03 0.  1.
         12    1    3    3    0    0 -0.15491035653E+02 -0.22713110081E+02  0.23757165862E+02  0.36335388878E+02  0.00000000000E+00 0. -1.
</event>
<event>
 7    1  0.7357971E-011  0.4778727E+02  0.7816164E-02  0.1312668E+00
        -11   -1    0    0    0    0  0.00000000000E+00  0.00000000000E+00  0.45593999997E+02  0.45594000000E+02  0.51100000000E-03 0.  1.
         11   -1    0    0    0    0 -0.00000000000E+00 -0.00000000000E+00 -0.45593999997E+02  0.45594000000E+02  0.51100000000E-03 0. -1.
    9900012    2    1    2    0    0  0.20868284300E+02  0.17000601808E+02 -0.34045818966E+02  0.47787267972E+02  0.19999985993E+02 0.  0.
         12    1    1    2    0    0 -0.20868284300E+02 -0.17000601808E+02  0.34045818966E+02  0.43400732028E+02  0.00000000000E+00 0. -1.
         11    1    3    3    0    0  0.28974725276E+00  0.15476877996E+01 -0.10133171656E+02  0.10254777378E+02  0.51100000000E-03 0. -1.
        -11    1    3    3    0    0  0.18916870831E+02  0.69518312874E+01 -0.18208049035E+02  0.27160799145E+02  0.51100000000E-03 0.  1.
        -12    1    3    3    0    0  0.16616662171E+01  0.85010827210E+01 -0.57045982747E+01  0.10371691449E+02  0.00000000000E+00 0.  1.
</event>
<event>
 7    1  0.7357971E-011  0.4778727E+02  0.7816164E-02  0.1312668E+00
        -11   -1    0    0    0    0  0.00000000000E+00  0.00000000000E+00  0.45593999997E+02  0.45594000000E+02  0.51100000000E-03 0. -1.
         11   -1    0    0    0    0 -0.00000000000E+00 -0.00000000000E+00 -0.45593999997E+02  0.45594000000E+02  0.51100000000E-03 0.  1.
    9900012    2    1    2    0    0  0.38605108971E+01  0.32841277561E+02 -0.28109967191E+02  0.47787270608E+02  0.19999998012E+02 0.  0.
         12    1    1    2    0    0 -0.38605108971E+01 -0.32841277561E+02  0.28109967191E+02  0.43400729392E+02  0.00000000000E+00 0. -1.
         11    1    3    3    0    0  0.80146875306E+01  0.22925235811E+02 -0.11701120677E+02  0.26957705366E+02  0.51100000000E-03 0. -1.
        -11    1    3    3    0    0 -0.52121721629E+01  0.10423167713E+02 -0.14764447430E+02  0.18809520781E+02  0.51100000000E-03 0.  1.
         12    1    3    3    0    0  0.10579955294E+01 -0.50712596275E+00 -0.16443990839E+01  0.20200444622E+01  0.00000000000E+00 0. -1.
</event>
<event>
 7    1  0.7357971E-011  0.4778727E+02  0.7816164E-02  0.1312668E+00
        -11   -1    0    0    0    0  0.00000000000E+00  0.00000000000E+00  0.45593999997E+02  0.45594000000E+02  0.51100000000E-03 0. -1.
         11   -1    0    0    0    0 -0.00000000000E+00 -0.00000000000E+00 -0.45593999997E+02  0.45594000000E+02  0.51100000000E-03 0.  1.
    9900012    2    1    2    0    0 -0.12026865498E+02 -0.20112650666E+02  0.36530246007E+02  0.47787273234E+02  0.20000009981E+02 0.  0.
        -12    1    1    2    0    0  0.12026865498E+02  0.20112650666E+02 -0.36530246007E+02  0.43400726766E+02  0.00000000000E+00 0.  1.
         11    1    3    3    0    0 -0.10437332611E+01 -0.99544916092E+01  0.27699153612E+02  0.29452069425E+02  0.51100000000E-03 0. -1.
        -11    1    3    3    0    0 -0.71892833115E+01 -0.80564846823E+01  0.32685378387E+01  0.11281670082E+02  0.51100000000E-03 0.  1.
         12    1    3    3    0    0 -0.37938489255E+01 -0.21016743742E+01  0.55625545566E+01  0.70535337271E+01  0.00000000000E+00 0. -1.
</event>
<event>
 7    1  0.7357971E-011  0.4778727E+02  0.7816164E-02  0.1312668E+00
        -11   -1    0    0    0    0  0.00000000000E+00  0.00000000000E+00  0.45593999997E+02  0.45594000000E+02  0.51100000000E-03 0. -1.
         11   -1    0    0    0    0 -0.00000000000E+00 -0.00000000000E+00 -0.45593999997E+02  0.45594000000E+02  0.51100000000E-03 0.  1.
    9900012    2    1    2    0    0  0.66831724181E+01  0.23420702082E+02 -0.35922545406E+02  0.47787270190E+02  0.19999996104E+02 0.  0.
         12    1    1    2    0    0 -0.66831724181E+01 -0.23420702082E+02  0.35922545406E+02  0.43400729810E+02  0.00000000000E+00 0. -1.
         11    1    3    3    0    0 -0.36502421434E+01  0.14058157737E+02 -0.20860844107E+02  0.25419104700E+02  0.51100000000E-03 0. -1.
        -11    1    3    3    0    0  0.11907195446E+02  0.77492917313E+01 -0.13692378733E+02  0.19731043088E+02  0.51100000000E-03 0.  1.
        -12    1    3    3    0    0 -0.15737808842E+01  0.16132526138E+01 -0.13693225662E+01  0.26371224010E+01  0.00000000000E+00 0.  1.
</event>
<event>
 7    1  0.7357971E-011  0.4778727E+02  0.7816164E-02  0.1312668E+00
        -11   -1    0    0    0    0  0.00000000000E+00  0.00000000000E+00  0.45593999997E+02  0.45594000000E+02  0.51100000000E-03 0. -1.
         11   -1    0    0    0    0 -0.00000000000E+00 -0.00000000000E+00 -0.45593999997E+02  0.45594000000E+02  0.51100000000E-03 0.  1.
    9900012    2    1    2    0    0 -0.30553347256E+02  0.32168592086E+01  0.30655637364E+02  0.47787270584E+02  0.19999997899E+02 0.  0.
        -12    1    1    2    0    0  0.30553347256E+02 -0.32168592086E+01 -0.30655637364E+02  0.43400729416E+02  0.00000000000E+00 0.  1.
         11    1    3    3    0    0 -0.21533528738E+02 -0.89259160694E+00  0.10752795595E+02  0.24085518327E+02  0.51100000000E-03 0. -1.
        -11    1    3    3    0    0 -0.19984749406E+01  0.45306387188E+01  0.41911410149E+01  0.64873918146E+01  0.51100000000E-03 0.  1.
         12    1    3    3    0    0 -0.70213435771E+01 -0.42118790330E+00  0.15711700753E+02  0.17214360442E+02  0.00000000000E+00 0. -1.
</event>
<event>
 7    1  0.7357971E-011  0.4778727E+02  0.7816164E-02  0.1312668E+00
        -11   -1    0    0    0    0  0.00000000000E+00  0.00000000000E+00  0.45593999997E+02  0.45594000000E+02  0.51100000000E-03 0. -1.
         11   -1    0    0    0    0 -0.00000000000E+00 -0.00000000000E+00 -0.45593999997E+02  0.45594000000E+02  0.51100000000E-03 0.  1.
    9900012    2    1    2    0    0  0.37677522411E+02  0.26674527025E+01 -0.21375510646E+02  0.47787268965E+02  0.19999990519E+02 0.  0.
         12    1    1    2    0    0 -0.37677522411E+02 -0.26674527025E+01  0.21375510646E+02  0.43400731035E+02  0.00000000000E+00 0. -1.
         11    1    3    3    0    0  0.17980347501E+02 -0.58123282001E+01 -0.82670632962E+01  0.20625721591E+02  0.51100000000E-03 0. -1.
        -11    1    3    3    0    0  0.94013636462E+01  0.53281208645E+00 -0.11373963522E+01  0.94848931386E+01  0.51100000000E-03 0.  1.
         12    1    3    3    0    0  0.10295811265E+02  0.79469688161E+01 -0.11971050998E+02  0.17676654235E+02  0.00000000000E+00 0. -1.
</event>
<event>
 7    1  0.7357971E-011  0.4778727E+02  0.7816164E-02  0.1312668E+00
        -11   -1    0    0    0    0  0.00000000000E+00  0.00000000000E+00  0.45593999997E+02  0.45594000000E+02  0.51100000000E-03 0.  1.
         11   -1    0    0    0    0 -0.00000000000E+00 -0.00000000000E+00 -0.45593999997E+02  0.45594000000E+02  0.51100000000E-03 0. -1.
    9900012    2    1    2    0    0  0.43289020623E+02  0.24759142333E+01  0.18851065562E+01  0.47787273226E+02  0.20000009945E+02 0.  0.
         12    1    1    2    0    0 -0.43289020623E+02 -0.24759142333E+01 -0.18851065562E+01  0.43400726774E+02  0.00000000000E+00 0. -1.
         11    1    3    3    0    0  0.32768841014E+01  0.32446194721E+01  0.38437217150E+01  0.60033092388E+01  0.51100000000E-03 0. -1.
        -11    1    3    3    0    0  0.13756900912E+02 -0.45287491176E+01 -0.44311496410E+01  0.15145856815E+02  0.51100000000E-03 0.  1.
        -12    1    3    3    0    0  0.26255235610E+02  0.37600438787E+01  0.24725344822E+01  0.26638107171E+02  0.00000000000E+00 0.  1.
</event>
<event>
 7    1  0.7357971E-011  0.4778727E+02  0.7816164E-02  0.1312668E+00
        -11   -1    0    0    0    0  0.00000000000E+00  0.00000000000E+00  0.45593999997E+02  0.45594000000E+02  0.51100000000E-03 0. -1.
         11   -1    0    0    0    0 -0.00000000000E+00 -0.00000000000E+00 -0.45593999997E+02  0.45594000000E+02  0.51100000000E-03 0.  1.
    9900012    2    1    2    0    0  0.50610484188E+01 -0.38893648396E+02 -0.18582067622E+02  0.47787270354E+02  0.19999996854E+02 0.  0.
         12    1    1    2    0    0 -0.50610484188E+01  0.38893648396E+02  0.18582067622E+02  0.43400729646E+02  0.00000000000E+00 0. -1.
         11    1    3    3    0    0  0.36472976552E+01 -0.67867013285E+01  0.35732559352E+00  0.77129616198E+01  0.51100000000E-03 0. -1.
        -11    1    3    3    0    0  0.63137797009E+01 -0.23889850642E+02 -0.17769426791E+02  0.30435855607E+02  0.51100000000E-03 0.  1.
        -12    1    3    3    0    0 -0.49000289372E+01 -0.82170964259E+01 -0.11699664251E+01  0.96384531276E+01  0.00000000000E+00 0.  1.
</event>
<event>
 7    1  0.7357971E-011  0.4778727E+02  0.7816164E-02  0.1312668E+00
        -11   -1    0    0    0    0  0.00000000000E+00  0.00000000000E+00  0.45593999997E+02  0.45594000000E+02  0.51100000000E-03 0. -1.
         11   -1    0    0    0    0 -0.00000000000E+00 -0.00000000000E+00 -0.45593999997E+02  0.45594000000E+02  0.51100000000E-03 0.  1.
    9900012    2    1    2    0    0  0.41860371285E+02 -0.77356927064E+01 -0.84552642207E+01  0.47787272831E+02  0.20000008145E+02 0.  0.
         12    1    1    2    0    0 -0.41860371285E+02  0.77356927064E+01  0.84552642207E+01  0.43400727169E+02  0.00000000000E+00 0. -1.
         11    1    3    3    0    0  0.92849566895E+01 -0.12696086594E+01  0.59477391774E+01  0.11099456224E+02  0.51100000000E-03 0. -1.
        -11    1    3    3    0    0  0.30324777647E+02 -0.75252537423E+01 -0.13098393614E+02  0.33879042176E+02  0.51100000000E-03 0.  1.
        -12    1    3    3    0    0  0.22506369486E+01  0.10591696953E+01 -0.13046097841E+01  0.28087744315E+01  0.00000000000E+00 0.  1.
</event>
<event>
 7    1  0.7357971E-011  0.4778727E+02  0.7816164E-02  0.1312668E+00
        -11   -1    0    0    0    0  0.00000000000E+00  0.00000000000E+00  0.45593999997E+02  0.45594000000E+02  0.51100000000E-03 0. -1.
         11   -1    0    0    0    0 -0.00000000000E+00 -0.00000000000E+00 -0.45593999997E+02  0.45594000000E+02  0.51100000000E-03 0.  1.
    9900012    2    1    2    0    0 -0.40010253195E+02 -0.67423656011E+01  0.15405958105E+02  0.47787269594E+02  0.19999993388E+02 0.  0.
        -12    1    1    2    0    0  0.40010253195E+02  0.67423656011E+01 -0.15405958105E+02  0.43400730406E+02  0.00000000000E+00 0.  1.
         11    1    3    3    0    0 -0.25409462646E+02  0.34572777527E+01  0.70722740889E+01  0.26600951534E+02  0.51100000000E-03 0. -1.
        -11    1    3    3    0    0 -0.75998117894E+00 -0.33990223559E+01 -0.32910000305E+00  0.34984612963E+01  0.51100000000E-03 0.  1.
         12    1    3    3    0    0 -0.13840809369E+02 -0.68006209979E+01  0.86627840193E+01  0.17687856765E+02  0.00000000000E+00 0. -1.
</event>
<event>
 7    1  0.7357971E-011  0.4778727E+02  0.7816164E-02  0.1312668E+00
        -11   -1    0    0    0    0  0.00000000000E+00  0.00000000000E+00  0.45593999997E+02  0.45594000000E+02  0.51100000000E-03 0. -1.
         11   -1    0    0    0    0 -0.00000000000E+00 -0.00000000000E+00 -0.45593999997E+02  0.45594000000E+02  0.51100000000E-03 0.  1.
    9900012    2    1    2    0    0  0.43347980044E+01 -0.13273007960E+02 -0.41093310983E+02  0.47787269343E+02  0.19999992242E+02 0.  0.
         12    1    1    2    0    0 -0.43347980044E+01  0.13273007960E+02  0.41093310983E+02  0.43400730657E+02  0.00000000000E+00 0. -1.
         11    1    3    3    0    0  0.54280756825E+01 -0.86053126061E+00 -0.48386002848E+01  0.73223338248E+01  0.51100000000E-03 0. -1.
        -11    1    3    3    0    0 -0.19348643838E+01 -0.41575469445E+01 -0.29246029256E+02  0.29603363395E+02  0.51100000000E-03 0.  1.
        -12    1    3    3    0    0  0.84158670573E+00 -0.82549297546E+01 -0.70086814423E+01  0.10861572124E+02  0.00000000000E+00 0.  1.
</event>
<event>
 7    1  0.7357971E-011  0.4778727E+02  0.7816164E-02  0.1312668E+00
        -11   -1    0    0    0    0  0.00000000000E+00  0.00000000000E+00  0.45593999997E+02  0.45594000000E+02  0.51100000000E-03 0.  1.
         11   -1    0    0    0    0 -0.00000000000E+00 -0.00000000000E+00 -0.45593999997E+02  0.45594000000E+02  0.51100000000E-03 0. -1.
    9900012    2    1    2    0    0  0.29289948042E+02 -0.16900125962E+02  0.27204925571E+02  0.47787270869E+02  0.19999999198E+02 0.  0.
        -12    1    1    2    0    0 -0.29289948042E+02  0.16900125962E+02 -0.27204925571E+02  0.43400729131E+02  0.00000000000E+00 0.  1.
         11    1    3    3    0    0  0.19820893059E+02 -0.54137311793E+01  0.89911703943E+01  0.22428050122E+02  0.51100000000E-03 0. -1.
        -11    1    3    3    0    0  0.88430027790E+00  0.15144109683E+01  0.35722436275E+01  0.39794914697E+01  0.51100000000E-03 0.  1.
         12    1    3    3    0    0  0.85847547049E+01 -0.13000805751E+02  0.14641511549E+02  0.21379729277E+02  0.00000000000E+00 0. -1.
</event>
<event>
 7    1  0.7357971E-011  0.4778727E+02  0.7816164E-02  0.1312668E+00
        -11   -1    0    0    0    0  0.00000000000E+00  0.00000000000E+00  0.45593999997E+02  0.45594000000E+02  0.51100000000E-03 0. -1.
         11   -1    0    0    0    0 -0.00000000000E+00 -0.00000000000E+00 -0.45593999997E+02  0.45594000000E+02  0.51100000000E-03 0.  1.
    9900012    2    1    2    0    0 -0.11949245213E+01 -0.18871100776E+02  0.39065036063E+02  0.47787270378E+02  0.19999996963E+02 0.  0.
        -12    1    1    2    0    0  0.11949245213E+01  0.18871100776E+02 -0.39065036063E+02  0.43400729622E+02  0.00000000000E+00 0.  1.
         11    1    3    3    0    0 -0.43943250482E+01 -0.19946861396E+02  0.37225554243E+02  0.42460914511E+02  0.51100000000E-03 0. -1.
        -11    1    3    3    0    0 -0.66629211996E+00 -0.48384634281E+00  0.20228350029E+00  0.84792178188E+00  0.51100000000E-03 0.  1.
         12    1    3    3    0    0  0.38656926469E+01  0.15596069627E+01  0.16371983197E+01  0.44784340853E+01  0.00000000000E+00 0. -1.
</event>
<event>
 7    1  0.7357971E-011  0.4778723E+02  0.7816164E-02  0.1312668E+00
        -11   -1    0    0    0    0  0.00000000000E+00  0.00000000000E+00  0.45593999997E+02  0.45594000000E+02  0.51100000000E-03 0. -1.
         11   -1    0    0    0    0 -0.00000000000E+00 -0.00000000000E+00 -0.45593999997E+02  0.45594000000E+02  0.51100000000E-03 0.  1.
    9900012    2    1    2    0    0 -0.27717285840E+02 -0.22984641180E+02 -0.24229837181E+02  0.47787231870E+02  0.19999821387E+02 0.  0.
         12    1    1    2    0    0  0.27717285840E+02  0.22984641180E+02  0.24229837181E+02  0.43400768130E+02  0.00000000000E+00 0. -1.
         11    1    3    3    0    0 -0.16738970094E+02 -0.22541571695E+02 -0.17590526343E+02  0.33132192676E+02  0.51100000000E-03 0. -1.
        -11    1    3    3    0    0 -0.10256560514E+02 -0.20192933754E+01 -0.73527576497E+01  0.12780360896E+02  0.51100000000E-03 0.  1.
         12    1    3    3    0    0 -0.72175523215E+00  0.15762238902E+01  0.71344681191E+00  0.18746782979E+01  0.00000000000E+00 0. -1.
</event>
<event>
 7    1  0.7357971E-011  0.4778727E+02  0.7816164E-02  0.1312668E+00
        -11   -1    0    0    0    0  0.00000000000E+00  0.00000000000E+00  0.45593999997E+02  0.45594000000E+02  0.51100000000E-03 0. -1.
         11   -1    0    0    0    0 -0.00000000000E+00 -0.00000000000E+00 -0.45593999997E+02  0.45594000000E+02  0.51100000000E-03 0.  1.
    9900012    2    1    2    0    0  0.24906367283E+01  0.12997469619E+02 -0.41333835415E+02  0.47787269155E+02  0.19999991385E+02 0.  0.
         12    1    1    2    0    0 -0.24906367283E+01 -0.12997469619E+02  0.41333835415E+02  0.43400730845E+02  0.00000000000E+00 0. -1.
         11    1    3    3    0    0  0.38044809511E+01  0.91311351907E+01 -0.49593669432E+01  0.11065578427E+02  0.51100000000E-03 0. -1.
        -11    1    3    3    0    0 -0.22240634854E+01  0.26347726710E+01 -0.22444887070E+02  0.22708180052E+02  0.51100000000E-03 0.  1.
         12    1    3    3    0    0  0.91021926260E+00  0.12315617571E+01 -0.13929581401E+02  0.14013510676E+02  0.00000000000E+00 0. -1.
</event>
<event>
 7    1  0.7357971E-011  0.4778727E+02  0.7816164E-02  0.1312668E+00
        -11   -1    0    0    0    0  0.00000000000E+00  0.00000000000E+00  0.45593999997E+02  0.45594000000E+02  0.51100000000E-03 0. -1.
         11   -1    0    0    0    0 -0.00000000000E+00 -0.00000000000E+00 -0.45593999997E+02  0.45594000000E+02  0.51100000000E-03 0.  1.
    9900012    2    1    2    0    0 -0.10184919193E+02 -0.25675274435E+02 -0.33476429322E+02  0.47787267098E+02  0.19999982006E+02 0.  0.
         12    1    1    2    0    0  0.10184919193E+02  0.25675274435E+02  0.33476429322E+02  0.43400732902E+02  0.00000000000E+00 0. -1.
         11    1    3    3    0    0  0.17985237644E+01 -0.31926946249E+01  0.36541833162E-01  0.36646039712E+01  0.51100000000E-03 0. -1.
        -11    1    3    3    0    0 -0.41370783965E+00 -0.12128297672E+02 -0.20687181142E+02  0.23983874217E+02  0.51100000000E-03 0.  1.
        -12    1    3    3    0    0 -0.11569735117E+02 -0.10354282138E+02 -0.12825790013E+02  0.20138788909E+02  0.00000000000E+00 0.  1.
</event>
<event>
 7    1  0.7357971E-011  0.4778727E+02  0.7816164E-02  0.1312668E+00
        -11   -1    0    0    0    0  0.00000000000E+00  0.00000000000E+00  0.45593999997E+02  0.45594000000E+02  0.51100000000E-03 0.  1.
         11   -1    0    0    0    0 -0.00000000000E+00 -0.00000000000E+00 -0.45593999997E+02  0.45594000000E+02  0.51100000000E-03 0. -1.
    9900012    2    1    2    0    0  0.16119214309E+02 -0.40112279320E+02 -0.38469433463E+01  0.47787274254E+02  0.20000014632E+02 0.  0.
         12    1    1    2    0    0 -0.16119214309E+02  0.40112279320E+02  0.38469433463E+01  0.43400725746E+02  0.00000000000E+00 0. -1.
         11    1    3    3    0    0 -0.16263701114E+01 -0.17247375181E+02 -0.34128248312E+01  0.17656851474E+02  0.51100000000E-03 0. -1.
        -11    1    3    3    0    0  0.12728472300E+02 -0.10693860198E+02 -0.24780480885E+01  0.16808134209E+02  0.51100000000E-03 0.  1.
        -12    1    3    3    0    0  0.50171121203E+01 -0.12171043942E+02  0.20439295734E+01  0.13322288570E+02  0.00000000000E+00 0.  1.
</event>
<event>
 7    1  0.7357971E-011  0.4778728E+02  0.7816164E-02  0.1312668E+00
        -11   -1    0    0    0    0  0.00000000000E+00  0.00000000000E+00  0.45593999997E+02  0.45594000000E+02  0.51100000000E-03 0.  1.
         11   -1    0    0    0    0 -0.00000000000E+00 -0.00000000000E+00 -0.45593999997E+02  0.45594000000E+02  0.51100000000E-03 0. -1.
    9900012    2    1    2    0    0 -0.23944860954E+02 -0.35452457515E+02 -0.73068312534E+01  0.47787275433E+02  0.20000020010E+02 0.  0.
        -12    1    1    2    0    0  0.23944860954E+02  0.35452457515E+02  0.73068312534E+01  0.43400724567E+02  0.00000000000E+00 0.  1.
         11    1    3    3    0    0 -0.17942869208E+02 -0.20064910921E+02  0.13609518986E+01  0.26951797640E+02  0.51100000000E-03 0. -1.
        -11    1    3    3    0    0 -0.55058822121E+01 -0.16651059118E+02 -0.84252927920E+01  0.19456568752E+02  0.51100000000E-03 0.  1.
        -12    1    3    3    0    0 -0.49610953430E+00  0.12635125249E+01 -0.24249036000E+00  0.13789090417E+01  0.00000000000E+00 0.  1.
</event>
<event>
 7    1  0.7357971E-011  0.4778727E+02  0.7816164E-02  0.1312668E+00
        -11   -1    0    0    0    0  0.00000000000E+00  0.00000000000E+00  0.45593999997E+02  0.45594000000E+02  0.51100000000E-03 0. -1.
         11   -1    0    0    0    0 -0.00000000000E+00 -0.00000000000E+00 -0.45593999997E+02  0.45594000000E+02  0.51100000000E-03 0.  1.
    9900012    2    1    2    0    0  0.18986078144E+01 -0.23077683058E+01 -0.43297720352E+02  0.47787273119E+02  0.20000009457E+02 0.  0.
         12    1    1    2    0    0 -0.18986078144E+01  0.23077683058E+01  0.43297720352E+02  0.43400726881E+02  0.00000000000E+00 0. -1.
         11    1    3    3    0    0 -0.54138250336E+00 -0.93697127453E+01 -0.19160010943E+02  0.21335197012E+02  0.51100000000E-03 0. -1.
        -11    1    3    3    0    0  0.72623038248E+00  0.47519009375E+01 -0.22761305544E+02  0.23263383319E+02  0.51100000000E-03 0.  1.
         12    1    3    3    0    0  0.17137599353E+01  0.23100435019E+01 -0.13764038640E+01  0.31886927876E+01  0.00000000000E+00 0. -1.
</event>
<event>
 7    1  0.7357971E-011  0.4778724E+02  0.7816164E-02  0.1312668E+00
        -11   -1    0    0    0    0  0.00000000000E+00  0.00000000000E+00  0.45593999997E+02  0.45594000000E+02  0.51100000000E-03 0. -1.
         11   -1    0    0    0    0 -0.00000000000E+00 -0.00000000000E+00 -0.45593999997E+02  0.45594000000E+02  0.51100000000E-03 0.  1.
    9900012    2    1    2    0    0 -0.21001329796E+02 -0.17443720502E+01  0.37941102268E+02  0.47787240463E+02  0.19999860567E+02 0.  0.
        -12    1    1    2    0    0  0.21001329796E+02  0.17443720502E+01 -0.37941102268E+02  0.43400759537E+02  0.00000000000E+00 0.  1.
         11    1    3    3    0    0 -0.10221168956E+02 -0.60820849954E+01  0.18350463624E+02  0.21867866110E+02  0.51100000000E-03 0.  1.
        -11    1    3    3    0    0 -0.11006322307E+02  0.68033499295E+01  0.19548683189E+02  0.23443031282E+02  0.51100000000E-03 0. -1.
         12    1    3    3    0    0  0.22616146745E+00 -0.24656369844E+01  0.41955455424E-01  0.24763430716E+01  0.00000000000E+00 0. -1.
</event>
<event>
 7    1  0.7357971E-011  0.4778728E+02  0.7816164E-02  0.1312668E+00
        -11   -1    0    0    0    0  0.00000000000E+00  0.00000000000E+00  0.45593999997E+02  0.45594000000E+02  0.51100000000E-03 0.  1.
         11   -1    0    0    0    0 -0.00000000000E+00 -0.00000000000E+00 -0.45593999997E+02  0.45594000000E+02  0.51100000000E-03 0. -1.
    9900012    2    1    2    0    0 -0.42304229532E+02 -0.18339001146E+01 -0.95190169393E+01  0.47787277547E+02  0.20000029650E+02 0.  0.
        -12    1    1    2    0    0  0.42304229532E+02  0.18339001146E+01  0.95190169393E+01  0.43400722453E+02  0.00000000000E+00 0.  1.
         11    1    3    3    0    0 -0.38763507823E+02 -0.20570696605E+01 -0.11937269432E+02  0.40612060722E+02  0.51100000000E-03 0. -1.
        -11    1    3    3    0    0 -0.32772866162E+01 -0.23750617096E+01  0.20527701428E+01  0.45382145398E+01  0.51100000000E-03 0.  1.
         12    1    3    3    0    0 -0.26343509236E+00  0.25982312555E+01  0.36548235008E+00  0.26370022854E+01  0.00000000000E+00 0. -1.
</event>
<event>
 7    1  0.7357971E-011  0.4778727E+02  0.7816164E-02  0.1312668E+00
        -11   -1    0    0    0    0  0.00000000000E+00  0.00000000000E+00  0.45593999997E+02  0.45594000000E+02  0.51100000000E-03 0. -1.
         11   -1    0    0    0    0 -0.00000000000E+00 -0.00000000000E+00 -0.45593999997E+02  0.45594000000E+02  0.51100000000E-03 0.  1.
    9900012    2    1    2    0    0  0.39656398987E+01  0.16633229167E+02  0.39890256648E+02  0.47787272036E+02  0.20000004523E+02 0.  0.
        -12    1    1    2    0    0 -0.39656398987E+01 -0.16633229167E+02 -0.39890256648E+02  0.43400727964E+02  0.00000000000E+00 0.  1.
         11    1    3    3    0    0 -0.36015140471E+01  0.42007860094E+01  0.24834029868E+02  0.25443005842E+02  0.51100000000E-03 0. -1.
        -11    1    3    3    0    0  0.33000915059E+01  0.11705906730E+02  0.11570357499E+02  0.16786662242E+02  0.51100000000E-03 0.  1.
         12    1    3    3    0    0  0.42670624399E+01  0.72653642727E+00  0.34858692814E+01  0.55576039526E+01  0.00000000000E+00 0. -1.
</event>
<event>
 7    1  0.7357971E-011  0.4778727E+02  0.7816164E-02  0.1312668E+00
        -11   -1    0    0    0    0  0.00000000000E+00  0.00000000000E+00  0.45593999997E+02  0.45594000000E+02  0.51100000000E-03 0. -1.
         11   -1    0    0    0    0 -0.00000000000E+00 -0.00000000000E+00 -0.45593999997E+02  0.45594000000E+02  0.51100000000E-03 0.  1.
    9900012    2    1    2    0    0  0.11882260790E+02 -0.34610429654E+02  0.23335664036E+02  0.47787272145E+02  0.20000005019E+02 0.  0.
        -12    1    1    2    0    0 -0.11882260790E+02  0.34610429654E+02 -0.23335664036E+02  0.43400727855E+02  0.00000000000E+00 0.  1.
         11    1    3    3    0    0 -0.24862781915E+01 -0.11136121914E+02  0.37182854826E+01  0.12000851542E+02  0.51100000000E-03 0. -1.
        -11    1    3    3    0    0  0.11900679706E+02 -0.13602109842E+02  0.65486094625E+01  0.19223107339E+02  0.51100000000E-03 0.  1.
         12    1    3    3    0    0  0.24678592754E+01 -0.98721978980E+01  0.13068769091E+02  0.16563313265E+02  0.00000000000E+00 0. -1.
</event>
<event>
 7    1  0.7357971E-011  0.4778728E+02  0.7816164E-02  0.1312668E+00
        -11   -1    0    0    0    0  0.00000000000E+00  0.00000000000E+00  0.45593999997E+02  0.45594000000E+02  0.51100000000E-03 0. -1.
         11   -1    0    0    0    0 -0.00000000000E+00 -0.00000000000E+00 -0.45593999997E+02  0.45594000000E+02  0.51100000000E-03 0.  1.
    9900012    2    1    2    0    0 -0.81771655807E+01  0.14588537720E+02 -0.40049109695E+02  0.47787278150E+02  0.20000032396E+02 0.  0.
         12    1    1    2    0    0  0.81771655807E+01 -0.14588537720E+02  0.40049109695E+02  0.43400721850E+02  0.00000000000E+00 0. -1.
         11    1    3    3    0    0  0.32371829118E+01  0.57152324627E+01 -0.26504631836E+01  0.70829507027E+01  0.51100000000E-03 0. -1.
        -11    1    3    3    0    0 -0.12078438281E+02  0.88326284488E+01 -0.37040439118E+02  0.39948693683E+02  0.51100000000E-03 0.  1.
        -12    1    3    3    0    0  0.66408978802E+00  0.40676807951E-01 -0.35820739345E+00  0.75563376446E+00  0.00000000000E+00 0.  1.
</event>
<event>
 7    1  0.7357971E-011  0.4778727E+02  0.7816164E-02  0.1312668E+00
        -11   -1    0    0    0    0  0.00000000000E+00  0.00000000000E+00  0.45593999997E+02  0.45594000000E+02  0.51100000000E-03 0. -1.
         11   -1    0    0    0    0 -0.00000000000E+00 -0.00000000000E+00 -0.45593999997E+02  0.45594000000E+02  0.51100000000E-03 0.  1.
    9900012    2    1    2    0    0  0.24072913602E+02  0.28161143887E+02 -0.22606812518E+02  0.47787272281E+02  0.20000005637E+02 0.  0.
         12    1    1    2    0    0 -0.24072913602E+02 -0.28161143887E+02  0.22606812518E+02  0.43400727719E+02  0.00000000000E+00 0. -1.
         11    1    3    3    0    0  0.21212244095E+02  0.19371059587E+02 -0.97704010174E+01  0.30342346405E+02  0.51100000000E-03 0. -1.
        -11    1    3    3    0    0 -0.16231236690E+01  0.40428580213E+01 -0.86587123090E+01  0.96929113550E+01  0.51100000000E-03 0.  1.
        -12    1    3    3    0    0  0.44837931760E+01  0.47472262791E+01 -0.41776991914E+01  0.77520145203E+01  0.00000000000E+00 0.  1.
</event>
<event>
 7    1  0.7357971E-011  0.4778727E+02  0.7816164E-02  0.1312668E+00
        -11   -1    0    0    0    0  0.00000000000E+00  0.00000000000E+00  0.45593999997E+02  0.45594000000E+02  0.51100000000E-03 0. -1.
         11   -1    0    0    0    0 -0.00000000000E+00 -0.00000000000E+00 -0.45593999997E+02  0.45594000000E+02  0.51100000000E-03 0.  1.
    9900012    2    1    2    0    0 -0.58649767502E+01 -0.21572994067E+02  0.37199882177E+02  0.47787271212E+02  0.20000000765E+02 0.  0.
        -12    1    1    2    0    0  0.58649767502E+01  0.21572994067E+02 -0.37199882177E+02  0.43400728788E+02  0.00000000000E+00 0.  1.
         11    1    3    3    0    0  0.37654410553E+01 -0.72144847040E+01  0.17478524929E+02  0.19280201499E+02  0.51100000000E-03 0. -1.
        -11    1    3    3    0    0 -0.20522824303E+01 -0.10776144249E+02  0.15845418851E+02  0.19272115786E+02  0.51100000000E-03 0.  1.
         12    1    3    3    0    0 -0.75781353752E+01 -0.35823651139E+01  0.38759383972E+01  0.92349539270E+01  0.00000000000E+00 0. -1.
</event>
<event>
 7    1  0.7357971E-011  0.4778726E+02  0.7816164E-02  0.1312668E+00
        -11   -1    0    0    0    0  0.00000000000E+00  0.00000000000E+00  0.45593999997E+02  0.45594000000E+02  0.51100000000E-03 0. -1.
         11   -1    0    0    0    0 -0.00000000000E+00 -0.00000000000E+00 -0.45593999997E+02  0.45594000000E+02  0.51100000000E-03 0.  1.
    9900012    2    1    2    0    0 -0.72346254203E+01  0.92513096347E+01  0.41781543757E+02  0.47787263443E+02  0.19999965343E+02 0.  0.
        -12    1    1    2    0    0  0.72346254203E+01 -0.92513096347E+01 -0.41781543757E+02  0.43400736557E+02  0.00000000000E+00 0.  1.
         11    1    3    3    0    0 -0.36635025162E+01 -0.23001641619E+01  0.39242742911E+01  0.58405423404E+01  0.51100000000E-03 0. -1.
        -11    1    3    3    0    0 -0.16803088271E+01  0.14468068604E+02  0.29677703935E+02  0.33059258280E+02  0.51100000000E-03 0.  1.
        -12    1    3    3    0    0 -0.18908140770E+01 -0.29165948078E+01  0.81795655316E+01  0.88874628232E+01  0.00000000000E+00 0.  1.
</event>
<event>
 7    1  0.7357971E-011  0.4778727E+02  0.7816164E-02  0.1312668E+00
        -11   -1    0    0    0    0  0.00000000000E+00  0.00000000000E+00  0.45593999997E+02  0.45594000000E+02  0.51100000000E-03 0.  1.
         11   -1    0    0    0    0 -0.00000000000E+00 -0.00000000000E+00 -0.45593999997E+02  0.45594000000E+02  0.51100000000E-03 0. -1.
    9900012    2    1    2    0    0 -0.42316037635E+02 -0.68674406245E+01 -0.67686344131E+01  0.47787271969E+02  0.20000004214E+02 0.  0.
         12    1    1    2    0    0  0.42316037635E+02  0.68674406245E+01  0.67686344131E+01  0.43400728031E+02  0.00000000000E+00 0. -1.
         11    1    3    3    0    0  0.16544040897E+01 -0.12992716541E+01 -0.24548787501E+01  0.32328918419E+01  0.51100000000E-03 0. -1.
        -11    1    3    3    0    0 -0.37251488241E+02 -0.46209078470E+01 -0.41649088554E+01  0.37767348749E+02  0.51100000000E-03 0.  1.
         12    1    3    3    0    0 -0.67189534834E+01 -0.94726112338E+00 -0.14884680759E+00  0.67870313775E+01  0.00000000000E+00 0. -1.
</event>
<event>
 7    1  0.7357971E-011  0.4778727E+02  0.7816164E-02  0.1312668E+00
        -11   -1    0    0    0    0  0.00000000000E+00  0.00000000000E+00  0.45593999997E+02  0.45594000000E+02  0.51100000000E-03 0.  1.
         11   -1    0    0    0    0 -0.00000000000E+00 -0.00000000000E+00 -0.45593999997E+02  0.45594000000E+02  0.51100000000E-03 0. -1.
    9900012    2    1    2    0    0 -0.31704232818E+02 -0.29313560230E+02 -0.43794949852E+01  0.47787272261E+02  0.20000005547E+02 0.  0.
        -12    1    1    2    0    0  0.31704232818E+02  0.29313560230E+02  0.43794949852E+01  0.43400727739E+02  0.00000000000E+00 0.  1.
         11    1    3    3    0    0 -0.10592594854E+01  0.19652983763E+01 -0.16153100407E+01  0.27556587514E+01  0.51100000000E-03 0. -1.
        -11    1    3    3    0    0 -0.19472246113E+02 -0.24988641012E+02 -0.48261010678E+01  0.32045152521E+02  0.51100000000E-03 0.  1.
        -12    1    3    3    0    0 -0.11172727220E+02 -0.62902175939E+01  0.20619161233E+01  0.12986460989E+02  0.00000000000E+00 0.  1.
</event>
<event>
 7    1  0.7357971E-011  0.4778727E+02  0.7816164E-02  0.1312668E+00
        -11   -1    0    0    0    0  0.00000000000E+00  0.00000000000E+00  0.45593999997E+02  0.45594000000E+02  0.51100000000E-03 0. -1.
         11   -1    0    0    0    0 -0.00000000000E+00 -0.00000000000E+00 -0.45593999997E+02  0.45594000000E+02  0.51100000000E-03 0.  1.
    9900012    2    1    2    0    0 -0.31879651355E+02  0.41674943418E+01  0.29153779888E+02  0.47787273493E+02  0.20000011162E+02 0.  0.
        -12    1    1    2    0    0  0.31879651355E+02 -0.41674943418E+01 -0.29153779888E+02  0.43400726507E+02  0.00000000000E+00 0.  1.
         11    1    3    3    0    0 -0.10922015954E+02  0.35414430754E+01  0.74788051613E+01  0.13702728869E+02  0.51100000000E-03 0. -1.
        -11    1    3    3    0    0 -0.17614087126E+02  0.25647236750E+01  0.23764048267E+02  0.29691141155E+02  0.51100000000E-03 0.  1.
        -12    1    3    3    0    0 -0.33435482754E+01 -0.19386724087E+01 -0.20890735404E+01  0.43934034683E+01  0.00000000000E+00 0.  1.
</event>
<event>
 7    1  0.7357971E-011  0.4778727E+02  0.7816164E-02  0.1312668E+00
        -11   -1    0    0    0    0  0.00000000000E+00  0.00000000000E+00  0.45593999997E+02  0.45594000000E+02  0.51100000000E-03 0. -1.
         11   -1    0    0    0    0 -0.00000000000E+00 -0.00000000000E+00 -0.45593999997E+02  0.45594000000E+02  0.51100000000E-03 0.  1.
    9900012    2    1    2    0    0  0.16363639370E+02  0.26952537343E+02 -0.29823073185E+02  0.47787266632E+02  0.19999979882E+02 0.  0.
         12    1    1    2    0    0 -0.16363639370E+02 -0.26952537343E+02  0.29823073185E+02  0.43400733368E+02  0.00000000000E+00 0. -1.
         11    1    3    3    0    0  0.83282132539E-01  0.23259303706E+01 -0.28053870427E+01  0.36451453638E+01  0.51100000000E-03 0. -1.
        -11    1    3    3    0    0  0.81571448896E+01  0.16770929383E+02 -0.27032891025E+02  0.32841746034E+02  0.51100000000E-03 0.  1.
        -12    1    3    3    0    0  0.81232123481E+01  0.78556775895E+01  0.15204882881E-01  0.11300375234E+02  0.00000000000E+00 0.  1.
</event>
<event>
 7    1  0.7357971E-011  0.4778727E+02  0.7816164E-02  0.1312668E+00
        -11   -1    0    0    0    0  0.00000000000E+00  0.00000000000E+00  0.45593999997E+02  0.45594000000E+02  0.51100000000E-03 0. -1.
         11   -1    0    0    0    0 -0.00000000000E+00 -0.00000000000E+00 -0.45593999997E+02  0.45594000000E+02  0.51100000000E-03 0.  1.
    9900012    2    1    2    0    0 -0.13087882594E+02 -0.98013513881E+01 -0.40202788262E+02  0.47787270238E+02  0.19999996325E+02 0.  0.
         12    1    1    2    0    0  0.13087882594E+02  0.98013513881E+01  0.40202788262E+02  0.43400729762E+02  0.00000000000E+00 0. -1.
         11    1    3    3    0    0 -0.14839347578E+02 -0.42824001012E+01 -0.18640824930E+02  0.24207964423E+02  0.51100000000E-03 0. -1.
        -11    1    3    3    0    0  0.36283890077E+01 -0.19123580268E+01 -0.47177671955E+01  0.62513716564E+01  0.51100000000E-03 0.  1.
         12    1    3    3    0    0 -0.18769240231E+01 -0.36065932601E+01 -0.16844196136E+02  0.17327934159E+02  0.00000000000E+00 0. -1.
</event>
<event>
 7    1  0.7357971E-011  0.4778727E+02  0.7816164E-02  0.1312668E+00
        -11   -1    0    0    0    0  0.00000000000E+00  0.00000000000E+00  0.45593999997E+02  0.45594000000E+02  0.51100000000E-03 0. -1.
         11   -1    0    0    0    0 -0.00000000000E+00 -0.00000000000E+00 -0.45593999997E+02  0.45594000000E+02  0.51100000000E-03 0.  1.
    9900012    2    1    2    0    0  0.19613761011E+02  0.12330281941E+02 -0.36699971633E+02  0.47787269688E+02  0.19999993816E+02 0.  0.
         12    1    1    2    0    0 -0.19613761011E+02 -0.12330281941E+02  0.36699971633E+02  0.43400730312E+02  0.00000000000E+00 0. -1.
         11    1    3    3    0    0 -0.47871134740E+00 -0.27672641459E+01 -0.40123067839E+00  0.28368823954E+01  0.51100000000E-03 0. -1.
        -11    1    3    3    0    0  0.20811398891E+02  0.13668484759E+02 -0.33733212075E+02  0.41926976955E+02  0.51100000000E-03 0.  1.
        -12    1    3    3    0    0 -0.71892653262E+00  0.14290613283E+01 -0.25655288791E+01  0.30234103375E+01  0.00000000000E+00 0.  1.
</event>
<event>
 7    1  0.7357971E-011  0.4778727E+02  0.7816164E-02  0.1312668E+00
        -11   -1    0    0    0    0  0.00000000000E+00  0.00000000000E+00  0.45593999997E+02  0.45594000000E+02  0.51100000000E-03 0.  1.
         11   -1    0    0    0    0 -0.00000000000E+00 -0.00000000000E+00 -0.45593999997E+02  0.45594000000E+02  0.51100000000E-03 0. -1.
    9900012    2    1    2    0    0  0.29979773814E+00 -0.43287990735E+02 -0.31117593246E+01  0.47787273432E+02  0.20000010885E+02 0.  0.
        -12    1    1    2    0    0 -0.29979773814E+00  0.43287990735E+02  0.31117593246E+01  0.43400726568E+02  0.00000000000E+00 0.  1.
         11    1    3    3    0    0 -0.64055008899E+01 -0.22128921996E+02 -0.51345244791E+01  0.23602605200E+02  0.51100000000E-03 0. -1.
        -11    1    3    3    0    0  0.49552472708E+01 -0.21323908691E+02  0.31188470866E+01  0.22113135571E+02  0.51100000000E-03 0.  1.
        -12    1    3    3    0    0  0.17500513572E+01  0.16483995186E+00 -0.10960819321E+01  0.20715326607E+01  0.00000000000E+00 0.  1.
</event>
<event>
 7    1  0.7357971E-011  0.4778727E+02  0.7816164E-02  0.1312668E+00
        -11   -1    0    0    0    0  0.00000000000E+00  0.00000000000E+00  0.45593999997E+02  0.45594000000E+02  0.51100000000E-03 0.  1.
         11   -1    0    0    0    0 -0.00000000000E+00 -0.00000000000E+00 -0.45593999997E+02  0.45594000000E+02  0.51100000000E-03 0. -1.
    9900012    2    1    2    0    0  0.30692866450E+01 -0.40047643258E+02  0.16443508550E+02  0.47787271614E+02  0.20000002595E+02 0.  0.
         12    1    1    2    0    0 -0.30692866450E+01  0.40047643258E+02 -0.16443508550E+02  0.43400728386E+02  0.00000000000E+00 0. -1.
         11    1    3    3    0    0 -0.47683093940E+00 -0.95792976471E+01 -0.19397314765E+01  0.97853395250E+01  0.51100000000E-03 0. -1.
        -11    1    3    3    0    0  0.83016078842E+01 -0.21965924397E+02  0.13782652572E+02  0.27228294846E+02  0.51100000000E-03 0.  1.
        -12    1    3    3    0    0 -0.47554902998E+01 -0.85024212145E+01  0.46005874543E+01  0.10773637242E+02  0.00000000000E+00 0.  1.
</event>
<event>
 7    1  0.7357971E-011  0.4778726E+02  0.7816164E-02  0.1312668E+00
        -11   -1    0    0    0    0  0.00000000000E+00  0.00000000000E+00  0.45593999997E+02  0.45594000000E+02  0.51100000000E-03 0.  1.
         11   -1    0    0    0    0 -0.00000000000E+00 -0.00000000000E+00 -0.45593999997E+02  0.45594000000E+02  0.51100000000E-03 0. -1.
    9900012    2    1    2    0    0 -0.41121260613E+02  0.13761402824E+02  0.18137122018E+01  0.47787264591E+02  0.19999970578E+02 0.  0.
        -12    1    1    2    0    0  0.41121260613E+02 -0.13761402824E+02 -0.18137122018E+01  0.43400735409E+02  0.00000000000E+00 0.  1.
         11    1    3    3    0    0 -0.99016543391E+01  0.11024358577E+02  0.33316696519E+01  0.15188129036E+02  0.51100000000E-03 0. -1.
        -11    1    3    3    0    0 -0.22566167162E+02 -0.57478021181E+00  0.20588457298E+01  0.22667181534E+02  0.51100000000E-03 0.  1.
         12    1    3    3    0    0 -0.86534391115E+01  0.33118244591E+01 -0.35768031800E+01  0.99319540219E+01  0.00000000000E+00 0. -1.
</event>
<event>
 7    1  0.7357971E-011  0.4778727E+02  0.7816164E-02  0.1312668E+00
        -11   -1    0    0    0    0  0.00000000000E+00  0.00000000000E+00  0.45593999997E+02  0.45594000000E+02  0.51100000000E-03 0. -1.
         11   -1    0    0    0    0 -0.00000000000E+00 -0.00000000000E+00 -0.45593999997E+02  0.45594000000E+02  0.51100000000E-03 0.  1.
    9900012    2    1    2    0    0  0.19949636773E+01 -0.14605150822E+01 -0.43330247776E+02  0.47787270090E+02  0.19999995649E+02 0.  0.
         12    1    1    2    0    0 -0.19949636773E+01  0.14605150822E+01  0.43330247776E+02  0.43400729910E+02  0.00000000000E+00 0. -1.
         11    1    3    3    0    0  0.79712340486E+01 -0.11753172135E+01 -0.12856200010E+02  0.15172469204E+02  0.51100000000E-03 0. -1.
        -11    1    3    3    0    0 -0.71325843173E+01 -0.21574495119E+01 -0.29057417634E+02  0.29997697699E+02  0.51100000000E-03 0.  1.
         12    1    3    3    0    0  0.11563139459E+01  0.18722516432E+01 -0.14166301323E+01  0.26171031865E+01  0.00000000000E+00 0. -1.
</event>
<event>
 7    1  0.7357971E-011  0.4778727E+02  0.7816164E-02  0.1312668E+00
        -11   -1    0    0    0    0  0.00000000000E+00  0.00000000000E+00  0.45593999997E+02  0.45594000000E+02  0.51100000000E-03 0. -1.
         11   -1    0    0    0    0 -0.00000000000E+00 -0.00000000000E+00 -0.45593999997E+02  0.45594000000E+02  0.51100000000E-03 0.  1.
    9900012    2    1    2    0    0 -0.31761593466E+02  0.13926892348E+02  0.26093411591E+02  0.47787270992E+02  0.19999999760E+02 0.  0.
        -12    1    1    2    0    0  0.31761593466E+02 -0.13926892348E+02 -0.26093411591E+02  0.43400729008E+02  0.00000000000E+00 0.  1.
         11    1    3    3    0    0 -0.22121697308E+02  0.16026355883E+01  0.14426729110E+02  0.26458806581E+02  0.51100000000E-03 0. -1.
        -11    1    3    3    0    0  0.13439692557E+01  0.21720815153E+01  0.33566816840E+01  0.42179975887E+01  0.51100000000E-03 0.  1.
         12    1    3    3    0    0 -0.10983865414E+02  0.10152175245E+02  0.83100007965E+01  0.17110466822E+02  0.00000000000E+00 0. -1.
</event>
<event>
 7    1  0.7357971E-011  0.4778729E+02  0.7816164E-02  0.1312668E+00
        -11   -1    0    0    0    0  0.00000000000E+00  0.00000000000E+00  0.45593999997E+02  0.45594000000E+02  0.51100000000E-03 0. -1.
         11   -1    0    0    0    0 -0.00000000000E+00 -0.00000000000E+00 -0.45593999997E+02  0.45594000000E+02  0.51100000000E-03 0.  1.
    9900012    2    1    2    0    0 -0.26904457885E+01  0.81255468117E+00  0.43309620848E+02  0.47787285701E+02  0.20000066825E+02 0.  0.
        -12    1    1    2    0    0  0.26904457885E+01 -0.81255468117E+00 -0.43309620848E+02  0.43400714299E+02  0.00000000000E+00 0.  1.
         11    1    3    3    0    0  0.24149912445E+01 -0.20452393130E+01  0.12256603400E+02  0.12658574711E+02  0.51100000000E-03 0. -1.
        -11    1    3    3    0    0  0.44439153542E+01 -0.27007455369E+01  0.12439010531E+02  0.13482262176E+02  0.51100000000E-03 0.  1.
        -12    1    3    3    0    0 -0.95493523872E+01  0.55585395310E+01  0.18614006918E+02  0.21646448814E+02  0.00000000000E+00 0.  1.
</event>
<event>
 7    1  0.7357971E-011  0.4778727E+02  0.7816164E-02  0.1312668E+00
        -11   -1    0    0    0    0  0.00000000000E+00  0.00000000000E+00  0.45593999997E+02  0.45594000000E+02  0.51100000000E-03 0. -1.
         11   -1    0    0    0    0 -0.00000000000E+00 -0.00000000000E+00 -0.45593999997E+02  0.45594000000E+02  0.51100000000E-03 0.  1.
    9900012    2    1    2    0    0  0.57116681325E+01 -0.86225485952E+01 -0.42150345272E+02  0.47787273005E+02  0.20000008941E+02 0.  0.
         12    1    1    2    0    0 -0.57116681325E+01  0.86225485952E+01  0.42150345272E+02  0.43400726995E+02  0.00000000000E+00 0. -1.
         11    1    3    3    0    0  0.20404211435E+01  0.12917877785E+01 -0.41123086550E+01  0.47689744016E+01  0.51100000000E-03 0. -1.
        -11    1    3    3    0    0 -0.21971237351E+01  0.40591185457E+01 -0.12458754522E+02  0.13286247046E+02  0.51100000000E-03 0.  1.
        -12    1    3    3    0    0  0.58683707241E+01 -0.13973454919E+02 -0.25579282095E+02  0.29732051558E+02  0.00000000000E+00 0.  1.
</event>
<event>
 7    1  0.7357971E-011  0.4778727E+02  0.7816164E-02  0.1312668E+00
        -11   -1    0    0    0    0  0.00000000000E+00  0.00000000000E+00  0.45593999997E+02  0.45594000000E+02  0.51100000000E-03 0. -1.
         11   -1    0    0    0    0 -0.00000000000E+00 -0.00000000000E+00 -0.45593999997E+02  0.45594000000E+02  0.51100000000E-03 0.  1.
    9900012    2    1    2    0    0 -0.31747282036E+02  0.11157027360E+02 -0.27409014900E+02  0.47787271043E+02  0.19999999993E+02 0.  0.
         12    1    1    2    0    0  0.31747282036E+02 -0.11157027360E+02  0.27409014900E+02  0.43400728957E+02  0.00000000000E+00 0. -1.
         11    1    3    3    0    0 -0.12099891582E+02 -0.31342727308E+01 -0.61269929420E+01  0.13920168268E+02  0.51100000000E-03 0. -1.
        -11    1    3    3    0    0 -0.17250688581E+02  0.14189434976E+02 -0.14392725215E+02  0.26572106819E+02  0.51100000000E-03 0.  1.
        -12    1    3    3    0    0 -0.23967018738E+01  0.10186511549E+00 -0.68892967434E+01  0.72949959556E+01  0.00000000000E+00 0.  1.
</event>
<event>
 7    1  0.7357971E-011  0.4778727E+02  0.7816164E-02  0.1312668E+00
        -11   -1    0    0    0    0  0.00000000000E+00  0.00000000000E+00  0.45593999997E+02  0.45594000000E+02  0.51100000000E-03 0. -1.
         11   -1    0    0    0    0 -0.00000000000E+00 -0.00000000000E+00 -0.45593999997E+02  0.45594000000E+02  0.51100000000E-03 0.  1.
    9900012    2    1    2    0    0 -0.38882165636E+01 -0.15173038074E+02 -0.40475725811E+02  0.47787266223E+02  0.19999978018E+02 0.  0.
         12    1    1    2    0    0  0.38882165636E+01  0.15173038074E+02  0.40475725811E+02  0.43400733777E+02  0.00000000000E+00 0. -1.
         11    1    3    3    0    0 -0.65413454935E+01 -0.59856221333E+01 -0.28808566176E+02  0.30142169109E+02  0.51100000000E-03 0. -1.
        -11    1    3    3    0    0  0.45667104502E+01 -0.92458720412E+00 -0.31436960404E+01  0.56207233422E+01  0.51100000000E-03 0.  1.
        -12    1    3    3    0    0 -0.19135815203E+01 -0.82628287370E+01 -0.85234635940E+01  0.12024373772E+02  0.00000000000E+00 0.  1.
</event>
<event>
 7    1  0.7357971E-011  0.4778727E+02  0.7816164E-02  0.1312668E+00
        -11   -1    0    0    0    0  0.00000000000E+00  0.00000000000E+00  0.45593999997E+02  0.45594000000E+02  0.51100000000E-03 0.  1.
         11   -1    0    0    0    0 -0.00000000000E+00 -0.00000000000E+00 -0.45593999997E+02  0.45594000000E+02  0.51100000000E-03 0. -1.
    9900012    2    1    2    0    0  0.82839154265E+01 -0.41794139100E+02  0.82613483498E+01  0.47787271959E+02  0.20000004169E+02 0.  0.
        -12    1    1    2    0    0 -0.82839154265E+01  0.41794139100E+02 -0.82613483498E+01  0.43400728041E+02  0.00000000000E+00 0.  1.
         11    1    3    3    0    0 -0.46943299859E+01 -0.11212742562E+02  0.17264090054E+01  0.12277736685E+02  0.51100000000E-03 0.  1.
        -11    1    3    3    0    0  0.19791109114E+00 -0.41843153141E+01  0.44436816135E+01  0.61068789075E+01  0.51100000000E-03 0. -1.
         12    1    3    3    0    0  0.12780334321E+02 -0.26397081224E+02  0.20912577309E+01  0.29402656367E+02  0.00000000000E+00 0. -1.
</event>
<event>
 7    1  0.7357971E-011  0.4778727E+02  0.7816164E-02  0.1312668E+00
        -11   -1    0    0    0    0  0.00000000000E+00  0.00000000000E+00  0.45593999997E+02  0.45594000000E+02  0.51100000000E-03 0. -1.
         11   -1    0    0    0    0 -0.00000000000E+00 -0.00000000000E+00 -0.45593999997E+02  0.45594000000E+02  0.51100000000E-03 0.  1.
    9900012    2    1    2    0    0 -0.13416699557E+02 -0.29024831857E+02 -0.29345774672E+02  0.47787272098E+02  0.20000004804E+02 0.  0.
         12    1    1    2    0    0  0.13416699557E+02  0.29024831857E+02  0.29345774672E+02  0.43400727902E+02  0.00000000000E+00 0. -1.
         11    1    3    3    0    0 -0.15269542665E+02 -0.14889064268E+02 -0.19630062245E+02  0.28985901952E+02  0.51100000000E-03 0.  1.
        -11    1    3    3    0    0 -0.28360188934E+01 -0.53656900653E+01 -0.46171444243E+01  0.76257233058E+01  0.51100000000E-03 0. -1.
         12    1    3    3    0    0  0.46888620007E+01 -0.87700775232E+01 -0.50985680031E+01  0.11175646841E+02  0.00000000000E+00 0. -1.
</event>
<event>
 7    1  0.7357971E-011  0.4778727E+02  0.7816164E-02  0.1312668E+00
        -11   -1    0    0    0    0  0.00000000000E+00  0.00000000000E+00  0.45593999997E+02  0.45594000000E+02  0.51100000000E-03 0. -1.
         11   -1    0    0    0    0 -0.00000000000E+00 -0.00000000000E+00 -0.45593999997E+02  0.45594000000E+02  0.51100000000E-03 0.  1.
    9900012    2    1    2    0    0  0.64795398632E+01 -0.36596294664E+02  0.22413166664E+02  0.47787271205E+02  0.20000000734E+02 0.  0.
        -12    1    1    2    0    0 -0.64795398632E+01  0.36596294664E+02 -0.22413166664E+02  0.43400728795E+02  0.00000000000E+00 0.  1.
         11    1    3    3    0    0  0.12299071795E+00 -0.25145671875E+02  0.19208548704E+02  0.31643139609E+02  0.51100000000E-03 0. -1.
        -11    1    3    3    0    0  0.40441228355E+01 -0.12602360812E+02  0.25439117458E+01  0.13477607902E+02  0.51100000000E-03 0.  1.
         12    1    3    3    0    0  0.23124263097E+01  0.11517380221E+01  0.66070621413E+00  0.26665236940E+01  0.00000000000E+00 0. -1.
</event>
<event>
 7    1  0.7357971E-011  0.4778727E+02  0.7816164E-02  0.1312668E+00
        -11   -1    0    0    0    0  0.00000000000E+00  0.00000000000E+00  0.45593999997E+02  0.45594000000E+02  0.51100000000E-03 0. -1.
         11   -1    0    0    0    0 -0.00000000000E+00 -0.00000000000E+00 -0.45593999997E+02  0.45594000000E+02  0.51100000000E-03 0.  1.
    9900012    2    1    2    0    0 -0.40825427334E+02  0.30333258216E+01 -0.14412040580E+02  0.47787268483E+02  0.19999988321E+02 0.  0.
         12    1    1    2    0    0  0.40825427334E+02 -0.30333258216E+01  0.14412040580E+02  0.43400731517E+02  0.00000000000E+00 0. -1.
         11    1    3    3    0    0 -0.14441364987E+02 -0.61170384939E+01 -0.30078861781E+01  0.15969300615E+02  0.51100000000E-03 0. -1.
        -11    1    3    3    0    0 -0.19533191314E+01  0.43260176371E+01 -0.11297062345E+01  0.48791516335E+01  0.51100000000E-03 0.  1.
         12    1    3    3    0    0 -0.24430743216E+02  0.48243466785E+01 -0.10274448168E+02  0.26938816234E+02  0.00000000000E+00 0. -1.
</event>
<event>
 7    1  0.7357971E-011  0.4778726E+02  0.7816164E-02  0.1312668E+00
        -11   -1    0    0    0    0  0.00000000000E+00  0.00000000000E+00  0.45593999997E+02  0.45594000000E+02  0.51100000000E-03 0. -1.
         11   -1    0    0    0    0 -0.00000000000E+00 -0.00000000000E+00 -0.45593999997E+02  0.45594000000E+02  0.51100000000E-03 0.  1.
    9900012    2    1    2    0    0 -0.50718421566E+01  0.24723403880E+02  0.35307989932E+02  0.47787257664E+02  0.19999938995E+02 0.  0.
        -12    1    1    2    0    0  0.50718421566E+01 -0.24723403880E+02 -0.35307989932E+02  0.43400742336E+02  0.00000000000E+00 0.  1.
         11    1    3    3    0    0 -0.11463834793E+02  0.12736773630E+02  0.18346567283E+02  0.25104609975E+02  0.51100000000E-03 0. -1.
        -11    1    3    3    0    0  0.58346508773E+01  0.11384241962E+02  0.11631022014E+02  0.17289441554E+02  0.51100000000E-03 0.  1.
        -12    1    3    3    0    0  0.55734175913E+00  0.60238828780E+00  0.53304006357E+01  0.53932061358E+01  0.00000000000E+00 0.  1.
</event>
<event>
 7    1  0.7357971E-011  0.4778727E+02  0.7816164E-02  0.1312668E+00
        -11   -1    0    0    0    0  0.00000000000E+00  0.00000000000E+00  0.45593999997E+02  0.45594000000E+02  0.51100000000E-03 0. -1.
         11   -1    0    0    0    0 -0.00000000000E+00 -0.00000000000E+00 -0.45593999997E+02  0.45594000000E+02  0.51100000000E-03 0.  1.
    9900012    2    1    2    0    0 -0.10643199535E+02 -0.30733381033E+02 -0.28736816985E+02  0.47787273549E+02  0.20000011418E+02 0.  0.
         12    1    1    2    0    0  0.10643199535E+02  0.30733381033E+02  0.28736816985E+02  0.43400726451E+02  0.00000000000E+00 0. -1.
         11    1    3    3    0    0  0.48376758422E+01 -0.59578808482E+01 -0.50008295667E+01  0.91601172685E+01  0.51100000000E-03 0. -1.
        -11    1    3    3    0    0 -0.13799342697E+02 -0.14537354915E+02 -0.14529265074E+02  0.24755930413E+02  0.51100000000E-03 0.  1.
        -12    1    3    3    0    0 -0.16815326808E+01 -0.10238145270E+02 -0.92067223445E+01  0.13871225867E+02  0.00000000000E+00 0.  1.
</event>
<event>
 7    1  0.7357971E-011  0.4778728E+02  0.7816164E-02  0.1312668E+00
        -11   -1    0    0    0    0  0.00000000000E+00  0.00000000000E+00  0.45593999997E+02  0.45594000000E+02  0.51100000000E-03 0.  1.
         11   -1    0    0    0    0 -0.00000000000E+00 -0.00000000000E+00 -0.45593999997E+02  0.45594000000E+02  0.51100000000E-03 0. -1.
    9900012    2    1    2    0    0 -0.23162466610E+02  0.32576100570E+02  0.16909180760E+02  0.47787279018E+02  0.20000036352E+02 0.  0.
        -12    1    1    2    0    0  0.23162466610E+02 -0.32576100570E+02 -0.16909180760E+02  0.43400720982E+02  0.00000000000E+00 0.  1.
         11    1    3    3    0    0 -0.50381984061E+01  0.97809899539E+01  0.11561830039E+01  0.11062909520E+02  0.51100000000E-03 0. -1.
        -11    1    3    3    0    0 -0.13344784416E+02  0.23352224099E+02  0.88600288086E+01  0.28318011092E+02  0.51100000000E-03 0.  1.
        -12    1    3    3    0    0 -0.47794837885E+01 -0.55711348298E+00  0.68929689474E+01  0.84063584047E+01  0.00000000000E+00 0.  1.
</event>
<event>
 7    1  0.7357971E-011  0.4778727E+02  0.7816164E-02  0.1312668E+00
        -11   -1    0    0    0    0  0.00000000000E+00  0.00000000000E+00  0.45593999997E+02  0.45594000000E+02  0.51100000000E-03 0. -1.
         11   -1    0    0    0    0 -0.00000000000E+00 -0.00000000000E+00 -0.45593999997E+02  0.45594000000E+02  0.51100000000E-03 0.  1.
    9900012    2    1    2    0    0  0.17753015215E+02 -0.17291480329E+02 -0.35629458162E+02  0.47787272701E+02  0.20000007551E+02 0.  0.
         12    1    1    2    0    0 -0.17753015215E+02  0.17291480329E+02  0.35629458162E+02  0.43400727299E+02  0.00000000000E+00 0. -1.
         11    1    3    3    0    0  0.58228516807E+01 -0.10419189346E+01 -0.80525371984E+01  0.99917241933E+01  0.51100000000E-03 0. -1.
        -11    1    3    3    0    0 -0.30599660819E+01  0.71154858004E+00 -0.25131440815E+01  0.40231315215E+01  0.51100000000E-03 0.  1.
        -12    1    3    3    0    0  0.14990129616E+02 -0.16961109974E+02 -0.25063776883E+02  0.33772416986E+02  0.00000000000E+00 0.  1.
</event>
<event>
 7    1  0.7357971E-011  0.4778727E+02  0.7816164E-02  0.1312668E+00
        -11   -1    0    0    0    0  0.00000000000E+00  0.00000000000E+00  0.45593999997E+02  0.45594000000E+02  0.51100000000E-03 0.  1.
         11   -1    0    0    0    0 -0.00000000000E+00 -0.00000000000E+00 -0.45593999997E+02  0.45594000000E+02  0.51100000000E-03 0. -1.
    9900012    2    1    2    0    0 -0.37039573810E+02  0.12008391636E+02  0.19170074742E+02  0.47787271166E+02  0.20000000552E+02 0.  0.
        -12    1    1    2    0    0  0.37039573810E+02 -0.12008391636E+02 -0.19170074742E+02  0.43400728834E+02  0.00000000000E+00 0.  1.
         11    1    3    3    0    0 -0.18230441763E+02  0.65224336757E+01  0.18002030146E+01  0.19445613363E+02  0.51100000000E-03 0. -1.
        -11    1    3    3    0    0 -0.24338175713E+01  0.48974740801E+01  0.72547321723E+01  0.90851449899E+01  0.51100000000E-03 0.  1.
         12    1    3    3    0    0 -0.16375314476E+02  0.58848388070E+00  0.10115139555E+02  0.19256512812E+02  0.00000000000E+00 0. -1.
</event>
<event>
 7    1  0.7357971E-011  0.4778727E+02  0.7816164E-02  0.1312668E+00
        -11   -1    0    0    0    0  0.00000000000E+00  0.00000000000E+00  0.45593999997E+02  0.45594000000E+02  0.51100000000E-03 0. -1.
         11   -1    0    0    0    0 -0.00000000000E+00 -0.00000000000E+00 -0.45593999997E+02  0.45594000000E+02  0.51100000000E-03 0.  1.
    9900012    2    1    2    0    0 -0.13770678448E+02 -0.25343378384E+02 -0.32430001175E+02  0.47787269717E+02  0.19999993949E+02 0.  0.
         12    1    1    2    0    0  0.13770678448E+02  0.25343378384E+02  0.32430001175E+02  0.43400730283E+02  0.00000000000E+00 0. -1.
         11    1    3    3    0    0  0.19325587965E+01 -0.16189249560E+02 -0.17616159032E+02  0.24003242367E+02  0.51100000000E-03 0. -1.
        -11    1    3    3    0    0 -0.10164533287E+02 -0.36541706668E+01 -0.85355830464E+01  0.13766876131E+02  0.51100000000E-03 0.  1.
        -12    1    3    3    0    0 -0.55387039575E+01 -0.54999581571E+01 -0.62782590964E+01  0.10017151219E+02  0.00000000000E+00 0.  1.
</event>
<event>
 7    1  0.7357971E-011  0.4778727E+02  0.7816164E-02  0.1312668E+00
        -11   -1    0    0    0    0  0.00000000000E+00  0.00000000000E+00  0.45593999997E+02  0.45594000000E+02  0.51100000000E-03 0. -1.
         11   -1    0    0    0    0 -0.00000000000E+00 -0.00000000000E+00 -0.45593999997E+02  0.45594000000E+02  0.51100000000E-03 0.  1.
    9900012    2    1    2    0    0 -0.94885296093E+01  0.38278054062E+02  0.18121303219E+02  0.47787271351E+02  0.20000001396E+02 0.  0.
        -12    1    1    2    0    0  0.94885296093E+01 -0.38278054062E+02 -0.18121303219E+02  0.43400728649E+02  0.00000000000E+00 0.  1.
         11    1    3    3    0    0 -0.78950429855E+01  0.35477680520E+02  0.20928706798E+02  0.41940532749E+02  0.51100000000E-03 0. -1.
        -11    1    3    3    0    0 -0.17647793909E+01  0.51348201623E+00 -0.30287320821E+01  0.35427853965E+01  0.51100000000E-03 0.  1.
         12    1    3    3    0    0  0.17129276714E+00  0.22868915259E+01  0.22132850371E+00  0.23039532048E+01  0.00000000000E+00 0. -1.
</event>
<event>
 7    1  0.7357971E-011  0.4778726E+02  0.7816164E-02  0.1312668E+00
        -11   -1    0    0    0    0  0.00000000000E+00  0.00000000000E+00  0.45593999997E+02  0.45594000000E+02  0.51100000000E-03 0.  1.
         11   -1    0    0    0    0 -0.00000000000E+00 -0.00000000000E+00 -0.45593999997E+02  0.45594000000E+02  0.51100000000E-03 0. -1.
    9900012    2    1    2    0    0  0.35928918520E+02  0.14877895545E+02 -0.19271351594E+02  0.47787263207E+02  0.19999964268E+02 0.  0.
        -12    1    1    2    0    0 -0.35928918520E+02 -0.14877895545E+02  0.19271351594E+02  0.43400736793E+02  0.00000000000E+00 0.  1.
         11    1    3    3    0    0  0.20319739283E+02  0.12338871884E+02 -0.18272802774E+02  0.29983910442E+02  0.51100000000E-03 0. -1.
        -11    1    3    3    0    0  0.37226041711E+01 -0.25387196904E+01  0.12669447475E+01  0.46806013220E+01  0.51100000000E-03 0.  1.
        -12    1    3    3    0    0  0.11886575066E+02  0.50777433513E+01 -0.22654935672E+01  0.13122751444E+02  0.00000000000E+00 0.  1.
</event>
<event>
 7    1  0.7357971E-011  0.4778727E+02  0.7816164E-02  0.1312668E+00
        -11   -1    0    0    0    0  0.00000000000E+00  0.00000000000E+00  0.45593999997E+02  0.45594000000E+02  0.51100000000E-03 0.  1.
         11   -1    0    0    0    0 -0.00000000000E+00 -0.00000000000E+00 -0.45593999997E+02  0.45594000000E+02  0.51100000000E-03 0. -1.
    9900012    2    1    2    0    0  0.43255359496E+02  0.33481770538E+00 -0.35333873104E+01  0.47787273579E+02  0.20000011555E+02 0.  0.
         12    1    1    2    0    0 -0.43255359496E+02 -0.33481770538E+00  0.35333873104E+01  0.43400726421E+02  0.00000000000E+00 0. -1.
         11    1    3    3    0    0  0.68813762780E+00 -0.28194003755E+01  0.35984104886E+00  0.29243867243E+01  0.51100000000E-03 0. -1.
        -11    1    3    3    0    0  0.24556561198E+02  0.67557334476E+01  0.20674466170E+01  0.25552670469E+02  0.51100000000E-03 0.  1.
        -12    1    3    3    0    0  0.18010660670E+02 -0.36015153667E+01 -0.59606749762E+01  0.19310216386E+02  0.00000000000E+00 0.  1.
</event>
<event>
 7    1  0.7357971E-011  0.4778727E+02  0.7816164E-02  0.1312668E+00
        -11   -1    0    0    0    0  0.00000000000E+00  0.00000000000E+00  0.45593999997E+02  0.45594000000E+02  0.51100000000E-03 0. -1.
         11   -1    0    0    0    0 -0.00000000000E+00 -0.00000000000E+00 -0.45593999997E+02  0.45594000000E+02  0.51100000000E-03 0.  1.
    9900012    2    1    2    0    0 -0.23680825423E+02 -0.29234795294E+02  0.21637200997E+02  0.47787271716E+02  0.20000003063E+02 0.  0.
        -12    1    1    2    0    0  0.23680825423E+02  0.29234795294E+02 -0.21637200997E+02  0.43400728284E+02  0.00000000000E+00 0.  1.
         11    1    3    3    0    0 -0.17451720059E+02 -0.13117126291E+02  0.18340022284E+02  0.28512768241E+02  0.51100000000E-03 0. -1.
        -11    1    3    3    0    0 -0.30422901878E+01 -0.15394648166E+02  0.23145151223E+01  0.15862146836E+02  0.51100000000E-03 0.  1.
        -12    1    3    3    0    0 -0.31868151767E+01 -0.72302083757E+00  0.98266359063E+00  0.34123566393E+01  0.00000000000E+00 0.  1.
</event>
<event>
 7    1  0.7357971E-011  0.4778726E+02  0.7816164E-02  0.1312668E+00
        -11   -1    0    0    0    0  0.00000000000E+00  0.00000000000E+00  0.45593999997E+02  0.45594000000E+02  0.51100000000E-03 0. -1.
         11   -1    0    0    0    0 -0.00000000000E+00 -0.00000000000E+00 -0.45593999997E+02  0.45594000000E+02  0.51100000000E-03 0.  1.
    9900012    2    1    2    0    0  0.18981614039E+02 -0.99160434318E+01  0.37749103305E+02  0.47787258196E+02  0.19999941417E+02 0.  0.
        -12    1    1    2    0    0 -0.18981614039E+02  0.99160434318E+01 -0.37749103305E+02  0.43400741804E+02  0.00000000000E+00 0.  1.
         11    1    3    3    0    0  0.73308375603E+01 -0.29080560399E+01  0.13619576461E+02  0.15738196609E+02  0.51100000000E-03 0. -1.
        -11    1    3    3    0    0  0.93011214175E+01  0.62391867199E+00  0.21833210624E+02  0.23740034131E+02  0.51100000000E-03 0.  1.
        -12    1    3    3    0    0  0.23496550609E+01 -0.76319060638E+01  0.22963162197E+01  0.83090274553E+01  0.00000000000E+00 0.  1.
</event>
<event>
 7    1  0.9877720E-011  0.4778727E+02  0.7816164E-02  0.1312668E+00
        -11   -1    0    0    0    0  0.00000000000E+00  0.00000000000E+00  0.45593999997E+02  0.45594000000E+02  0.51100000000E-03 0. -1.
         11   -1    0    0    0    0 -0.00000000000E+00 -0.00000000000E+00 -0.45593999997E+02  0.45594000000E+02  0.51100000000E-03 0.  1.
    9900012    2    1    2    0    0 -0.23963426385E+02  0.56624214589E+01  0.35739537329E+02  0.47787270175E+02  0.19999996034E+02 0.  0.
        -12    1    1    2    0    0  0.23963426385E+02 -0.56624214589E+01 -0.35739537329E+02  0.43400729825E+02  0.00000000000E+00 0.  1.
         11    1    3    3    0    0 -0.71229349166E+01  0.78570624141E+01  0.21740477120E+02  0.24189212002E+02  0.51100000000E-03 0. -1.
        -11    1    3    3    0    0 -0.52920086283E+00  0.13742570769E+01 -0.42572901504E+00  0.15329323280E+01  0.51100000000E-03 0.  1.
         12    1    3    3    0    0 -0.16311290606E+02 -0.35688980321E+01  0.14424789223E+02  0.22065125844E+02  0.00000000000E+00 0. -1.
</event>
<event>
 7    1  0.8044854E-011  0.4778728E+02  0.7816164E-02  0.1312668E+00
        -11   -1    0    0    0    0  0.00000000000E+00  0.00000000000E+00  0.45593999997E+02  0.45594000000E+02  0.51100000000E-03 0. -1.
         11   -1    0    0    0    0 -0.00000000000E+00 -0.00000000000E+00 -0.45593999997E+02  0.45594000000E+02  0.51100000000E-03 0.  1.
    9900012    2    1    2    0    0 -0.92499441724E+01 -0.18618885062E+02 -0.38097221290E+02  0.47787278599E+02  0.20000034445E+02 0.  0.
         12    1    1    2    0    0  0.92499441724E+01  0.18618885062E+02  0.38097221290E+02  0.43400721401E+02  0.00000000000E+00 0. -1.
         11    1    3    3    0    0 -0.12586279998E+01  0.25779851473E+00 -0.70303167912E+01  0.71467446409E+01  0.51100000000E-03 0. -1.
        -11    1    3    3    0    0 -0.74732499685E+01 -0.11858586136E+01 -0.47773758396E+01  0.89486896201E+01  0.51100000000E-03 0.  1.
        -12    1    3    3    0    0 -0.51806620404E+00 -0.17690824963E+02 -0.26289528659E+02  0.31691844338E+02  0.00000000000E+00 0.  1.
</event>
<event>
 7    1  0.7357971E-011  0.4778727E+02  0.7816164E-02  0.1312668E+00
        -11   -1    0    0    0    0  0.00000000000E+00  0.00000000000E+00  0.45593999997E+02  0.45594000000E+02  0.51100000000E-03 0. -1.
         11   -1    0    0    0    0 -0.00000000000E+00 -0.00000000000E+00 -0.45593999997E+02  0.45594000000E+02  0.51100000000E-03 0.  1.
    9900012    2    1    2    0    0  0.16636580667E+02 -0.11835547883E+01  0.40068027160E+02  0.47787269375E+02  0.19999992389E+02 0.  0.
        -12    1    1    2    0    0 -0.16636580667E+02  0.11835547883E+01 -0.40068027160E+02  0.43400730625E+02  0.00000000000E+00 0.  1.
         11    1    3    3    0    0 -0.10113537280E-01 -0.13069215286E+01  0.12120962553E+02  0.12191221417E+02  0.51100000000E-03 0. -1.
        -11    1    3    3    0    0  0.17173702350E+02  0.12024778232E+01  0.15729185514E+02  0.23319289923E+02  0.51100000000E-03 0.  1.
        -12    1    3    3    0    0 -0.52700814500E+00 -0.10791110829E+01  0.12217879093E+02  0.12276758035E+02  0.00000000000E+00 0.  1.
</event>
<event>
 7    1  0.8442174E-011  0.4778731E+02  0.7816164E-02  0.1312668E+00
        -11   -1    0    0    0    0  0.00000000000E+00  0.00000000000E+00  0.45593999997E+02  0.45594000000E+02  0.51100000000E-03 0. -1.
         11   -1    0    0    0    0 -0.00000000000E+00 -0.00000000000E+00 -0.45593999997E+02  0.45594000000E+02  0.51100000000E-03 0.  1.
    9900012    2    1    2    0    0 -0.20891300347E+02  0.60490920514E+01  0.37557715931E+02  0.47787309098E+02  0.20000173499E+02 0.  0.
        -12    1    1    2    0    0  0.20891300347E+02 -0.60490920514E+01 -0.37557715931E+02  0.43400690902E+02  0.00000000000E+00 0.  1.
         11    1    3    3    0    0 -0.74377839128E+01  0.23301299444E+01  0.93875196152E+01  0.12201461383E+02  0.51100000000E-03 0. -1.
        -11    1    3    3    0    0 -0.10236644518E+02  0.99303297558E+01  0.22216316520E+02  0.26400095834E+02  0.51100000000E-03 0.  1.
        -12    1    3    3    0    0 -0.32168719165E+01 -0.62113676488E+01  0.59538797957E+01  0.91857518809E+01  0.00000000000E+00 0.  1.
</event>
<event>
 7    1  0.7357971E-011  0.4778727E+02  0.7816164E-02  0.1312668E+00
        -11   -1    0    0    0    0  0.00000000000E+00  0.00000000000E+00  0.45593999997E+02  0.45594000000E+02  0.51100000000E-03 0. -1.
         11   -1    0    0    0    0 -0.00000000000E+00 -0.00000000000E+00 -0.45593999997E+02  0.45594000000E+02  0.51100000000E-03 0.  1.
    9900012    2    1    2    0    0 -0.18275475766E+02 -0.15061917759E+01 -0.39336514680E+02  0.47787274023E+02  0.20000013582E+02 0.  0.
         12    1    1    2    0    0  0.18275475766E+02  0.15061917759E+01  0.39336514680E+02  0.43400725977E+02  0.00000000000E+00 0. -1.
         11    1    3    3    0    0  0.11580705921E+01  0.44450206856E+01 -0.49792354822E+01  0.67743724905E+01  0.51100000000E-03 0. -1.
        -11    1    3    3    0    0 -0.16064311764E+02 -0.91784673024E+00 -0.22058183659E+02  0.27303260275E+02  0.51100000000E-03 0.  1.
         12    1    3    3    0    0 -0.33692345942E+01 -0.50333657312E+01 -0.12299095539E+02  0.13709641258E+02  0.00000000000E+00 0. -1.
</event>
<event>
 7    1  0.7357971E-011  0.4778727E+02  0.7816164E-02  0.1312668E+00
        -11   -1    0    0    0    0  0.00000000000E+00  0.00000000000E+00  0.45593999997E+02  0.45594000000E+02  0.51100000000E-03 0.  1.
         11   -1    0    0    0    0 -0.00000000000E+00 -0.00000000000E+00 -0.45593999997E+02  0.45594000000E+02  0.51100000000E-03 0. -1.
    9900012    2    1    2    0    0 -0.30232854957E+02  0.30123246994E+02 -0.78859260803E+01  0.47787270070E+02  0.19999995557E+02 0.  0.
         12    1    1    2    0    0  0.30232854957E+02 -0.30123246994E+02  0.78859260803E+01  0.43400729930E+02  0.00000000000E+00 0. -1.
         11    1    3    3    0    0 -0.54584564784E+01  0.67861239824E-01  0.18541946559E+01  0.57651877990E+01  0.51100000000E-03 0. -1.
        -11    1    3    3    0    0 -0.26014738655E+02  0.26618670756E+02 -0.90386450575E+01  0.38301662690E+02  0.51100000000E-03 0.  1.
         12    1    3    3    0    0  0.12403401762E+01  0.34367149977E+01 -0.70147567866E+00  0.37204195806E+01  0.00000000000E+00 0. -1.
</event>
<event>
 7    1  0.7659757E-011  0.4778727E+02  0.7816164E-02  0.1312668E+00
        -11   -1    0    0    0    0  0.00000000000E+00  0.00000000000E+00  0.45593999997E+02  0.45594000000E+02  0.51100000000E-03 0. -1.
         11   -1    0    0    0    0 -0.00000000000E+00 -0.00000000000E+00 -0.45593999997E+02  0.45594000000E+02  0.51100000000E-03 0.  1.
    9900012    2    1    2    0    0 -0.84687763986E+01 -0.13553052700E+02  0.40351182076E+02  0.47787270673E+02  0.19999998305E+02 0.  0.
        -12    1    1    2    0    0  0.84687763986E+01  0.13553052700E+02 -0.40351182076E+02  0.43400729327E+02  0.00000000000E+00 0.  1.
         11    1    3    3    0    0 -0.65626804967E+01 -0.11220177556E+02  0.26825155988E+02  0.29808558398E+02  0.51100000000E-03 0. -1.
        -11    1    3    3    0    0 -0.34018703451E+01 -0.59276595466E+00 -0.73815769253E+00  0.35311429257E+01  0.51100000000E-03 0.  1.
         12    1    3    3    0    0  0.14957744432E+01 -0.17401091890E+01  0.14264183781E+02  0.14447569349E+02  0.00000000000E+00 0. -1.
</event>
<event>
 7    1  0.7357971E-011  0.4778726E+02  0.7816164E-02  0.1312668E+00
        -11   -1    0    0    0    0  0.00000000000E+00  0.00000000000E+00  0.45593999997E+02  0.45594000000E+02  0.51100000000E-03 0. -1.
         11   -1    0    0    0    0 -0.00000000000E+00 -0.00000000000E+00 -0.45593999997E+02  0.45594000000E+02  0.51100000000E-03 0.  1.
    9900012    2    1    2    0    0 -0.82732450434E+01  0.29637058903E+02  0.30607548063E+02  0.47787264495E+02  0.19999970138E+02 0.  0.
        -12    1    1    2    0    0  0.82732450434E+01 -0.29637058903E+02 -0.30607548063E+02  0.43400735505E+02  0.00000000000E+00 0.  1.
         11    1    3    3    0    0 -0.77899444793E+01  0.18894688101E+02  0.26168732696E+02  0.33203840811E+02  0.51100000000E-03 0. -1.
        -11    1    3    3    0    0 -0.36697797202E+01  0.65330022542E+01  0.53750256791E+01  0.92216214930E+01  0.51100000000E-03 0.  1.
         12    1    3    3    0    0  0.31864791560E+01  0.42093685480E+01 -0.93621031272E+00  0.53618021909E+01  0.00000000000E+00 0. -1.
</event>
