<event>
 7    1  0.5753610E-013  0.5052887E+02  0.7816164E-02  0.1300439E+00
        -11   -1    0    0    0    0  0.00000000000E+00  0.00000000000E+00  0.45593999997E+02  0.45594000000E+02  0.51100000000E-03 0. -1.
         11   -1    0    0    0    0 -0.00000000000E+00 -0.00000000000E+00 -0.45593999997E+02  0.45594000000E+02  0.51100000000E-03 0.  1.
    9900012    2    1    2    0    0 -0.11984829518E+02 -0.87958727523E+01  0.37843909118E+02  0.50528868512E+02  0.30000026329E+02 0.  0.
        -12    1    1    2    0    0  0.11984829518E+02  0.87958727523E+01 -0.37843909118E+02  0.40659131488E+02  0.00000000000E+00 0.  1.
         11    1    3    3    0    0 -0.15558741909E+02 -0.92161856940E+00  0.12329121843E+02  0.19872872874E+02  0.51100000000E-03 0. -1.
        -11    1    3    3    0    0 -0.10855901593E+01 -0.28125348132E+01 -0.10672365726E+01  0.31981013481E+01  0.51100000000E-03 0.  1.
         12    1    3    3    0    0  0.46595025509E+01 -0.50617193696E+01  0.26582023848E+02  0.27457894290E+02  0.00000000000E+00 0. -1.
</event>
<event>
 7    1  0.5753610E-013  0.5052886E+02  0.7816164E-02  0.1300439E+00
        -11   -1    0    0    0    0  0.00000000000E+00  0.00000000000E+00  0.45593999997E+02  0.45594000000E+02  0.51100000000E-03 0. -1.
         11   -1    0    0    0    0 -0.00000000000E+00 -0.00000000000E+00 -0.45593999997E+02  0.45594000000E+02  0.51100000000E-03 0.  1.
    9900012    2    1    2    0    0  0.19307985069E+02 -0.21165794193E+02  0.28850940660E+02  0.50528857016E+02  0.29999991385E+02 0.  0.
        -12    1    1    2    0    0 -0.19307985069E+02  0.21165794193E+02 -0.28850940660E+02  0.40659142984E+02  0.00000000000E+00 0.  1.
         11    1    3    3    0    0  0.12550832103E+02 -0.62943492301E+01  0.24147333125E+02  0.27932703342E+02  0.51100000000E-03 0. -1.
        -11    1    3    3    0    0  0.15838661206E+01 -0.84029513074E+01  0.96938276795E+01  0.12926272390E+02  0.51100000000E-03 0.  1.
         12    1    3    3    0    0  0.51732868451E+01 -0.64684936551E+01 -0.49902201440E+01  0.96698812833E+01  0.00000000000E+00 0. -1.
</event>
<event>
 7    1  0.5753610E-013  0.5052886E+02  0.7816164E-02  0.1300439E+00
        -11   -1    0    0    0    0  0.00000000000E+00  0.00000000000E+00  0.45593999997E+02  0.45594000000E+02  0.51100000000E-03 0.  1.
         11   -1    0    0    0    0 -0.00000000000E+00 -0.00000000000E+00 -0.45593999997E+02  0.45594000000E+02  0.51100000000E-03 0. -1.
    9900012    2    1    2    0    0  0.13736763405E+02 -0.17120050544E+02 -0.34225294269E+02  0.50528861209E+02  0.30000004131E+02 0.  0.
        -12    1    1    2    0    0 -0.13736763405E+02  0.17120050544E+02  0.34225294269E+02  0.40659138791E+02  0.00000000000E+00 0.  1.
         11    1    3    3    0    0 -0.25587221622E+01  0.51144274811E+01 -0.54330442451E+01  0.78881174936E+01  0.51100000000E-03 0. -1.
        -11    1    3    3    0    0  0.78403955364E+01 -0.86879758531E+01 -0.26369842904E+01  0.11996099908E+02  0.51100000000E-03 0.  1.
         12    1    3    3    0    0  0.84550900310E+01 -0.13546502171E+02 -0.26155265733E+02  0.30644643807E+02  0.00000000000E+00 0. -1.
</event>
<event>
 7    1  0.5753610E-013  0.5052886E+02  0.7816164E-02  0.1300439E+00
        -11   -1    0    0    0    0  0.00000000000E+00  0.00000000000E+00  0.45593999997E+02  0.45594000000E+02  0.51100000000E-03 0.  1.
         11   -1    0    0    0    0 -0.00000000000E+00 -0.00000000000E+00 -0.45593999997E+02  0.45594000000E+02  0.51100000000E-03 0. -1.
    9900012    2    1    2    0    0  0.25380320693E+02 -0.94804645039E+01 -0.30317093730E+02  0.50528855175E+02  0.29999985790E+02 0.  0.
        -12    1    1    2    0    0 -0.25380320693E+02  0.94804645039E+01  0.30317093730E+02  0.40659144825E+02  0.00000000000E+00 0.  1.
         11    1    3    3    0    0  0.14680952559E+02 -0.14895592221E+02 -0.26582728934E+02  0.33823815774E+02  0.51100000000E-03 0. -1.
        -11    1    3    3    0    0  0.97803745479E+01  0.17024100186E+01 -0.66040668737E+01  0.11923406632E+02  0.51100000000E-03 0.  1.
        -12    1    3    3    0    0  0.91899358561E+00  0.37127176989E+01  0.28697020783E+01  0.47816327693E+01  0.00000000000E+00 0.  1.
</event>
<event>
 7    1  0.5753610E-013  0.5052885E+02  0.7816164E-02  0.1300439E+00
        -11   -1    0    0    0    0  0.00000000000E+00  0.00000000000E+00  0.45593999997E+02  0.45594000000E+02  0.51100000000E-03 0.  1.
         11   -1    0    0    0    0 -0.00000000000E+00 -0.00000000000E+00 -0.45593999997E+02  0.45594000000E+02  0.51100000000E-03 0. -1.
    9900012    2    1    2    0    0  0.39132189933E+01  0.29870187994E+02 -0.27306130083E+02  0.50528853996E+02  0.29999982205E+02 0.  0.
        -12    1    1    2    0    0 -0.39132189933E+01 -0.29870187994E+02  0.27306130083E+02  0.40659146004E+02  0.00000000000E+00 0.  1.
         11    1    3    3    0    0 -0.21107953972E+01  0.76303449727E+01  0.18370246958E+01  0.81272554780E+01  0.51100000000E-03 0.  1.
        -11    1    3    3    0    0  0.41241410604E+01  0.25134040588E+02 -0.19268114832E+02  0.31937263270E+02  0.51100000000E-03 0. -1.
         12    1    3    3    0    0  0.18998733302E+01 -0.28941975663E+01 -0.98750399464E+01  0.10464335247E+02  0.00000000000E+00 0. -1.
</event>
<event>
 7    1  0.5753610E-013  0.5052885E+02  0.7816164E-02  0.1300439E+00
        -11   -1    0    0    0    0  0.00000000000E+00  0.00000000000E+00  0.45593999997E+02  0.45594000000E+02  0.51100000000E-03 0. -1.
         11   -1    0    0    0    0 -0.00000000000E+00 -0.00000000000E+00 -0.45593999997E+02  0.45594000000E+02  0.51100000000E-03 0.  1.
    9900012    2    1    2    0    0  0.37548616024E+02 -0.77932498293E+01  0.13510477387E+02  0.50528852106E+02  0.29999976461E+02 0.  0.
        -12    1    1    2    0    0 -0.37548616024E+02  0.77932498293E+01 -0.13510477387E+02  0.40659147894E+02  0.00000000000E+00 0.  1.
         11    1    3    3    0    0  0.37543434454E+01  0.60966228662E+01 -0.45029090247E+01  0.84581377989E+01  0.51100000000E-03 0.  1.
        -11    1    3    3    0    0  0.13418289761E+01 -0.14647670600E+01  0.42560547171E+01  0.46968127019E+01  0.51100000000E-03 0. -1.
        -12    1    3    3    0    0  0.32452443603E+02 -0.12425105635E+02  0.13757331694E+02  0.37373901605E+02  0.00000000000E+00 0.  1.
</event>
<event>
 7    1  0.5753610E-013  0.5052900E+02  0.7816164E-02  0.1300438E+00
        -11   -1    0    0    0    0  0.00000000000E+00  0.00000000000E+00  0.45593999997E+02  0.45594000000E+02  0.51100000000E-03 0. -1.
         11   -1    0    0    0    0 -0.00000000000E+00 -0.00000000000E+00 -0.45593999997E+02  0.45594000000E+02  0.51100000000E-03 0.  1.
    9900012    2    1    2    0    0  0.37599110980E+02  0.10601745712E+02  0.11272259320E+02  0.50529003593E+02  0.30000436919E+02 0.  0.
        -12    1    1    2    0    0 -0.37599110980E+02 -0.10601745712E+02 -0.11272259320E+02  0.40658996407E+02  0.00000000000E+00 0.  1.
         11    1    3    3    0    0  0.14220840437E+02  0.88032201469E+01 -0.54208277458E+00  0.16733883043E+02  0.51100000000E-03 0. -1.
        -11    1    3    3    0    0  0.27357264493E+02  0.28927759470E+01  0.98019077938E+01  0.29203860530E+02  0.51100000000E-03 0.  1.
        -12    1    3    3    0    0 -0.39789939505E+01 -0.10942503821E+01  0.20124343004E+01  0.45912600198E+01  0.00000000000E+00 0.  1.
</event>
<event>
 7    1  0.5753610E-013  0.5052896E+02  0.7816164E-02  0.1300438E+00
        -11   -1    0    0    0    0  0.00000000000E+00  0.00000000000E+00  0.45593999997E+02  0.45594000000E+02  0.51100000000E-03 0.  1.
         11   -1    0    0    0    0 -0.00000000000E+00 -0.00000000000E+00 -0.45593999997E+02  0.45594000000E+02  0.51100000000E-03 0. -1.
    9900012    2    1    2    0    0 -0.35190368162E+02  0.20596383213E+01 -0.20262123321E+02  0.50528957182E+02  0.30000295849E+02 0.  0.
        -12    1    1    2    0    0  0.35190368162E+02 -0.20596383213E+01  0.20262123321E+02  0.40659042818E+02  0.00000000000E+00 0.  1.
         11    1    3    3    0    0 -0.15501749254E+02  0.56667947642E+01 -0.12378828089E+02  0.20631339703E+02  0.51100000000E-03 0. -1.
        -11    1    3    3    0    0 -0.23022716425E+02  0.10386566373E+01 -0.54421071569E+01  0.23679966423E+02  0.51100000000E-03 0.  1.
        -12    1    3    3    0    0  0.33340975176E+01 -0.46458130803E+01 -0.24411880757E+01  0.62176510560E+01  0.00000000000E+00 0.  1.
</event>
<event>
 7    1  0.5753610E-013  0.5052887E+02  0.7816164E-02  0.1300439E+00
        -11   -1    0    0    0    0  0.00000000000E+00  0.00000000000E+00  0.45593999997E+02  0.45594000000E+02  0.51100000000E-03 0.  1.
         11   -1    0    0    0    0 -0.00000000000E+00 -0.00000000000E+00 -0.45593999997E+02  0.45594000000E+02  0.51100000000E-03 0. -1.
    9900012    2    1    2    0    0  0.32634894953E+02  0.20615157832E+02 -0.12772774147E+02  0.50528869900E+02  0.30000030549E+02 0.  0.
        -12    1    1    2    0    0 -0.32634894953E+02 -0.20615157832E+02  0.12772774147E+02  0.40659130100E+02  0.00000000000E+00 0.  1.
         11    1    3    3    0    0  0.11963721584E+02  0.14459264013E+02 -0.29227428064E+01  0.18993245529E+02  0.51100000000E-03 0. -1.
        -11    1    3    3    0    0 -0.14449732494E+01  0.64989709134E+01  0.12718128514E+01  0.67780586317E+01  0.51100000000E-03 0.  1.
         12    1    3    3    0    0  0.22116146618E+02 -0.34307709455E+00 -0.11121844192E+02  0.24757565740E+02  0.00000000000E+00 0. -1.
</event>
<event>
 7    1  0.5753610E-013  0.5052886E+02  0.7816164E-02  0.1300439E+00
        -11   -1    0    0    0    0  0.00000000000E+00  0.00000000000E+00  0.45593999997E+02  0.45594000000E+02  0.51100000000E-03 0. -1.
         11   -1    0    0    0    0 -0.00000000000E+00 -0.00000000000E+00 -0.45593999997E+02  0.45594000000E+02  0.51100000000E-03 0.  1.
    9900012    2    1    2    0    0  0.34022734347E+02  0.21446611681E+02  0.59717412533E+01  0.50528864512E+02  0.30000014170E+02 0.  0.
        -12    1    1    2    0    0 -0.34022734347E+02 -0.21446611681E+02 -0.59717412533E+01  0.40659135488E+02  0.00000000000E+00 0.  1.
         11    1    3    3    0    0  0.12891078508E+02  0.79535883820E+01 -0.10474658821E+02  0.18416241499E+02  0.51100000000E-03 0. -1.
        -11    1    3    3    0    0  0.58399932827E+01 -0.14738959575E+01  0.22277710079E+01  0.64219042939E+01  0.51100000000E-03 0.  1.
         12    1    3    3    0    0  0.15291662557E+02  0.14966919256E+02  0.14218629067E+02  0.25690718719E+02  0.00000000000E+00 0. -1.
</event>
<event>
 7    1  0.5753610E-013  0.5052886E+02  0.7816164E-02  0.1300439E+00
        -11   -1    0    0    0    0  0.00000000000E+00  0.00000000000E+00  0.45593999997E+02  0.45594000000E+02  0.51100000000E-03 0.  1.
         11   -1    0    0    0    0 -0.00000000000E+00 -0.00000000000E+00 -0.45593999997E+02  0.45594000000E+02  0.51100000000E-03 0. -1.
    9900012    2    1    2    0    0 -0.78301972271E+00  0.34972610159E+01 -0.40500886965E+02  0.50528858353E+02  0.29999995449E+02 0.  0.
        -12    1    1    2    0    0  0.78301972271E+00 -0.34972610159E+01  0.40500886965E+02  0.40659141647E+02  0.00000000000E+00 0.  1.
         11    1    3    3    0    0 -0.10075868508E+01  0.98323771015E+01 -0.26494183162E+01  0.10232804523E+02  0.51100000000E-03 0. -1.
        -11    1    3    3    0    0 -0.99855435232E+00  0.22507631653E+01 -0.14113269636E+01  0.28381137539E+01  0.51100000000E-03 0.  1.
         12    1    3    3    0    0  0.12231214804E+01 -0.85858792510E+01 -0.36440141686E+02  0.37457940076E+02  0.00000000000E+00 0. -1.
</event>
<event>
 7    1  0.5753610E-013  0.5052901E+02  0.7816164E-02  0.1300438E+00
        -11   -1    0    0    0    0  0.00000000000E+00  0.00000000000E+00  0.45593999997E+02  0.45594000000E+02  0.51100000000E-03 0. -1.
         11   -1    0    0    0    0 -0.00000000000E+00 -0.00000000000E+00 -0.45593999997E+02  0.45594000000E+02  0.51100000000E-03 0.  1.
    9900012    2    1    2    0    0 -0.23347059305E+02 -0.18639970646E+02  0.27579340508E+02  0.50529007062E+02  0.30000447463E+02 0.  0.
        -12    1    1    2    0    0  0.23347059305E+02  0.18639970646E+02 -0.27579340508E+02  0.40658992938E+02  0.00000000000E+00 0.  1.
         11    1    3    3    0    0 -0.36735978496E+01  0.25948316697E+01  0.98244468995E+01  0.10805009472E+02  0.51100000000E-03 0. -1.
        -11    1    3    3    0    0 -0.37579247655E+01 -0.18987976398E+02  0.11219491194E+02  0.22372801102E+02  0.51100000000E-03 0.  1.
         12    1    3    3    0    0 -0.15915536690E+02 -0.22468259169E+01  0.65354024142E+01  0.17351196488E+02  0.00000000000E+00 0. -1.
</event>
<event>
 7    1  0.6526545E-013  0.5052886E+02  0.7816164E-02  0.1300439E+00
        -11   -1    0    0    0    0  0.00000000000E+00  0.00000000000E+00  0.45593999997E+02  0.45594000000E+02  0.51100000000E-03 0. -1.
         11   -1    0    0    0    0 -0.00000000000E+00 -0.00000000000E+00 -0.45593999997E+02  0.45594000000E+02  0.51100000000E-03 0.  1.
    9900012    2    1    2    0    0 -0.29095145021E+02  0.18128363775E+02  0.21863228857E+02  0.50528858187E+02  0.29999994944E+02 0.  0.
        -12    1    1    2    0    0  0.29095145021E+02 -0.18128363775E+02 -0.21863228857E+02  0.40659141813E+02  0.00000000000E+00 0.  1.
         11    1    3    3    0    0 -0.20872320311E+01 -0.25031169544E+01  0.45096349683E+01  0.55640758305E+01  0.51100000000E-03 0. -1.
        -11    1    3    3    0    0 -0.36574241106E+01  0.13223063323E+02  0.15041125340E+02  0.20358330151E+02  0.51100000000E-03 0.  1.
        -12    1    3    3    0    0 -0.23350488879E+02  0.74084174056E+01  0.23124685492E+01  0.24606452205E+02  0.00000000000E+00 0.  1.
</event>
<event>
 7    1  0.5753610E-013  0.5052886E+02  0.7816164E-02  0.1300439E+00
        -11   -1    0    0    0    0  0.00000000000E+00  0.00000000000E+00  0.45593999997E+02  0.45594000000E+02  0.51100000000E-03 0.  1.
         11   -1    0    0    0    0 -0.00000000000E+00 -0.00000000000E+00 -0.45593999997E+02  0.45594000000E+02  0.51100000000E-03 0. -1.
    9900012    2    1    2    0    0  0.37260679407E+02 -0.63357045261E+01  0.14988873394E+02  0.50528859486E+02  0.29999998894E+02 0.  0.
        -12    1    1    2    0    0 -0.37260679407E+02  0.63357045261E+01 -0.14988873394E+02  0.40659140514E+02  0.00000000000E+00 0.  1.
         11    1    3    3    0    0  0.14512044602E+02  0.38635082181E+01  0.16270347689E+00  0.15018408935E+02  0.51100000000E-03 0. -1.
        -11    1    3    3    0    0  0.20379574090E+02  0.59856196904E+00  0.56855193052E+01  0.21166257264E+02  0.51100000000E-03 0.  1.
        -12    1    3    3    0    0  0.23690607147E+01 -0.10797774713E+02  0.91406506124E+01  0.14344193287E+02  0.00000000000E+00 0.  1.
</event>
<event>
 7    1  0.5753610E-013  0.5052885E+02  0.7816164E-02  0.1300439E+00
        -11   -1    0    0    0    0  0.00000000000E+00  0.00000000000E+00  0.45593999997E+02  0.45594000000E+02  0.51100000000E-03 0.  1.
         11   -1    0    0    0    0 -0.00000000000E+00 -0.00000000000E+00 -0.45593999997E+02  0.45594000000E+02  0.51100000000E-03 0. -1.
    9900012    2    1    2    0    0 -0.96292520004E+01  0.33307054894E+02 -0.21238747955E+02  0.50528845871E+02  0.29999957509E+02 0.  0.
        -12    1    1    2    0    0  0.96292520004E+01 -0.33307054894E+02  0.21238747955E+02  0.40659154129E+02  0.00000000000E+00 0.  1.
         11    1    3    3    0    0 -0.10032186377E+02  0.13333369498E+02 -0.12060791258E+02  0.20588496587E+02  0.51100000000E-03 0. -1.
        -11    1    3    3    0    0  0.35186006389E+00  0.20537030787E+02  0.20429562590E+00  0.20541060733E+02  0.51100000000E-03 0.  1.
         12    1    3    3    0    0  0.51074312842E-01 -0.56334539169E+00 -0.93822523230E+01  0.93992885512E+01  0.00000000000E+00 0. -1.
</event>
<event>
 7    1  0.5753610E-013  0.5052885E+02  0.7816164E-02  0.1300439E+00
        -11   -1    0    0    0    0  0.00000000000E+00  0.00000000000E+00  0.45593999997E+02  0.45594000000E+02  0.51100000000E-03 0.  1.
         11   -1    0    0    0    0 -0.00000000000E+00 -0.00000000000E+00 -0.45593999997E+02  0.45594000000E+02  0.51100000000E-03 0. -1.
    9900012    2    1    2    0    0 -0.34753678188E+01 -0.15946679858E+02 -0.37239649383E+02  0.50528852614E+02  0.29999978005E+02 0.  0.
        -12    1    1    2    0    0  0.34753678188E+01  0.15946679858E+02  0.37239649383E+02  0.40659147386E+02  0.00000000000E+00 0.  1.
         11    1    3    3    0    0 -0.46422770862E+01 -0.20234289344E+01 -0.35657712844E+01  0.61935229322E+01  0.51100000000E-03 0. -1.
        -11    1    3    3    0    0  0.99462898711E+01  0.20743091606E+01 -0.85226451613E+01  0.13261482628E+02  0.51100000000E-03 0.  1.
         12    1    3    3    0    0 -0.87793806036E+01 -0.15997560084E+02 -0.25151232938E+02  0.31073847053E+02  0.00000000000E+00 0. -1.
</event>
<event>
 7    1  0.5753610E-013  0.5052885E+02  0.7816164E-02  0.1300439E+00
        -11   -1    0    0    0    0  0.00000000000E+00  0.00000000000E+00  0.45593999997E+02  0.45594000000E+02  0.51100000000E-03 0.  1.
         11   -1    0    0    0    0 -0.00000000000E+00 -0.00000000000E+00 -0.45593999997E+02  0.45594000000E+02  0.51100000000E-03 0. -1.
    9900012    2    1    2    0    0  0.13943612640E+01 -0.10148484967E+02 -0.39347560559E+02  0.50528849586E+02  0.29999968801E+02 0.  0.
        -12    1    1    2    0    0 -0.13943612640E+01  0.10148484967E+02  0.39347560559E+02  0.40659150414E+02  0.00000000000E+00 0.  1.
         11    1    3    3    0    0 -0.23578625337E+01  0.33194436559E+01 -0.74415557146E+01  0.84826277549E+01  0.51100000000E-03 0. -1.
        -11    1    3    3    0    0 -0.93200040600E+01 -0.86215877153E+01 -0.20116628613E+02  0.23788085199E+02  0.51100000000E-03 0.  1.
         12    1    3    3    0    0  0.13072227858E+02 -0.48463409079E+01 -0.11789376231E+02  0.18258136632E+02  0.00000000000E+00 0. -1.
</event>
<event>
 7    1  0.5753610E-013  0.5052886E+02  0.7816164E-02  0.1300439E+00
        -11   -1    0    0    0    0  0.00000000000E+00  0.00000000000E+00  0.45593999997E+02  0.45594000000E+02  0.51100000000E-03 0.  1.
         11   -1    0    0    0    0 -0.00000000000E+00 -0.00000000000E+00 -0.45593999997E+02  0.45594000000E+02  0.51100000000E-03 0. -1.
    9900012    2    1    2    0    0  0.18225668327E+02 -0.23002296582E+02 -0.28140446299E+02  0.50528863857E+02  0.30000012179E+02 0.  0.
        -12    1    1    2    0    0 -0.18225668327E+02  0.23002296582E+02  0.28140446299E+02  0.40659136143E+02  0.00000000000E+00 0.  1.
         11    1    3    3    0    0  0.71336050660E+01 -0.76081361425E+01 -0.50182686819E+01  0.11573896389E+02  0.51100000000E-03 0.  1.
        -11    1    3    3    0    0  0.94518715729E+01  0.35810416517E+01 -0.15361627411E+02  0.18388619647E+02  0.51100000000E-03 0. -1.
         12    1    3    3    0    0  0.16401916877E+01 -0.18975202092E+02 -0.77605502063E+01  0.20566347821E+02  0.00000000000E+00 0. -1.
</event>
<event>
 7    1  0.5753610E-013  0.5052886E+02  0.7816164E-02  0.1300439E+00
        -11   -1    0    0    0    0  0.00000000000E+00  0.00000000000E+00  0.45593999997E+02  0.45594000000E+02  0.51100000000E-03 0.  1.
         11   -1    0    0    0    0 -0.00000000000E+00 -0.00000000000E+00 -0.45593999997E+02  0.45594000000E+02  0.51100000000E-03 0. -1.
    9900012    2    1    2    0    0  0.32191509477E+01  0.17227857625E+02 -0.36687925223E+02  0.50528857506E+02  0.29999992875E+02 0.  0.
        -12    1    1    2    0    0 -0.32191509477E+01 -0.17227857625E+02  0.36687925223E+02  0.40659142494E+02  0.00000000000E+00 0.  1.
         11    1    3    3    0    0  0.64372383329E+01  0.29685138123E+01 -0.25349126434E+02  0.26321632223E+02  0.51100000000E-03 0. -1.
        -11    1    3    3    0    0  0.60355211425E+01  0.41905152070E+01 -0.18949930693E+01  0.75880782914E+01  0.51100000000E-03 0.  1.
         12    1    3    3    0    0 -0.92536085277E+01  0.10068828606E+02 -0.94438057194E+01  0.16619146992E+02  0.00000000000E+00 0. -1.
</event>
<event>
 7    1  0.5753610E-013  0.5052884E+02  0.7816164E-02  0.1300439E+00
        -11   -1    0    0    0    0  0.00000000000E+00  0.00000000000E+00  0.45593999997E+02  0.45594000000E+02  0.51100000000E-03 0.  1.
         11   -1    0    0    0    0 -0.00000000000E+00 -0.00000000000E+00 -0.45593999997E+02  0.45594000000E+02  0.51100000000E-03 0. -1.
    9900012    2    1    2    0    0 -0.21166247378E+02  0.74649058576E+01 -0.33903282181E+02  0.50528838792E+02  0.29999935992E+02 0.  0.
        -12    1    1    2    0    0  0.21166247378E+02 -0.74649058576E+01  0.33903282181E+02  0.40659161208E+02  0.00000000000E+00 0.  1.
         11    1    3    3    0    0 -0.20061600437E+02 -0.67822867635E+00 -0.15288587438E+02  0.25232295027E+02  0.51100000000E-03 0. -1.
        -11    1    3    3    0    0 -0.63072936967E+01  0.97826228222E+01 -0.11911296131E+02  0.16654147797E+02  0.51100000000E-03 0.  1.
         12    1    3    3    0    0  0.52026467560E+01 -0.16394882883E+01 -0.67033986124E+01  0.86423959683E+01  0.00000000000E+00 0. -1.
</event>
<event>
 7    1  0.5753610E-013  0.5052886E+02  0.7816164E-02  0.1300439E+00
        -11   -1    0    0    0    0  0.00000000000E+00  0.00000000000E+00  0.45593999997E+02  0.45594000000E+02  0.51100000000E-03 0.  1.
         11   -1    0    0    0    0 -0.00000000000E+00 -0.00000000000E+00 -0.45593999997E+02  0.45594000000E+02  0.51100000000E-03 0. -1.
    9900012    2    1    2    0    0 -0.20591307070E+01  0.35605476262E+02  0.19523725798E+02  0.50528858001E+02  0.29999994379E+02 0.  0.
        -12    1    1    2    0    0  0.20591307070E+01 -0.35605476262E+02 -0.19523725798E+02  0.40659141999E+02  0.00000000000E+00 0.  1.
         11    1    3    3    0    0 -0.59308324607E+01  0.34224740081E+01 -0.37438435189E+01  0.78041313782E+01  0.51100000000E-03 0. -1.
        -11    1    3    3    0    0  0.34731863319E+01  0.17155002363E+01  0.74422958169E+01  0.83900972369E+01  0.51100000000E-03 0.  1.
        -12    1    3    3    0    0  0.39851542173E+00  0.30467502017E+02  0.15825273500E+02  0.34334629386E+02  0.00000000000E+00 0.  1.
</event>
<event>
 7    1  0.5753610E-013  0.5052886E+02  0.7816164E-02  0.1300439E+00
        -11   -1    0    0    0    0  0.00000000000E+00  0.00000000000E+00  0.45593999997E+02  0.45594000000E+02  0.51100000000E-03 0. -1.
         11   -1    0    0    0    0 -0.00000000000E+00 -0.00000000000E+00 -0.45593999997E+02  0.45594000000E+02  0.51100000000E-03 0.  1.
    9900012    2    1    2    0    0  0.19270543113E+02  0.16587250250E+02  0.31728145836E+02  0.50528856613E+02  0.29999990162E+02 0.  0.
        -12    1    1    2    0    0 -0.19270543113E+02 -0.16587250250E+02 -0.31728145836E+02  0.40659143387E+02  0.00000000000E+00 0.  1.
         11    1    3    3    0    0 -0.14752619110E+01  0.13942455705E+02  0.22799103414E+01  0.14204452127E+02  0.51100000000E-03 0. -1.
        -11    1    3    3    0    0  0.47556950004E+01 -0.99316625323E+00  0.71927322248E+01  0.86797702310E+01  0.51100000000E-03 0.  1.
        -12    1    3    3    0    0  0.15990110023E+02  0.36379607985E+01  0.22255503270E+02  0.27644634256E+02  0.00000000000E+00 0.  1.
</event>
<event>
 7    1  0.5753610E-013  0.5052879E+02  0.7816164E-02  0.1300439E+00
        -11   -1    0    0    0    0  0.00000000000E+00  0.00000000000E+00  0.45593999997E+02  0.45594000000E+02  0.51100000000E-03 0.  1.
         11   -1    0    0    0    0 -0.00000000000E+00 -0.00000000000E+00 -0.45593999997E+02  0.45594000000E+02  0.51100000000E-03 0. -1.
    9900012    2    1    2    0    0 -0.10001044920E+02 -0.27963890450E+02 -0.27769977538E+02  0.50528785533E+02  0.29999774106E+02 0.  0.
        -12    1    1    2    0    0  0.10001044920E+02  0.27963890450E+02  0.27769977538E+02  0.40659214467E+02  0.00000000000E+00 0.  1.
         11    1    3    3    0    0 -0.93443867484E+01 -0.97008188168E+01 -0.92444379972E+01  0.16336556662E+02  0.51100000000E-03 0. -1.
        -11    1    3    3    0    0 -0.10449032075E+02 -0.95844126444E+01 -0.41945836791E+01  0.14786404889E+02  0.51100000000E-03 0.  1.
        -12    1    3    3    0    0  0.97923739034E+01 -0.86786589885E+01 -0.14330955862E+02  0.19405823982E+02  0.00000000000E+00 0.  1.
</event>
<event>
 7    1  0.5753610E-013  0.5052885E+02  0.7816164E-02  0.1300439E+00
        -11   -1    0    0    0    0  0.00000000000E+00  0.00000000000E+00  0.45593999997E+02  0.45594000000E+02  0.51100000000E-03 0.  1.
         11   -1    0    0    0    0 -0.00000000000E+00 -0.00000000000E+00 -0.45593999997E+02  0.45594000000E+02  0.51100000000E-03 0. -1.
    9900012    2    1    2    0    0  0.36588613883E+02 -0.13635399124E+02 -0.11336468875E+02  0.50528852177E+02  0.29999976678E+02 0.  0.
        -12    1    1    2    0    0 -0.36588613883E+02  0.13635399124E+02  0.11336468875E+02  0.40659147823E+02  0.00000000000E+00 0.  1.
         11    1    3    3    0    0  0.21086683345E+02 -0.95641702246E+01 -0.18957501788E+02  0.29925047049E+02  0.51100000000E-03 0.  1.
        -11    1    3    3    0    0  0.13261111220E+02 -0.12577193611E+01  0.13687593386E+01  0.13390759171E+02  0.51100000000E-03 0. -1.
        -12    1    3    3    0    0  0.22408193173E+01 -0.28135095381E+01  0.62522735744E+01  0.72130459573E+01  0.00000000000E+00 0.  1.
</event>
<event>
 7    1  0.5753610E-013  0.5052886E+02  0.7816164E-02  0.1300439E+00
        -11   -1    0    0    0    0  0.00000000000E+00  0.00000000000E+00  0.45593999997E+02  0.45594000000E+02  0.51100000000E-03 0. -1.
         11   -1    0    0    0    0 -0.00000000000E+00 -0.00000000000E+00 -0.45593999997E+02  0.45594000000E+02  0.51100000000E-03 0.  1.
    9900012    2    1    2    0    0  0.16955293860E+02 -0.32538655342E+02  0.17519125791E+02  0.50528857734E+02  0.29999993568E+02 0.  0.
        -12    1    1    2    0    0 -0.16955293860E+02  0.32538655342E+02 -0.17519125791E+02  0.40659142266E+02  0.00000000000E+00 0.  1.
         11    1    3    3    0    0  0.37041240054E+01 -0.10855746708E+02  0.14013468691E+02  0.18109253884E+02  0.51100000000E-03 0. -1.
        -11    1    3    3    0    0  0.16065627258E+02 -0.88806872294E+01 -0.14319462429E+01  0.18412535272E+02  0.51100000000E-03 0.  1.
         12    1    3    3    0    0 -0.28144574030E+01 -0.12802221404E+02  0.49376033434E+01  0.14007068577E+02  0.00000000000E+00 0. -1.
</event>
<event>
 7    1  0.5753610E-013  0.5052886E+02  0.7816164E-02  0.1300439E+00
        -11   -1    0    0    0    0  0.00000000000E+00  0.00000000000E+00  0.45593999997E+02  0.45594000000E+02  0.51100000000E-03 0. -1.
         11   -1    0    0    0    0 -0.00000000000E+00 -0.00000000000E+00 -0.45593999997E+02  0.45594000000E+02  0.51100000000E-03 0.  1.
    9900012    2    1    2    0    0  0.30297593423E+02 -0.26681361722E+02 -0.48297630987E+01  0.50528857828E+02  0.29999993853E+02 0.  0.
        -12    1    1    2    0    0 -0.30297593423E+02  0.26681361722E+02  0.48297630987E+01  0.40659142172E+02  0.00000000000E+00 0.  1.
         11    1    3    3    0    0  0.10329265009E+01 -0.10427286028E+02  0.39786608312E+00  0.10485872818E+02  0.51100000000E-03 0.  1.
        -11    1    3    3    0    0  0.30989342100E+02 -0.17867660915E+02 -0.77353060827E+01  0.36598191087E+02  0.51100000000E-03 0. -1.
         12    1    3    3    0    0 -0.17246751776E+01  0.16135852210E+01  0.25076769009E+01  0.34447939231E+01  0.00000000000E+00 0. -1.
</event>
<event>
 7    1  0.5753610E-013  0.5052888E+02  0.7816164E-02  0.1300439E+00
        -11   -1    0    0    0    0  0.00000000000E+00  0.00000000000E+00  0.45593999997E+02  0.45594000000E+02  0.51100000000E-03 0.  1.
         11   -1    0    0    0    0 -0.00000000000E+00 -0.00000000000E+00 -0.45593999997E+02  0.45594000000E+02  0.51100000000E-03 0. -1.
    9900012    2    1    2    0    0  0.85559364532E+01  0.37112411745E+02 -0.14234775939E+02  0.50528880480E+02  0.30000062707E+02 0.  0.
        -12    1    1    2    0    0 -0.85559364532E+01 -0.37112411745E+02  0.14234775939E+02  0.40659119520E+02  0.00000000000E+00 0.  1.
         11    1    3    3    0    0  0.31795678724E+01 -0.21706103867E+00  0.16289620268E+01  0.35791458332E+01  0.51100000000E-03 0.  1.
        -11    1    3    3    0    0  0.19012196778E+01  0.22570368389E+02  0.28891199858E+01  0.22833816589E+02  0.51100000000E-03 0. -1.
         12    1    3    3    0    0  0.34751489029E+01  0.14759104395E+02 -0.18752857951E+02  0.24115918058E+02  0.00000000000E+00 0. -1.
</event>
<event>
 7    1  0.5753610E-013  0.5052881E+02  0.7816164E-02  0.1300439E+00
        -11   -1    0    0    0    0  0.00000000000E+00  0.00000000000E+00  0.45593999997E+02  0.45594000000E+02  0.51100000000E-03 0. -1.
         11   -1    0    0    0    0 -0.00000000000E+00 -0.00000000000E+00 -0.45593999997E+02  0.45594000000E+02  0.51100000000E-03 0.  1.
    9900012    2    1    2    0    0  0.20928835855E+02 -0.13834132209E+02  0.31996411299E+02  0.50528810138E+02  0.29999848894E+02 0.  0.
        -12    1    1    2    0    0 -0.20928835855E+02  0.13834132209E+02 -0.31996411299E+02  0.40659189862E+02  0.00000000000E+00 0.  1.
         11    1    3    3    0    0  0.25797315862E+01 -0.12730227491E+02  0.14747368590E+02  0.19651935977E+02  0.51100000000E-03 0. -1.
        -11    1    3    3    0    0  0.73262232652E+01 -0.83956465167E+01  0.12709877269E+02  0.16902704169E+02  0.51100000000E-03 0.  1.
        -12    1    3    3    0    0  0.11022881004E+02  0.72917417988E+01  0.45391654401E+01  0.13974169992E+02  0.00000000000E+00 0.  1.
</event>
<event>
 7    1  0.5753610E-013  0.5052886E+02  0.7816164E-02  0.1300439E+00
        -11   -1    0    0    0    0  0.00000000000E+00  0.00000000000E+00  0.45593999997E+02  0.45594000000E+02  0.51100000000E-03 0.  1.
         11   -1    0    0    0    0 -0.00000000000E+00 -0.00000000000E+00 -0.45593999997E+02  0.45594000000E+02  0.51100000000E-03 0. -1.
    9900012    2    1    2    0    0 -0.27049498481E+02  0.67406179349E+01 -0.29598209980E+02  0.50528864098E+02  0.30000012913E+02 0.  0.
        -12    1    1    2    0    0  0.27049498481E+02 -0.67406179349E+01  0.29598209980E+02  0.40659135902E+02  0.00000000000E+00 0.  1.
         11    1    3    3    0    0 -0.10221964347E+02 -0.45394268254E+01 -0.12617985153E+02  0.16861450133E+02  0.51100000000E-03 0.  1.
        -11    1    3    3    0    0 -0.13928629185E+02  0.80687000064E+01 -0.21859242655E+02  0.27146585798E+02  0.51100000000E-03 0. -1.
        -12    1    3    3    0    0 -0.28989049493E+01  0.32113447538E+01  0.48790178272E+01  0.65208281676E+01  0.00000000000E+00 0.  1.
</event>
<event>
 7    1  0.5753610E-013  0.5052885E+02  0.7816164E-02  0.1300439E+00
        -11   -1    0    0    0    0  0.00000000000E+00  0.00000000000E+00  0.45593999997E+02  0.45594000000E+02  0.51100000000E-03 0.  1.
         11   -1    0    0    0    0 -0.00000000000E+00 -0.00000000000E+00 -0.45593999997E+02  0.45594000000E+02  0.51100000000E-03 0. -1.
    9900012    2    1    2    0    0  0.32287852812E+02  0.24629738701E+02  0.20091320779E+01  0.50528854911E+02  0.29999984987E+02 0.  0.
        -12    1    1    2    0    0 -0.32287852812E+02 -0.24629738701E+02 -0.20091320779E+01  0.40659145089E+02  0.00000000000E+00 0.  1.
         11    1    3    3    0    0  0.10352047438E+02  0.70667891514E+01  0.60759741765E+01  0.13929172894E+02  0.51100000000E-03 0.  1.
        -11    1    3    3    0    0 -0.74760623183E-01 -0.30992351531E+01 -0.55682830077E+01  0.63731172592E+01  0.51100000000E-03 0. -1.
         12    1    3    3    0    0  0.22010565997E+02  0.20662184703E+02  0.15014409091E+01  0.30226564757E+02  0.00000000000E+00 0. -1.
</event>
<event>
 7    1  0.5753610E-013  0.5052882E+02  0.7816164E-02  0.1300439E+00
        -11   -1    0    0    0    0  0.00000000000E+00  0.00000000000E+00  0.45593999997E+02  0.45594000000E+02  0.51100000000E-03 0.  1.
         11   -1    0    0    0    0 -0.00000000000E+00 -0.00000000000E+00 -0.45593999997E+02  0.45594000000E+02  0.51100000000E-03 0. -1.
    9900012    2    1    2    0    0 -0.39178768159E+02  0.67805420935E+01  0.84980755380E+01  0.50528820060E+02  0.29999879054E+02 0.  0.
        -12    1    1    2    0    0  0.39178768159E+02 -0.67805420935E+01 -0.84980755380E+01  0.40659179940E+02  0.00000000000E+00 0.  1.
         11    1    3    3    0    0 -0.29680294394E+02 -0.45572914432E+01  0.10821830615E+02  0.31918659099E+02  0.51100000000E-03 0. -1.
        -11    1    3    3    0    0 -0.34685307047E+00  0.15727873043E+01  0.36233291284E+01  0.39651584068E+01  0.51100000000E-03 0.  1.
        -12    1    3    3    0    0 -0.91516206949E+01  0.97650462324E+01 -0.59470842050E+01  0.14645002554E+02  0.00000000000E+00 0.  1.
</event>
<event>
 7    1  0.5753610E-013  0.5052886E+02  0.7816164E-02  0.1300439E+00
        -11   -1    0    0    0    0  0.00000000000E+00  0.00000000000E+00  0.45593999997E+02  0.45594000000E+02  0.51100000000E-03 0.  1.
         11   -1    0    0    0    0 -0.00000000000E+00 -0.00000000000E+00 -0.45593999997E+02  0.45594000000E+02  0.51100000000E-03 0. -1.
    9900012    2    1    2    0    0 -0.15321140960E+02  0.27163866559E+02 -0.26087401682E+02  0.50528861627E+02  0.30000005401E+02 0.  0.
        -12    1    1    2    0    0  0.15321140960E+02 -0.27163866559E+02  0.26087401682E+02  0.40659138373E+02  0.00000000000E+00 0.  1.
         11    1    3    3    0    0 -0.79106862764E+01  0.51248748053E+01 -0.71383897638E+01  0.11823701105E+02  0.51100000000E-03 0. -1.
        -11    1    3    3    0    0 -0.10282041062E+02  0.20975544234E+02 -0.43163480711E+01  0.23755519048E+02  0.51100000000E-03 0.  1.
        -12    1    3    3    0    0  0.28715863789E+01  0.10634475202E+01 -0.14632663847E+02  0.14949641474E+02  0.00000000000E+00 0.  1.
</event>
<event>
 7    1  0.5753610E-013  0.5052886E+02  0.7816164E-02  0.1300439E+00
        -11   -1    0    0    0    0  0.00000000000E+00  0.00000000000E+00  0.45593999997E+02  0.45594000000E+02  0.51100000000E-03 0.  1.
         11   -1    0    0    0    0 -0.00000000000E+00 -0.00000000000E+00 -0.45593999997E+02  0.45594000000E+02  0.51100000000E-03 0. -1.
    9900012    2    1    2    0    0  0.10514364409E+02 -0.60973713658E+00 -0.39271392717E+02  0.50528856818E+02  0.29999990785E+02 0.  0.
        -12    1    1    2    0    0 -0.10514364409E+02  0.60973713658E+00  0.39271392717E+02  0.40659143182E+02  0.00000000000E+00 0.  1.
         11    1    3    3    0    0 -0.41219430783E+01  0.22621765265E+01 -0.91194103202E+01  0.10260190165E+02  0.51100000000E-03 0.  1.
        -11    1    3    3    0    0  0.64996555311E+01  0.12282936193E+01 -0.30442332394E+02  0.31152685744E+02  0.51100000000E-03 0. -1.
        -12    1    3    3    0    0  0.81366519561E+01 -0.41002072824E+01  0.29034999660E+00  0.91159809090E+01  0.00000000000E+00 0.  1.
</event>
<event>
 7    1  0.5893838E-013  0.5052886E+02  0.7816164E-02  0.1300439E+00
        -11   -1    0    0    0    0  0.00000000000E+00  0.00000000000E+00  0.45593999997E+02  0.45594000000E+02  0.51100000000E-03 0. -1.
         11   -1    0    0    0    0 -0.00000000000E+00 -0.00000000000E+00 -0.45593999997E+02  0.45594000000E+02  0.51100000000E-03 0.  1.
    9900012    2    1    2    0    0 -0.37651789939E+02  0.74655326483E+01  0.13407995786E+02  0.50528858171E+02  0.29999994896E+02 0.  0.
        -12    1    1    2    0    0  0.37651789939E+02 -0.74655326483E+01 -0.13407995786E+02  0.40659141829E+02  0.00000000000E+00 0.  1.
         11    1    3    3    0    0 -0.17951754569E+02  0.43847171944E+01  0.14438639272E+02  0.23451344125E+02  0.51100000000E-03 0. -1.
        -11    1    3    3    0    0 -0.12330556885E+02 -0.68156850057E+01  0.23507127866E+01  0.14283628603E+02  0.51100000000E-03 0.  1.
        -12    1    3    3    0    0 -0.73694784842E+01  0.98965004595E+01 -0.33813562730E+01  0.12793885443E+02  0.00000000000E+00 0.  1.
</event>
<event>
 7    1  0.5753610E-013  0.5052886E+02  0.7816164E-02  0.1300439E+00
        -11   -1    0    0    0    0  0.00000000000E+00  0.00000000000E+00  0.45593999997E+02  0.45594000000E+02  0.51100000000E-03 0. -1.
         11   -1    0    0    0    0 -0.00000000000E+00 -0.00000000000E+00 -0.45593999997E+02  0.45594000000E+02  0.51100000000E-03 0.  1.
    9900012    2    1    2    0    0 -0.36889173330E+01 -0.30545330299E+02  0.26580833507E+02  0.50528855591E+02  0.29999987054E+02 0.  0.
        -12    1    1    2    0    0  0.36889173330E+01  0.30545330299E+02 -0.26580833507E+02  0.40659144409E+02  0.00000000000E+00 0.  1.
         11    1    3    3    0    0 -0.10119948417E+00 -0.21315784109E+02  0.16571158384E+02  0.26999558959E+02  0.51100000000E-03 0. -1.
        -11    1    3    3    0    0  0.74982555061E+01 -0.12438997384E+01  0.29780770415E+01  0.81633366537E+01  0.51100000000E-03 0.  1.
         12    1    3    3    0    0 -0.11085973355E+02 -0.79856464518E+01  0.70315980812E+01  0.15365959978E+02  0.00000000000E+00 0. -1.
</event>
<event>
 7    1  0.5753610E-013  0.5052886E+02  0.7816164E-02  0.1300439E+00
        -11   -1    0    0    0    0  0.00000000000E+00  0.00000000000E+00  0.45593999997E+02  0.45594000000E+02  0.51100000000E-03 0.  1.
         11   -1    0    0    0    0 -0.00000000000E+00 -0.00000000000E+00 -0.45593999997E+02  0.45594000000E+02  0.51100000000E-03 0. -1.
    9900012    2    1    2    0    0 -0.17656963589E+02  0.62035492648E+01 -0.36095889553E+02  0.50528860446E+02  0.30000001812E+02 0.  0.
        -12    1    1    2    0    0  0.17656963589E+02 -0.62035492648E+01  0.36095889553E+02  0.40659139554E+02  0.00000000000E+00 0.  1.
         11    1    3    3    0    0 -0.47608969081E+01 -0.69495789961E+01 -0.31769857507E+00  0.84299300257E+01  0.51100000000E-03 0. -1.
        -11    1    3    3    0    0  0.59469152507E+00  0.62425370711E+01 -0.59700228840E+01  0.86581811364E+01  0.51100000000E-03 0.  1.
         12    1    3    3    0    0 -0.13490758206E+02  0.69105911897E+01 -0.29808168094E+02  0.33440749284E+02  0.00000000000E+00 0. -1.
</event>
<event>
 7    1  0.5753610E-013  0.5052886E+02  0.7816164E-02  0.1300439E+00
        -11   -1    0    0    0    0  0.00000000000E+00  0.00000000000E+00  0.45593999997E+02  0.45594000000E+02  0.51100000000E-03 0.  1.
         11   -1    0    0    0    0 -0.00000000000E+00 -0.00000000000E+00 -0.45593999997E+02  0.45594000000E+02  0.51100000000E-03 0. -1.
    9900012    2    1    2    0    0 -0.10528033152E+02  0.15085089049E+02 -0.36259702928E+02  0.50528862650E+02  0.30000008511E+02 0.  0.
        -12    1    1    2    0    0  0.10528033152E+02 -0.15085089049E+02  0.36259702928E+02  0.40659137350E+02  0.00000000000E+00 0.  1.
         11    1    3    3    0    0 -0.11146024425E+02  0.13907977649E+01 -0.97812393334E+01  0.14894321806E+02  0.51100000000E-03 0.  1.
        -11    1    3    3    0    0  0.64558066973E+01 -0.21991271136E+01 -0.62023794801E+01  0.92186285124E+01  0.51100000000E-03 0. -1.
         12    1    3    3    0    0 -0.58378154235E+01  0.15893418397E+02 -0.20276084114E+02  0.26415912331E+02  0.00000000000E+00 0. -1.
</event>
<event>
 7    1  0.5753610E-013  0.5052886E+02  0.7816164E-02  0.1300439E+00
        -11   -1    0    0    0    0  0.00000000000E+00  0.00000000000E+00  0.45593999997E+02  0.45594000000E+02  0.51100000000E-03 0.  1.
         11   -1    0    0    0    0 -0.00000000000E+00 -0.00000000000E+00 -0.45593999997E+02  0.45594000000E+02  0.51100000000E-03 0. -1.
    9900012    2    1    2    0    0 -0.97772155244E+01 -0.37474755720E+02 -0.12377972112E+02  0.50528862610E+02  0.30000008390E+02 0.  0.
        -12    1    1    2    0    0  0.97772155244E+01  0.37474755720E+02  0.12377972112E+02  0.40659137390E+02  0.00000000000E+00 0.  1.
         11    1    3    3    0    0 -0.15344697789E+02 -0.15892717254E+02 -0.32475144252E+01  0.22329007191E+02  0.51100000000E-03 0. -1.
        -11    1    3    3    0    0 -0.50151567519E+00  0.15005540994E+00 -0.52850479225E+01  0.53109101294E+01  0.51100000000E-03 0.  1.
         12    1    3    3    0    0  0.60689979396E+01 -0.21732093876E+02 -0.38454097645E+01  0.22888945290E+02  0.00000000000E+00 0. -1.
</event>
<event>
 7    1  0.5753610E-013  0.5052886E+02  0.7816164E-02  0.1300439E+00
        -11   -1    0    0    0    0  0.00000000000E+00  0.00000000000E+00  0.45593999997E+02  0.45594000000E+02  0.51100000000E-03 0.  1.
         11   -1    0    0    0    0 -0.00000000000E+00 -0.00000000000E+00 -0.45593999997E+02  0.45594000000E+02  0.51100000000E-03 0. -1.
    9900012    2    1    2    0    0  0.19819417576E+02  0.13156069118E+02 -0.32973837890E+02  0.50528862615E+02  0.30000008405E+02 0.  0.
        -12    1    1    2    0    0 -0.19819417576E+02 -0.13156069118E+02  0.32973837890E+02  0.40659137385E+02  0.00000000000E+00 0.  1.
         11    1    3    3    0    0  0.98263982682E+01 -0.84855935553E+00 -0.11187227663E+01  0.99262126108E+01  0.51100000000E-03 0.  1.
        -11    1    3    3    0    0  0.13519956649E+01  0.15991604187E+02 -0.17631186329E+02  0.23841519004E+02  0.51100000000E-03 0. -1.
         12    1    3    3    0    0  0.86410236425E+01 -0.19869757136E+01 -0.14223928794E+02  0.16761131001E+02  0.00000000000E+00 0. -1.
</event>
<event>
 7    1  0.5753610E-013  0.5052886E+02  0.7816164E-02  0.1300439E+00
        -11   -1    0    0    0    0  0.00000000000E+00  0.00000000000E+00  0.45593999997E+02  0.45594000000E+02  0.51100000000E-03 0.  1.
         11   -1    0    0    0    0 -0.00000000000E+00 -0.00000000000E+00 -0.45593999997E+02  0.45594000000E+02  0.51100000000E-03 0. -1.
    9900012    2    1    2    0    0  0.18640809316E+01 -0.78340815488E+01 -0.39853709511E+02  0.50528858430E+02  0.29999995685E+02 0.  0.
        -12    1    1    2    0    0 -0.18640809316E+01  0.78340815488E+01  0.39853709511E+02  0.40659141570E+02  0.00000000000E+00 0.  1.
         11    1    3    3    0    0  0.84097085185E+01 -0.27005977297E+01 -0.33733206517E+02  0.34870412209E+02  0.51100000000E-03 0. -1.
        -11    1    3    3    0    0  0.19673382327E+00 -0.48750465491E+01  0.18477827817E+01  0.52171912484E+01  0.51100000000E-03 0.  1.
        -12    1    3    3    0    0 -0.67423614101E+01 -0.25843727002E+00 -0.79682857752E+01  0.10441254973E+02  0.00000000000E+00 0.  1.
</event>
<event>
 7    1  0.5753610E-013  0.5052886E+02  0.7816164E-02  0.1300439E+00
        -11   -1    0    0    0    0  0.00000000000E+00  0.00000000000E+00  0.45593999997E+02  0.45594000000E+02  0.51100000000E-03 0.  1.
         11   -1    0    0    0    0 -0.00000000000E+00 -0.00000000000E+00 -0.45593999997E+02  0.45594000000E+02  0.51100000000E-03 0. -1.
    9900012    2    1    2    0    0  0.98394177390E+01  0.32192396026E+02 -0.22803529725E+02  0.50528862390E+02  0.30000007720E+02 0.  0.
        -12    1    1    2    0    0 -0.98394177390E+01 -0.32192396026E+02  0.22803529725E+02  0.40659137610E+02  0.00000000000E+00 0.  1.
         11    1    3    3    0    0  0.57911943113E+01  0.17110314500E+02 -0.96982125362E+01  0.20502588142E+02  0.51100000000E-03 0. -1.
        -11    1    3    3    0    0 -0.71744013904E+01  0.59426686794E+01 -0.12434844106E+02  0.15537461007E+02  0.51100000000E-03 0.  1.
         12    1    3    3    0    0  0.11222624818E+02  0.91394128459E+01 -0.67047308221E+00  0.14488813241E+02  0.00000000000E+00 0. -1.
</event>
<event>
 7    1  0.5753610E-013  0.5052884E+02  0.7816164E-02  0.1300439E+00
        -11   -1    0    0    0    0  0.00000000000E+00  0.00000000000E+00  0.45593999997E+02  0.45594000000E+02  0.51100000000E-03 0. -1.
         11   -1    0    0    0    0 -0.00000000000E+00 -0.00000000000E+00 -0.45593999997E+02  0.45594000000E+02  0.51100000000E-03 0.  1.
    9900012    2    1    2    0    0  0.20646543151E+02 -0.33335016561E+02  0.10754715931E+02  0.50528843737E+02  0.29999951023E+02 0.  0.
        -12    1    1    2    0    0 -0.20646543151E+02  0.33335016561E+02 -0.10754715931E+02  0.40659156263E+02  0.00000000000E+00 0.  1.
         11    1    3    3    0    0  0.10003459613E+02 -0.11094216496E+02  0.91692577653E+01  0.17527867301E+02  0.51100000000E-03 0. -1.
        -11    1    3    3    0    0 -0.29449218408E+01 -0.15923035621E+02  0.61726344184E+01  0.17329657930E+02  0.51100000000E-03 0.  1.
        -12    1    3    3    0    0  0.13588005379E+02 -0.63177644444E+01 -0.45871762524E+01  0.15671318506E+02  0.00000000000E+00 0.  1.
</event>
<event>
 7    1  0.5753610E-013  0.5052886E+02  0.7816164E-02  0.1300439E+00
        -11   -1    0    0    0    0  0.00000000000E+00  0.00000000000E+00  0.45593999997E+02  0.45594000000E+02  0.51100000000E-03 0.  1.
         11   -1    0    0    0    0 -0.00000000000E+00 -0.00000000000E+00 -0.45593999997E+02  0.45594000000E+02  0.51100000000E-03 0. -1.
    9900012    2    1    2    0    0  0.73713928612E+01 -0.31512352159E+02 -0.24612998678E+02  0.50528862340E+02  0.30000007570E+02 0.  0.
        -12    1    1    2    0    0 -0.73713928612E+01  0.31512352159E+02  0.24612998678E+02  0.40659137660E+02  0.00000000000E+00 0.  1.
         11    1    3    3    0    0 -0.33501465698E+01 -0.32482687117E+00  0.13772435002E+01  0.36367285374E+01  0.51100000000E-03 0. -1.
        -11    1    3    3    0    0  0.87050208572E+01 -0.10032763777E+02  0.47975505945E-01  0.13282922835E+02  0.51100000000E-03 0.  1.
        -12    1    3    3    0    0  0.20165185737E+01 -0.21154761511E+02 -0.26038217684E+02  0.33609210968E+02  0.00000000000E+00 0.  1.
</event>
<event>
 7    1  0.5753610E-013  0.5052886E+02  0.7816164E-02  0.1300439E+00
        -11   -1    0    0    0    0  0.00000000000E+00  0.00000000000E+00  0.45593999997E+02  0.45594000000E+02  0.51100000000E-03 0.  1.
         11   -1    0    0    0    0 -0.00000000000E+00 -0.00000000000E+00 -0.45593999997E+02  0.45594000000E+02  0.51100000000E-03 0. -1.
    9900012    2    1    2    0    0  0.25092635474E+02  0.12983833291E+02 -0.29239452626E+02  0.50528857463E+02  0.29999992745E+02 0.  0.
        -12    1    1    2    0    0 -0.25092635474E+02 -0.12983833291E+02  0.29239452626E+02  0.40659142537E+02  0.00000000000E+00 0.  1.
         11    1    3    3    0    0  0.16796857972E+02  0.11099862510E+02 -0.69444447871E+01  0.21297105417E+02  0.51100000000E-03 0. -1.
        -11    1    3    3    0    0 -0.13810106817E+00  0.82230117357E+01 -0.11490259271E+02  0.14130217701E+02  0.51100000000E-03 0.  1.
         12    1    3    3    0    0  0.84338785695E+01 -0.63390409544E+01 -0.10804748568E+02  0.15101534345E+02  0.00000000000E+00 0. -1.
</event>
<event>
 7    1  0.5753610E-013  0.5052885E+02  0.7816164E-02  0.1300439E+00
        -11   -1    0    0    0    0  0.00000000000E+00  0.00000000000E+00  0.45593999997E+02  0.45594000000E+02  0.51100000000E-03 0. -1.
         11   -1    0    0    0    0 -0.00000000000E+00 -0.00000000000E+00 -0.45593999997E+02  0.45594000000E+02  0.51100000000E-03 0.  1.
    9900012    2    1    2    0    0  0.17149654696E+02  0.30666031221E+02  0.20460939513E+02  0.50528853762E+02  0.29999981495E+02 0.  0.
        -12    1    1    2    0    0 -0.17149654696E+02 -0.30666031221E+02 -0.20460939513E+02  0.40659146238E+02  0.00000000000E+00 0.  1.
         11    1    3    3    0    0  0.32444113707E+01  0.19961953788E+02 -0.15103263646E+01  0.20280209323E+02  0.51100000000E-03 0.  1.
        -11    1    3    3    0    0  0.59852390609E+01  0.91126778050E+01  0.62336107766E+01  0.12558737475E+02  0.51100000000E-03 0. -1.
        -12    1    3    3    0    0  0.79200042642E+01  0.15913996281E+01  0.15737655101E+02  0.17689906964E+02  0.00000000000E+00 0.  1.
</event>
<event>
 7    1  0.5753610E-013  0.5052886E+02  0.7816164E-02  0.1300439E+00
        -11   -1    0    0    0    0  0.00000000000E+00  0.00000000000E+00  0.45593999997E+02  0.45594000000E+02  0.51100000000E-03 0. -1.
         11   -1    0    0    0    0 -0.00000000000E+00 -0.00000000000E+00 -0.45593999997E+02  0.45594000000E+02  0.51100000000E-03 0.  1.
    9900012    2    1    2    0    0  0.42501701018E+01 -0.35259502294E+02  0.19795683251E+02  0.50528861749E+02  0.30000005774E+02 0.  0.
        -12    1    1    2    0    0 -0.42501701018E+01  0.35259502294E+02 -0.19795683251E+02  0.40659138251E+02  0.00000000000E+00 0.  1.
         11    1    3    3    0    0  0.15397338254E+01 -0.89102185384E+01 -0.42663115778E+01  0.99982093094E+01  0.51100000000E-03 0. -1.
        -11    1    3    3    0    0  0.60127422187E+01 -0.95553945025E+01  0.36066178723E+00  0.11295517265E+02  0.51100000000E-03 0.  1.
         12    1    3    3    0    0 -0.33023059424E+01 -0.16793889253E+02  0.23701333042E+02  0.29235135175E+02  0.00000000000E+00 0. -1.
</event>
<event>
 7    1  0.5753610E-013  0.5052887E+02  0.7816164E-02  0.1300439E+00
        -11   -1    0    0    0    0  0.00000000000E+00  0.00000000000E+00  0.45593999997E+02  0.45594000000E+02  0.51100000000E-03 0. -1.
         11   -1    0    0    0    0 -0.00000000000E+00 -0.00000000000E+00 -0.45593999997E+02  0.45594000000E+02  0.51100000000E-03 0.  1.
    9900012    2    1    2    0    0  0.34791022917E+02 -0.15499863621E+02  0.14230386868E+02  0.50528868697E+02  0.30000026891E+02 0.  0.
        -12    1    1    2    0    0 -0.34791022917E+02  0.15499863621E+02 -0.14230386868E+02  0.40659131303E+02  0.00000000000E+00 0.  1.
         11    1    3    3    0    0  0.74545453746E+01 -0.95334514213E+01  0.10203984241E+02  0.15829663212E+02  0.51100000000E-03 0. -1.
        -11    1    3    3    0    0 -0.12070049170E+00  0.24039639188E+01 -0.41983769834E+01  0.48394194577E+01  0.51100000000E-03 0.  1.
         12    1    3    3    0    0  0.27457178034E+02 -0.83703761189E+01  0.82247796101E+01  0.29859786027E+02  0.00000000000E+00 0. -1.
</event>
<event>
 7    1  0.5753610E-013  0.5052886E+02  0.7816164E-02  0.1300439E+00
        -11   -1    0    0    0    0  0.00000000000E+00  0.00000000000E+00  0.45593999997E+02  0.45594000000E+02  0.51100000000E-03 0.  1.
         11   -1    0    0    0    0 -0.00000000000E+00 -0.00000000000E+00 -0.45593999997E+02  0.45594000000E+02  0.51100000000E-03 0. -1.
    9900012    2    1    2    0    0 -0.14949134108E+02  0.31555227512E+02 -0.20831631255E+02  0.50528857674E+02  0.29999993387E+02 0.  0.
        -12    1    1    2    0    0  0.14949134108E+02 -0.31555227512E+02  0.20831631255E+02  0.40659142326E+02  0.00000000000E+00 0.  1.
         11    1    3    3    0    0 -0.75008502314E+01  0.54458166824E+00 -0.10206018990E+02  0.12677623881E+02  0.51100000000E-03 0. -1.
        -11    1    3    3    0    0  0.66554901358E+00  0.23290160607E+02 -0.12584802105E+02  0.26481158979E+02  0.51100000000E-03 0.  1.
        -12    1    3    3    0    0 -0.81138328900E+01  0.77204852365E+01  0.19591898391E+01  0.11370074814E+02  0.00000000000E+00 0.  1.
</event>
<event>
 7    1  0.5753610E-013  0.5052886E+02  0.7816164E-02  0.1300439E+00
        -11   -1    0    0    0    0  0.00000000000E+00  0.00000000000E+00  0.45593999997E+02  0.45594000000E+02  0.51100000000E-03 0. -1.
         11   -1    0    0    0    0 -0.00000000000E+00 -0.00000000000E+00 -0.45593999997E+02  0.45594000000E+02  0.51100000000E-03 0.  1.
    9900012    2    1    2    0    0  0.43385083994E+01 -0.28901926457E+02  0.28266974841E+02  0.50528857427E+02  0.29999992637E+02 0.  0.
        -12    1    1    2    0    0 -0.43385083994E+01  0.28901926457E+02 -0.28266974841E+02  0.40659142573E+02  0.00000000000E+00 0.  1.
         11    1    3    3    0    0 -0.13771676473E+01 -0.88057324340E+01  0.14424266823E+02  0.16955736140E+02  0.51100000000E-03 0. -1.
        -11    1    3    3    0    0  0.62597073895E+01  0.30836215035E+01  0.56616803580E+01  0.89859491940E+01  0.51100000000E-03 0.  1.
        -12    1    3    3    0    0 -0.54403134292E+00 -0.23179815527E+02  0.81810276602E+01  0.24587172093E+02  0.00000000000E+00 0.  1.
</event>
<event>
 7    1  0.5753610E-013  0.5052886E+02  0.7816164E-02  0.1300439E+00
        -11   -1    0    0    0    0  0.00000000000E+00  0.00000000000E+00  0.45593999997E+02  0.45594000000E+02  0.51100000000E-03 0.  1.
         11   -1    0    0    0    0 -0.00000000000E+00 -0.00000000000E+00 -0.45593999997E+02  0.45594000000E+02  0.51100000000E-03 0. -1.
    9900012    2    1    2    0    0  0.76680224342E+01  0.52122387759E+01 -0.39587877635E+02  0.50528855189E+02  0.29999985833E+02 0.  0.
        -12    1    1    2    0    0 -0.76680224342E+01 -0.52122387759E+01  0.39587877635E+02  0.40659144811E+02  0.00000000000E+00 0.  1.
         11    1    3    3    0    0 -0.31179477816E+01  0.26536045718E+01 -0.86316787197E+01  0.95534859279E+01  0.51100000000E-03 0. -1.
        -11    1    3    3    0    0 -0.25164530467E+01 -0.72155254707E+01 -0.24326331755E+01  0.80196039916E+01  0.51100000000E-03 0.  1.
        -12    1    3    3    0    0  0.13302423263E+02  0.97741596747E+01 -0.28523565740E+02  0.32955765270E+02  0.00000000000E+00 0.  1.
</event>
<event>
 7    1  0.5753610E-013  0.5052886E+02  0.7816164E-02  0.1300439E+00
        -11   -1    0    0    0    0  0.00000000000E+00  0.00000000000E+00  0.45593999997E+02  0.45594000000E+02  0.51100000000E-03 0. -1.
         11   -1    0    0    0    0 -0.00000000000E+00 -0.00000000000E+00 -0.45593999997E+02  0.45594000000E+02  0.51100000000E-03 0.  1.
    9900012    2    1    2    0    0 -0.22792593792E+02 -0.20119646599E+02  0.26997466637E+02  0.50528859381E+02  0.29999998575E+02 0.  0.
        -12    1    1    2    0    0  0.22792593792E+02  0.20119646599E+02 -0.26997466637E+02  0.40659140619E+02  0.00000000000E+00 0.  1.
         11    1    3    3    0    0 -0.64741152753E+01 -0.52752755410E+01  0.96492125059E+01  0.12761269642E+02  0.51100000000E-03 0. -1.
        -11    1    3    3    0    0 -0.54439248775E+01 -0.13072171159E+02 -0.31402134776E+01  0.14504444761E+02  0.51100000000E-03 0.  1.
         12    1    3    3    0    0 -0.10874553640E+02 -0.17721998999E+01  0.20488467608E+02  0.23263144978E+02  0.00000000000E+00 0. -1.
</event>
<event>
 7    1  0.5753610E-013  0.5052886E+02  0.7816164E-02  0.1300439E+00
        -11   -1    0    0    0    0  0.00000000000E+00  0.00000000000E+00  0.45593999997E+02  0.45594000000E+02  0.51100000000E-03 0.  1.
         11   -1    0    0    0    0 -0.00000000000E+00 -0.00000000000E+00 -0.45593999997E+02  0.45594000000E+02  0.51100000000E-03 0. -1.
    9900012    2    1    2    0    0  0.16762288938E+02 -0.17050344335E+02 -0.32885814165E+02  0.50528863933E+02  0.30000012411E+02 0.  0.
        -12    1    1    2    0    0 -0.16762288938E+02  0.17050344335E+02  0.32885814165E+02  0.40659136067E+02  0.00000000000E+00 0.  1.
         11    1    3    3    0    0  0.11866596386E+02 -0.31388754053E+01 -0.30360178333E+02  0.32747657584E+02  0.51100000000E-03 0. -1.
        -11    1    3    3    0    0 -0.42700303821E+00  0.13569604291E+01 -0.52168104198E-01  0.14235150063E+01  0.51100000000E-03 0.  1.
         12    1    3    3    0    0  0.53226955903E+01 -0.15268429359E+02 -0.24734677281E+01  0.16357691342E+02  0.00000000000E+00 0. -1.
</event>
<event>
 7    1  0.5753610E-013  0.5052886E+02  0.7816164E-02  0.1300439E+00
        -11   -1    0    0    0    0  0.00000000000E+00  0.00000000000E+00  0.45593999997E+02  0.45594000000E+02  0.51100000000E-03 0. -1.
         11   -1    0    0    0    0 -0.00000000000E+00 -0.00000000000E+00 -0.45593999997E+02  0.45594000000E+02  0.51100000000E-03 0.  1.
    9900012    2    1    2    0    0  0.36574005781E+02 -0.52855339173E+01  0.16957908436E+02  0.50528862944E+02  0.30000009404E+02 0.  0.
        -12    1    1    2    0    0 -0.36574005781E+02  0.52855339173E+01 -0.16957908436E+02  0.40659137056E+02  0.00000000000E+00 0.  1.
         11    1    3    3    0    0  0.10587690696E+02  0.58967885199E+01  0.78972208153E+01  0.14465040822E+02  0.51100000000E-03 0. -1.
        -11    1    3    3    0    0 -0.34009316110E+01 -0.18880989094E+01 -0.15697257876E+00  0.38930571491E+01  0.51100000000E-03 0.  1.
        -12    1    3    3    0    0  0.29387246696E+02 -0.92942235278E+01  0.92176601992E+01  0.32170764972E+02  0.00000000000E+00 0.  1.
</event>
<event>
 7    1  0.5753610E-013  0.5052886E+02  0.7816164E-02  0.1300439E+00
        -11   -1    0    0    0    0  0.00000000000E+00  0.00000000000E+00  0.45593999997E+02  0.45594000000E+02  0.51100000000E-03 0. -1.
         11   -1    0    0    0    0 -0.00000000000E+00 -0.00000000000E+00 -0.45593999997E+02  0.45594000000E+02  0.51100000000E-03 0.  1.
    9900012    2    1    2    0    0  0.17354047706E+02 -0.33852667644E+02  0.14352691104E+02  0.50528858097E+02  0.29999994671E+02 0.  0.
        -12    1    1    2    0    0 -0.17354047706E+02  0.33852667644E+02 -0.14352691104E+02  0.40659141903E+02  0.00000000000E+00 0.  1.
         11    1    3    3    0    0  0.15847061437E+02 -0.13867650973E+02  0.12775605771E+02  0.24630412152E+02  0.51100000000E-03 0. -1.
        -11    1    3    3    0    0  0.67833282833E+01 -0.55567086958E+01 -0.38886661097E+01  0.95923030865E+01  0.51100000000E-03 0.  1.
         12    1    3    3    0    0 -0.52763420147E+01 -0.14428307975E+02  0.54657514423E+01  0.16306142858E+02  0.00000000000E+00 0. -1.
</event>
<event>
 7    1  0.5753610E-013  0.5052887E+02  0.7816164E-02  0.1300439E+00
        -11   -1    0    0    0    0  0.00000000000E+00  0.00000000000E+00  0.45593999997E+02  0.45594000000E+02  0.51100000000E-03 0.  1.
         11   -1    0    0    0    0 -0.00000000000E+00 -0.00000000000E+00 -0.45593999997E+02  0.45594000000E+02  0.51100000000E-03 0. -1.
    9900012    2    1    2    0    0  0.46698462584E+01  0.25667918112E+02 -0.31185184312E+02  0.50528865665E+02  0.30000017675E+02 0.  0.
        -12    1    1    2    0    0 -0.46698462584E+01 -0.25667918112E+02  0.31185184312E+02  0.40659134335E+02  0.00000000000E+00 0.  1.
         11    1    3    3    0    0  0.70074304029E+01  0.26391138943E+02 -0.25894318119E+02  0.37631263687E+02  0.51100000000E-03 0. -1.
        -11    1    3    3    0    0  0.32846227794E+01 -0.13915589466E+01  0.16583992128E+01  0.39338875575E+01  0.51100000000E-03 0.  1.
        -12    1    3    3    0    0 -0.56222069239E+01  0.66833811562E+00 -0.69492654055E+01  0.89637144202E+01  0.00000000000E+00 0.  1.
</event>
<event>
 7    1  0.5753610E-013  0.5052885E+02  0.7816164E-02  0.1300439E+00
        -11   -1    0    0    0    0  0.00000000000E+00  0.00000000000E+00  0.45593999997E+02  0.45594000000E+02  0.51100000000E-03 0.  1.
         11   -1    0    0    0    0 -0.00000000000E+00 -0.00000000000E+00 -0.45593999997E+02  0.45594000000E+02  0.51100000000E-03 0. -1.
    9900012    2    1    2    0    0  0.28813502509E+02  0.24758946551E+02 -0.14489421696E+02  0.50528847251E+02  0.29999961704E+02 0.  0.
        -12    1    1    2    0    0 -0.28813502509E+02 -0.24758946551E+02  0.14489421696E+02  0.40659152749E+02  0.00000000000E+00 0.  1.
         11    1    3    3    0    0  0.12783539611E+02  0.21078682867E+02 -0.15020894739E+02  0.28867923989E+02  0.51100000000E-03 0. -1.
        -11    1    3    3    0    0  0.15277198614E+02  0.45669997433E+01 -0.44426865975E+01  0.16552575287E+02  0.51100000000E-03 0.  1.
        -12    1    3    3    0    0  0.75276428358E+00 -0.88673605962E+00  0.49741596405E+01  0.51083479751E+01  0.00000000000E+00 0.  1.
</event>
<event>
 7    1  0.5753610E-013  0.5052886E+02  0.7816164E-02  0.1300439E+00
        -11   -1    0    0    0    0  0.00000000000E+00  0.00000000000E+00  0.45593999997E+02  0.45594000000E+02  0.51100000000E-03 0.  1.
         11   -1    0    0    0    0 -0.00000000000E+00 -0.00000000000E+00 -0.45593999997E+02  0.45594000000E+02  0.51100000000E-03 0. -1.
    9900012    2    1    2    0    0  0.12696051512E+02  0.37849404234E+02 -0.77070433225E+01  0.50528860294E+02  0.30000001349E+02 0.  0.
        -12    1    1    2    0    0 -0.12696051512E+02 -0.37849404234E+02  0.77070433225E+01  0.40659139706E+02  0.00000000000E+00 0.  1.
         11    1    3    3    0    0  0.89449233164E+01  0.12796948581E+02 -0.35752994244E+01  0.16017375326E+02  0.51100000000E-03 0. -1.
        -11    1    3    3    0    0  0.63635136209E+01  0.21916458211E+02  0.59926931412E+01  0.23595292273E+02  0.51100000000E-03 0.  1.
        -12    1    3    3    0    0 -0.26123854253E+01  0.31359974424E+01 -0.10124437039E+02  0.10916192694E+02  0.00000000000E+00 0.  1.
</event>
<event>
 7    1  0.5753610E-013  0.5052889E+02  0.7816164E-02  0.1300439E+00
        -11   -1    0    0    0    0  0.00000000000E+00  0.00000000000E+00  0.45593999997E+02  0.45594000000E+02  0.51100000000E-03 0.  1.
         11   -1    0    0    0    0 -0.00000000000E+00 -0.00000000000E+00 -0.45593999997E+02  0.45594000000E+02  0.51100000000E-03 0. -1.
    9900012    2    1    2    0    0 -0.56525716536E+01  0.39434028850E+02 -0.81344344282E+01  0.50528890060E+02  0.30000091827E+02 0.  0.
        -12    1    1    2    0    0  0.56525716536E+01 -0.39434028850E+02  0.81344344282E+01  0.40659109940E+02  0.00000000000E+00 0.  1.
         11    1    3    3    0    0 -0.15182008674E+01 -0.99581109914E+00  0.44063363847E+01  0.47657501209E+01  0.51100000000E-03 0. -1.
        -11    1    3    3    0    0 -0.17896340740E+00  0.13501989396E+02  0.37872459822E+01  0.14024228247E+02  0.51100000000E-03 0.  1.
         12    1    3    3    0    0 -0.39554073788E+01  0.26927850553E+02 -0.16328016795E+02  0.31738911692E+02  0.00000000000E+00 0. -1.
</event>
<event>
 7    1  0.5753610E-013  0.5052885E+02  0.7816164E-02  0.1300439E+00
        -11   -1    0    0    0    0  0.00000000000E+00  0.00000000000E+00  0.45593999997E+02  0.45594000000E+02  0.51100000000E-03 0. -1.
         11   -1    0    0    0    0 -0.00000000000E+00 -0.00000000000E+00 -0.45593999997E+02  0.45594000000E+02  0.51100000000E-03 0.  1.
    9900012    2    1    2    0    0  0.23097841188E+02  0.27726186195E+01  0.33346201306E+02  0.50528845765E+02  0.29999957188E+02 0.  0.
        -12    1    1    2    0    0 -0.23097841188E+02 -0.27726186195E+01 -0.33346201306E+02  0.40659154235E+02  0.00000000000E+00 0.  1.
         11    1    3    3    0    0  0.39733117031E+01 -0.42305926572E+01 -0.12048641350E+01  0.59276317334E+01  0.51100000000E-03 0. -1.
        -11    1    3    3    0    0 -0.13929055309E+01  0.64019086284E+01  0.36378893392E+01  0.74939214707E+01  0.51100000000E-03 0.  1.
         12    1    3    3    0    0  0.20517435015E+02  0.60130264832E+00  0.30913176102E+02  0.37107292561E+02  0.00000000000E+00 0. -1.
</event>
<event>
 7    1  0.6933411E-013  0.5052886E+02  0.7816164E-02  0.1300439E+00
        -11   -1    0    0    0    0  0.00000000000E+00  0.00000000000E+00  0.45593999997E+02  0.45594000000E+02  0.51100000000E-03 0. -1.
         11   -1    0    0    0    0 -0.00000000000E+00 -0.00000000000E+00 -0.45593999997E+02  0.45594000000E+02  0.51100000000E-03 0.  1.
    9900012    2    1    2    0    0 -0.22949869490E+02  0.10677430155E+02  0.31819201349E+02  0.50528860820E+02  0.30000002950E+02 0.  0.
        -12    1    1    2    0    0  0.22949869490E+02 -0.10677430155E+02 -0.31819201349E+02  0.40659139180E+02  0.00000000000E+00 0.  1.
         11    1    3    3    0    0  0.19501288939E+01  0.14638221835E+01  0.10088696898E+02  0.10379189922E+02  0.51100000000E-03 0. -1.
        -11    1    3    3    0    0  0.28223672134E+00 -0.14743594435E+01 -0.29470330136E+01  0.33073247769E+01  0.51100000000E-03 0.  1.
         12    1    3    3    0    0 -0.25182235106E+02  0.10687967415E+02  0.24677537465E+02  0.36842346121E+02  0.00000000000E+00 0. -1.
</event>
<event>
 7    1  0.5753610E-013  0.5052880E+02  0.7816164E-02  0.1300439E+00
        -11   -1    0    0    0    0  0.00000000000E+00  0.00000000000E+00  0.45593999997E+02  0.45594000000E+02  0.51100000000E-03 0.  1.
         11   -1    0    0    0    0 -0.00000000000E+00 -0.00000000000E+00 -0.45593999997E+02  0.45594000000E+02  0.51100000000E-03 0. -1.
    9900012    2    1    2    0    0  0.31067461839E+02  0.26202599616E+02  0.11860898682E+01  0.50528803980E+02  0.29999830178E+02 0.  0.
        -12    1    1    2    0    0 -0.31067461839E+02 -0.26202599616E+02 -0.11860898682E+01  0.40659196020E+02  0.00000000000E+00 0.  1.
         11    1    3    3    0    0  0.14229715052E+02 -0.17801772549E+00  0.35622809552E+01  0.14669912292E+02  0.51100000000E-03 0. -1.
        -11    1    3    3    0    0  0.19713069483E+01  0.12284794933E-01  0.44157669488E+01  0.48358246461E+01  0.51100000000E-03 0.  1.
         12    1    3    3    0    0  0.14866439839E+02  0.26368332547E+02 -0.67919580358E+01  0.31023067043E+02  0.00000000000E+00 0. -1.
</event>
<event>
 7    1  0.5753610E-013  0.5052884E+02  0.7816164E-02  0.1300439E+00
        -11   -1    0    0    0    0  0.00000000000E+00  0.00000000000E+00  0.45593999997E+02  0.45594000000E+02  0.51100000000E-03 0.  1.
         11   -1    0    0    0    0 -0.00000000000E+00 -0.00000000000E+00 -0.45593999997E+02  0.45594000000E+02  0.51100000000E-03 0. -1.
    9900012    2    1    2    0    0  0.17887161747E+02  0.11298223579E+02 -0.34721268978E+02  0.50528844440E+02  0.29999953160E+02 0.  0.
        -12    1    1    2    0    0 -0.17887161747E+02 -0.11298223579E+02  0.34721268978E+02  0.40659155560E+02  0.00000000000E+00 0.  1.
         11    1    3    3    0    0  0.31601517317E+01  0.87566292781E+01 -0.24827777303E+02  0.26515724417E+02  0.51100000000E-03 0. -1.
        -11    1    3    3    0    0  0.47064082059E+00  0.36331938441E+01 -0.89652732872E+01  0.96849225947E+01  0.51100000000E-03 0.  1.
        -12    1    3    3    0    0  0.14256369195E+02 -0.10915995434E+01 -0.92821838832E+00  0.14328197429E+02  0.00000000000E+00 0.  1.
</event>
<event>
 7    1  0.5753610E-013  0.5052886E+02  0.7816164E-02  0.1300439E+00
        -11   -1    0    0    0    0  0.00000000000E+00  0.00000000000E+00  0.45593999997E+02  0.45594000000E+02  0.51100000000E-03 0.  1.
         11   -1    0    0    0    0 -0.00000000000E+00 -0.00000000000E+00 -0.45593999997E+02  0.45594000000E+02  0.51100000000E-03 0. -1.
    9900012    2    1    2    0    0  0.27568415649E+02  0.71500760804E+01 -0.29017664736E+02  0.50528855935E+02  0.29999988100E+02 0.  0.
        -12    1    1    2    0    0 -0.27568415649E+02 -0.71500760804E+01  0.29017664736E+02  0.40659144065E+02  0.00000000000E+00 0.  1.
         11    1    3    3    0    0  0.12925388420E+02 -0.10403113067E+01 -0.54636180886E+01  0.14071213036E+02  0.51100000000E-03 0. -1.
        -11    1    3    3    0    0  0.17784391956E+02  0.10335834565E+02 -0.25011889744E+02  0.32383772205E+02  0.51100000000E-03 0.  1.
        -12    1    3    3    0    0 -0.31413647272E+01 -0.21454471775E+01  0.14578430963E+01  0.40738706943E+01  0.00000000000E+00 0.  1.
</event>
<event>
 7    1  0.5753610E-013  0.5052881E+02  0.7816164E-02  0.1300439E+00
        -11   -1    0    0    0    0  0.00000000000E+00  0.00000000000E+00  0.45593999997E+02  0.45594000000E+02  0.51100000000E-03 0. -1.
         11   -1    0    0    0    0 -0.00000000000E+00 -0.00000000000E+00 -0.45593999997E+02  0.45594000000E+02  0.51100000000E-03 0.  1.
    9900012    2    1    2    0    0  0.39016414169E+02 -0.14497496627E+01 -0.11348445067E+02  0.50528812181E+02  0.29999855104E+02 0.  0.
        -12    1    1    2    0    0 -0.39016414169E+02  0.14497496627E+01  0.11348445067E+02  0.40659187819E+02  0.00000000000E+00 0.  1.
         11    1    3    3    0    0  0.40610922555E+01  0.42780521748E+01 -0.78020939758E+01  0.97809442993E+01  0.51100000000E-03 0. -1.
        -11    1    3    3    0    0  0.31810497912E+01 -0.65649998158E+01 -0.51378196922E+01  0.89227513585E+01  0.51100000000E-03 0.  1.
         12    1    3    3    0    0  0.31774272123E+02  0.83719797826E+00  0.15914686014E+01  0.31825116523E+02  0.00000000000E+00 0. -1.
</event>
<event>
 7    1  0.5753610E-013  0.5052886E+02  0.7816164E-02  0.1300439E+00
        -11   -1    0    0    0    0  0.00000000000E+00  0.00000000000E+00  0.45593999997E+02  0.45594000000E+02  0.51100000000E-03 0. -1.
         11   -1    0    0    0    0 -0.00000000000E+00 -0.00000000000E+00 -0.45593999997E+02  0.45594000000E+02  0.51100000000E-03 0.  1.
    9900012    2    1    2    0    0  0.29333421436E+02  0.24193957078E+02  0.14400300205E+02  0.50528858123E+02  0.29999994750E+02 0.  0.
        -12    1    1    2    0    0 -0.29333421436E+02 -0.24193957078E+02 -0.14400300205E+02  0.40659141877E+02  0.00000000000E+00 0.  1.
         11    1    3    3    0    0  0.11903043317E+01 -0.15854223444E+01  0.40961178337E+00  0.20243938565E+01  0.51100000000E-03 0. -1.
        -11    1    3    3    0    0  0.21471098347E+02  0.53458363922E+01  0.15407602357E+02  0.26962571124E+02  0.51100000000E-03 0.  1.
         12    1    3    3    0    0  0.66720187567E+01  0.20433543030E+02 -0.14169139350E+01  0.21541893142E+02  0.00000000000E+00 0. -1.
</event>
<event>
 7    1  0.5753610E-013  0.5052886E+02  0.7816164E-02  0.1300439E+00
        -11   -1    0    0    0    0  0.00000000000E+00  0.00000000000E+00  0.45593999997E+02  0.45594000000E+02  0.51100000000E-03 0. -1.
         11   -1    0    0    0    0 -0.00000000000E+00 -0.00000000000E+00 -0.45593999997E+02  0.45594000000E+02  0.51100000000E-03 0.  1.
    9900012    2    1    2    0    0 -0.47247622710E+00  0.39563165066E+02  0.93647459309E+01  0.50528859205E+02  0.29999998039E+02 0.  0.
        -12    1    1    2    0    0  0.47247622710E+00 -0.39563165066E+02 -0.93647459309E+01  0.40659140795E+02  0.00000000000E+00 0.  1.
         11    1    3    3    0    0  0.52559263138E+01  0.19207811214E+00  0.41477296395E+01  0.66981577199E+01  0.51100000000E-03 0. -1.
        -11    1    3    3    0    0 -0.58521948121E+00  0.11760622301E+02 -0.64411870302E+01  0.13421758803E+02  0.51100000000E-03 0.  1.
         12    1    3    3    0    0 -0.51431830597E+01  0.27610464653E+02  0.11658203322E+02  0.30408942682E+02  0.00000000000E+00 0. -1.
</event>
<event>
 7    1  0.5753610E-013  0.5052886E+02  0.7816164E-02  0.1300439E+00
        -11   -1    0    0    0    0  0.00000000000E+00  0.00000000000E+00  0.45593999997E+02  0.45594000000E+02  0.51100000000E-03 0.  1.
         11   -1    0    0    0    0 -0.00000000000E+00 -0.00000000000E+00 -0.45593999997E+02  0.45594000000E+02  0.51100000000E-03 0. -1.
    9900012    2    1    2    0    0 -0.38274112701E+01  0.40478595635E+02 -0.22075404473E-02  0.50528858512E+02  0.29999995934E+02 0.  0.
        -12    1    1    2    0    0  0.38274112701E+01 -0.40478595635E+02  0.22075404473E-02  0.40659141488E+02  0.00000000000E+00 0.  1.
         11    1    3    3    0    0 -0.60750854804E+00 -0.47543582610E+01 -0.93038671421E+00  0.48824797807E+01  0.51100000000E-03 0. -1.
        -11    1    3    3    0    0  0.29715142346E+00  0.58440767659E+01  0.16989861711E+01  0.60932820782E+01  0.51100000000E-03 0.  1.
         12    1    3    3    0    0 -0.35170541456E+01  0.39388877130E+02 -0.77080699736E+00  0.39553096654E+02  0.00000000000E+00 0. -1.
</event>
<event>
 7    1  0.5753610E-013  0.5052886E+02  0.7816164E-02  0.1300439E+00
        -11   -1    0    0    0    0  0.00000000000E+00  0.00000000000E+00  0.45593999997E+02  0.45594000000E+02  0.51100000000E-03 0. -1.
         11   -1    0    0    0    0 -0.00000000000E+00 -0.00000000000E+00 -0.45593999997E+02  0.45594000000E+02  0.51100000000E-03 0.  1.
    9900012    2    1    2    0    0  0.23491444576E+02 -0.10144871310E+02 -0.31597460045E+02  0.50528857566E+02  0.29999993058E+02 0.  0.
        -12    1    1    2    0    0 -0.23491444576E+02  0.10144871310E+02  0.31597460045E+02  0.40659142434E+02  0.00000000000E+00 0.  1.
         11    1    3    3    0    0  0.13027524915E+02 -0.89564422625E+01 -0.19078629569E+02  0.24777577967E+02  0.51100000000E-03 0. -1.
        -11    1    3    3    0    0 -0.96658751606E+00 -0.78209018620E+01 -0.92229680643E+01  0.12131114439E+02  0.51100000000E-03 0.  1.
         12    1    3    3    0    0  0.11430507177E+02  0.66324728141E+01 -0.32958624117E+01  0.13620165160E+02  0.00000000000E+00 0. -1.
</event>
<event>
 7    1  0.5753610E-013  0.5052886E+02  0.7816164E-02  0.1300439E+00
        -11   -1    0    0    0    0  0.00000000000E+00  0.00000000000E+00  0.45593999997E+02  0.45594000000E+02  0.51100000000E-03 0.  1.
         11   -1    0    0    0    0 -0.00000000000E+00 -0.00000000000E+00 -0.45593999997E+02  0.45594000000E+02  0.51100000000E-03 0. -1.
    9900012    2    1    2    0    0  0.15957080660E+02  0.33436379307E+02 -0.16749492105E+02  0.50528863633E+02  0.30000011498E+02 0.  0.
        -12    1    1    2    0    0 -0.15957080660E+02 -0.33436379307E+02  0.16749492105E+02  0.40659136367E+02  0.00000000000E+00 0.  1.
         11    1    3    3    0    0  0.82133636358E+01  0.20364708111E+02 -0.14537648636E+02  0.26334842069E+02  0.51100000000E-03 0. -1.
        -11    1    3    3    0    0  0.12693506388E+02  0.99465472750E+01 -0.60168747863E+01  0.17212254052E+02  0.51100000000E-03 0.  1.
         12    1    3    3    0    0 -0.49497893636E+01  0.31251239208E+01  0.38050313165E+01  0.69817675114E+01  0.00000000000E+00 0. -1.
</event>
<event>
 7    1  0.5753610E-013  0.5052886E+02  0.7816164E-02  0.1300439E+00
        -11   -1    0    0    0    0  0.00000000000E+00  0.00000000000E+00  0.45593999997E+02  0.45594000000E+02  0.51100000000E-03 0.  1.
         11   -1    0    0    0    0 -0.00000000000E+00 -0.00000000000E+00 -0.45593999997E+02  0.45594000000E+02  0.51100000000E-03 0. -1.
    9900012    2    1    2    0    0  0.15671591585E+02  0.33487340237E+02 -0.16916405605E+02  0.50528861820E+02  0.30000005988E+02 0.  0.
        -12    1    1    2    0    0 -0.15671591585E+02 -0.33487340237E+02  0.16916405605E+02  0.40659138180E+02  0.00000000000E+00 0.  1.
         11    1    3    3    0    0 -0.15348023231E+00  0.13079310481E+02 -0.17953230854E+02  0.22212843519E+02  0.51100000000E-03 0. -1.
        -11    1    3    3    0    0  0.44997149054E+00  0.38037150886E-01  0.27030492232E+01  0.27405102684E+01  0.51100000000E-03 0.  1.
         12    1    3    3    0    0  0.15375100327E+02  0.20369992605E+02 -0.16662239735E+01  0.25575508032E+02  0.00000000000E+00 0. -1.
</event>
<event>
 7    1  0.5753610E-013  0.5052884E+02  0.7816164E-02  0.1300439E+00
        -11   -1    0    0    0    0  0.00000000000E+00  0.00000000000E+00  0.45593999997E+02  0.45594000000E+02  0.51100000000E-03 0. -1.
         11   -1    0    0    0    0 -0.00000000000E+00 -0.00000000000E+00 -0.45593999997E+02  0.45594000000E+02  0.51100000000E-03 0.  1.
    9900012    2    1    2    0    0  0.13892294580E+02  0.36368370085E+01  0.38038730006E+02  0.50528838516E+02  0.29999935153E+02 0.  0.
        -12    1    1    2    0    0 -0.13892294580E+02 -0.36368370085E+01 -0.38038730006E+02  0.40659161484E+02  0.00000000000E+00 0.  1.
         11    1    3    3    0    0  0.10147935341E+02  0.66346305602E+01  0.17937082795E+02  0.21650354588E+02  0.51100000000E-03 0. -1.
        -11    1    3    3    0    0 -0.67503522173E+01 -0.12634149305E+01  0.16117747247E+02  0.17519852994E+02  0.51100000000E-03 0.  1.
         12    1    3    3    0    0  0.10494711457E+02 -0.17343786212E+01  0.39838999640E+01  0.11358630934E+02  0.00000000000E+00 0. -1.
</event>
<event>
 7    1  0.5753610E-013  0.5052886E+02  0.7816164E-02  0.1300439E+00
        -11   -1    0    0    0    0  0.00000000000E+00  0.00000000000E+00  0.45593999997E+02  0.45594000000E+02  0.51100000000E-03 0.  1.
         11   -1    0    0    0    0 -0.00000000000E+00 -0.00000000000E+00 -0.45593999997E+02  0.45594000000E+02  0.51100000000E-03 0. -1.
    9900012    2    1    2    0    0 -0.43015822916E+01  0.23810378506E+01 -0.40360783073E+02  0.50528858817E+02  0.29999996859E+02 0.  0.
        -12    1    1    2    0    0  0.43015822916E+01 -0.23810378506E+01  0.40360783073E+02  0.40659141183E+02  0.00000000000E+00 0.  1.
         11    1    3    3    0    0 -0.14111164225E+02 -0.45378092881E+01 -0.29921370481E+02  0.33391691791E+02  0.51100000000E-03 0. -1.
        -11    1    3    3    0    0 -0.78096212796E+00  0.14598544326E+01 -0.97938581666E+00  0.19236095364E+01  0.51100000000E-03 0.  1.
        -12    1    3    3    0    0  0.10590544062E+02  0.54589927061E+01 -0.94600267755E+01  0.15213557489E+02  0.00000000000E+00 0.  1.
</event>
<event>
 7    1  0.5753610E-013  0.5052888E+02  0.7816164E-02  0.1300439E+00
        -11   -1    0    0    0    0  0.00000000000E+00  0.00000000000E+00  0.45593999997E+02  0.45594000000E+02  0.51100000000E-03 0. -1.
         11   -1    0    0    0    0 -0.00000000000E+00 -0.00000000000E+00 -0.45593999997E+02  0.45594000000E+02  0.51100000000E-03 0.  1.
    9900012    2    1    2    0    0  0.86701760670E+01  0.34092334944E+02  0.20388842498E+02  0.50528878596E+02  0.30000056980E+02 0.  0.
        -12    1    1    2    0    0 -0.86701760670E+01 -0.34092334944E+02 -0.20388842498E+02  0.40659121404E+02  0.00000000000E+00 0.  1.
         11    1    3    3    0    0  0.59362726167E+01  0.34623562251E+01  0.59474366181E+01  0.90884127215E+01  0.51100000000E-03 0. -1.
        -11    1    3    3    0    0 -0.81783538212E+01  0.28536496886E+01  0.56033395359E+01  0.10316307575E+02  0.51100000000E-03 0.  1.
         12    1    3    3    0    0  0.10912257271E+02  0.27776329030E+02  0.88380663440E+01  0.31124158299E+02  0.00000000000E+00 0. -1.
</event>
<event>
 7    1  0.5753610E-013  0.5052885E+02  0.7816164E-02  0.1300439E+00
        -11   -1    0    0    0    0  0.00000000000E+00  0.00000000000E+00  0.45593999997E+02  0.45594000000E+02  0.51100000000E-03 0.  1.
         11   -1    0    0    0    0 -0.00000000000E+00 -0.00000000000E+00 -0.45593999997E+02  0.45594000000E+02  0.51100000000E-03 0. -1.
    9900012    2    1    2    0    0 -0.12394637706E+02  0.33069868321E+01 -0.38582417535E+02  0.50528854059E+02  0.29999982398E+02 0.  0.
        -12    1    1    2    0    0  0.12394637706E+02 -0.33069868321E+01  0.38582417535E+02  0.40659145941E+02  0.00000000000E+00 0.  1.
         11    1    3    3    0    0  0.15266887239E+01 -0.57840587737E+01 -0.15386055595E+02  0.16508083517E+02  0.51100000000E-03 0. -1.
        -11    1    3    3    0    0 -0.90027067330E+01 -0.47624083391E+01 -0.96512342073E+01  0.14031236000E+02  0.51100000000E-03 0.  1.
        -12    1    3    3    0    0 -0.49186196965E+01  0.13853453945E+02 -0.13545127733E+02  0.19989534543E+02  0.00000000000E+00 0.  1.
</event>
<event>
 7    1  0.5753610E-013  0.5052886E+02  0.7816164E-02  0.1300439E+00
        -11   -1    0    0    0    0  0.00000000000E+00  0.00000000000E+00  0.45593999997E+02  0.45594000000E+02  0.51100000000E-03 0. -1.
         11   -1    0    0    0    0 -0.00000000000E+00 -0.00000000000E+00 -0.45593999997E+02  0.45594000000E+02  0.51100000000E-03 0.  1.
    9900012    2    1    2    0    0  0.11043584776E+01 -0.37324059765E+02 -0.16089139919E+02  0.50528862425E+02  0.30000007828E+02 0.  0.
        -12    1    1    2    0    0 -0.11043584776E+01  0.37324059765E+02  0.16089139919E+02  0.40659137575E+02  0.00000000000E+00 0.  1.
         11    1    3    3    0    0  0.46011443902E+01 -0.12373547749E+02 -0.65423091915E+01  0.14733533976E+02  0.51100000000E-03 0. -1.
        -11    1    3    3    0    0 -0.36707415854E+01 -0.69651211106E+01  0.76018077508E+01  0.10944164528E+02  0.51100000000E-03 0.  1.
         12    1    3    3    0    0  0.17395567280E+00 -0.17985390905E+02 -0.17148638478E+02  0.24851163922E+02  0.00000000000E+00 0. -1.
</event>
<event>
 7    1  0.5753610E-013  0.5052886E+02  0.7816164E-02  0.1300439E+00
        -11   -1    0    0    0    0  0.00000000000E+00  0.00000000000E+00  0.45593999997E+02  0.45594000000E+02  0.51100000000E-03 0.  1.
         11   -1    0    0    0    0 -0.00000000000E+00 -0.00000000000E+00 -0.45593999997E+02  0.45594000000E+02  0.51100000000E-03 0. -1.
    9900012    2    1    2    0    0 -0.76711528167E+01 -0.11495837430E+02 -0.38238267940E+02  0.50528855902E+02  0.29999987998E+02 0.  0.
        -12    1    1    2    0    0  0.76711528167E+01  0.11495837430E+02  0.38238267940E+02  0.40659144098E+02  0.00000000000E+00 0.  1.
         11    1    3    3    0    0 -0.91029043637E+01 -0.13088826970E+00 -0.12438083430E+02  0.15413822345E+02  0.51100000000E-03 0. -1.
        -11    1    3    3    0    0  0.40959239778E+00  0.18752132081E+01 -0.20857232924E+02  0.20945365979E+02  0.51100000000E-03 0.  1.
        -12    1    3    3    0    0  0.10221591491E+01 -0.13240162369E+02 -0.49429515860E+01  0.14169667578E+02  0.00000000000E+00 0.  1.
</event>
<event>
 7    1  0.5753610E-013  0.5052886E+02  0.7816164E-02  0.1300439E+00
        -11   -1    0    0    0    0  0.00000000000E+00  0.00000000000E+00  0.45593999997E+02  0.45594000000E+02  0.51100000000E-03 0.  1.
         11   -1    0    0    0    0 -0.00000000000E+00 -0.00000000000E+00 -0.45593999997E+02  0.45594000000E+02  0.51100000000E-03 0. -1.
    9900012    2    1    2    0    0  0.91547284379E+01 -0.28304548859E+01 -0.39513861223E+02  0.50528858883E+02  0.29999997062E+02 0.  0.
        -12    1    1    2    0    0 -0.91547284379E+01  0.28304548859E+01  0.39513861223E+02  0.40659141117E+02  0.00000000000E+00 0.  1.
         11    1    3    3    0    0  0.43447587393E+01 -0.38328191925E+01 -0.60708668473E+01  0.83918326964E+01  0.51100000000E-03 0. -1.
        -11    1    3    3    0    0  0.82883006442E+01 -0.69467458327E+01 -0.41457510317E+01  0.11581902137E+02  0.51100000000E-03 0.  1.
         12    1    3    3    0    0 -0.34783309457E+01  0.79491101393E+01 -0.29297243344E+02  0.30555124050E+02  0.00000000000E+00 0. -1.
</event>
<event>
 7    1  0.5753610E-013  0.5052885E+02  0.7816164E-02  0.1300439E+00
        -11   -1    0    0    0    0  0.00000000000E+00  0.00000000000E+00  0.45593999997E+02  0.45594000000E+02  0.51100000000E-03 0. -1.
         11   -1    0    0    0    0 -0.00000000000E+00 -0.00000000000E+00 -0.45593999997E+02  0.45594000000E+02  0.51100000000E-03 0.  1.
    9900012    2    1    2    0    0 -0.40554423712E+02  0.28711079178E+01 -0.51166716224E+00  0.50528851625E+02  0.29999975000E+02 0.  0.
        -12    1    1    2    0    0  0.40554423712E+02 -0.28711079178E+01  0.51166716224E+00  0.40659148375E+02  0.00000000000E+00 0.  1.
         11    1    3    3    0    0 -0.23889136015E+02  0.68484662759E+01  0.28499914323E+01  0.25014291142E+02  0.51100000000E-03 0. -1.
        -11    1    3    3    0    0 -0.10228805361E+02 -0.10685658010E+02  0.17662401691E+01  0.14897360532E+02  0.51100000000E-03 0.  1.
         12    1    3    3    0    0 -0.64364823361E+01  0.67082996521E+01 -0.51278987637E+01  0.10617199952E+02  0.00000000000E+00 0. -1.
</event>
<event>
 7    1  0.5753610E-013  0.5052887E+02  0.7816164E-02  0.1300439E+00
        -11   -1    0    0    0    0  0.00000000000E+00  0.00000000000E+00  0.45593999997E+02  0.45594000000E+02  0.51100000000E-03 0. -1.
         11   -1    0    0    0    0 -0.00000000000E+00 -0.00000000000E+00 -0.45593999997E+02  0.45594000000E+02  0.51100000000E-03 0.  1.
    9900012    2    1    2    0    0 -0.36839354166E+02  0.11018689630E+02  0.13214200254E+02  0.50528872797E+02  0.30000039355E+02 0.  0.
        -12    1    1    2    0    0  0.36839354166E+02 -0.11018689630E+02 -0.13214200254E+02  0.40659127203E+02  0.00000000000E+00 0.  1.
         11    1    3    3    0    0 -0.24407327485E+02  0.17206654607E+02 -0.12842665326E+01  0.29890398768E+02  0.51100000000E-03 0. -1.
        -11    1    3    3    0    0 -0.27136127094E+01 -0.30398227891E+01  0.21339378616E+01  0.45997725578E+01  0.51100000000E-03 0.  1.
        -12    1    3    3    0    0 -0.97184139713E+01 -0.31481421876E+01  0.12364528925E+02  0.16038701471E+02  0.00000000000E+00 0.  1.
</event>
<event>
 7    1  0.5753610E-013  0.5052886E+02  0.7816164E-02  0.1300439E+00
        -11   -1    0    0    0    0  0.00000000000E+00  0.00000000000E+00  0.45593999997E+02  0.45594000000E+02  0.51100000000E-03 0. -1.
         11   -1    0    0    0    0 -0.00000000000E+00 -0.00000000000E+00 -0.45593999997E+02  0.45594000000E+02  0.51100000000E-03 0.  1.
    9900012    2    1    2    0    0  0.15934881998E+02  0.23132042789E+02  0.29396487872E+02  0.50528863670E+02  0.30000011612E+02 0.  0.
        -12    1    1    2    0    0 -0.15934881998E+02 -0.23132042789E+02 -0.29396487872E+02  0.40659136330E+02  0.00000000000E+00 0.  1.
         11    1    3    3    0    0  0.13349809914E+02  0.27457883440E+02  0.27906710052E+02  0.41363477295E+02  0.51100000000E-03 0. -1.
        -11    1    3    3    0    0 -0.11023338298E+01  0.12586858492E+01 -0.10860169678E+01  0.19947087644E+01  0.51100000000E-03 0.  1.
        -12    1    3    3    0    0  0.36874059133E+01 -0.55845265006E+01  0.25757947887E+01  0.71706776109E+01  0.00000000000E+00 0.  1.
</event>
<event>
 7    1  0.5753610E-013  0.5052886E+02  0.7816164E-02  0.1300439E+00
        -11   -1    0    0    0    0  0.00000000000E+00  0.00000000000E+00  0.45593999997E+02  0.45594000000E+02  0.51100000000E-03 0. -1.
         11   -1    0    0    0    0 -0.00000000000E+00 -0.00000000000E+00 -0.45593999997E+02  0.45594000000E+02  0.51100000000E-03 0.  1.
    9900012    2    1    2    0    0  0.36723874500E+02  0.16147296876E+02  0.66172097126E+01  0.50528860571E+02  0.30000002193E+02 0.  0.
        -12    1    1    2    0    0 -0.36723874500E+02 -0.16147296876E+02 -0.66172097126E+01  0.40659139429E+02  0.00000000000E+00 0.  1.
         11    1    3    3    0    0  0.10358385875E+02  0.10821477754E+02 -0.45869915465E+00  0.14987025853E+02  0.51100000000E-03 0. -1.
        -11    1    3    3    0    0 -0.17852366974E+01  0.38447582334E+01  0.59810695588E+01  0.73309228115E+01  0.51100000000E-03 0.  1.
         12    1    3    3    0    0  0.28150725322E+02  0.14810608877E+01  0.10948393084E+01  0.28210911907E+02  0.00000000000E+00 0. -1.
</event>
<event>
 7    1  0.5753610E-013  0.5052886E+02  0.7816164E-02  0.1300439E+00
        -11   -1    0    0    0    0  0.00000000000E+00  0.00000000000E+00  0.45593999997E+02  0.45594000000E+02  0.51100000000E-03 0.  1.
         11   -1    0    0    0    0 -0.00000000000E+00 -0.00000000000E+00 -0.45593999997E+02  0.45594000000E+02  0.51100000000E-03 0. -1.
    9900012    2    1    2    0    0 -0.32758300604E+02  0.13661706971E+02 -0.19834748249E+02  0.50528859159E+02  0.29999997899E+02 0.  0.
        -12    1    1    2    0    0  0.32758300604E+02 -0.13661706971E+02  0.19834748249E+02  0.40659140841E+02  0.00000000000E+00 0.  1.
         11    1    3    3    0    0 -0.13495931686E+02  0.12029917429E+02 -0.84292361869E+01  0.19947709352E+02  0.51100000000E-03 0. -1.
        -11    1    3    3    0    0 -0.15759500379E+02 -0.77390559378E+01 -0.36736765669E+01  0.17937411708E+02  0.51100000000E-03 0.  1.
         12    1    3    3    0    0 -0.35028685394E+01  0.93708454791E+01 -0.77318354949E+01  0.12643738099E+02  0.00000000000E+00 0. -1.
</event>
<event>
 7    1  0.5753610E-013  0.5052886E+02  0.7816164E-02  0.1300439E+00
        -11   -1    0    0    0    0  0.00000000000E+00  0.00000000000E+00  0.45593999997E+02  0.45594000000E+02  0.51100000000E-03 0.  1.
         11   -1    0    0    0    0 -0.00000000000E+00 -0.00000000000E+00 -0.45593999997E+02  0.45594000000E+02  0.51100000000E-03 0. -1.
    9900012    2    1    2    0    0 -0.35068543544E+02 -0.16218596951E+02 -0.12661765051E+02  0.50528856777E+02  0.29999990660E+02 0.  0.
        -12    1    1    2    0    0  0.35068543544E+02  0.16218596951E+02  0.12661765051E+02  0.40659143223E+02  0.00000000000E+00 0.  1.
         11    1    3    3    0    0 -0.15464104553E+02 -0.17258333074E+02 -0.11747962729E+02  0.25980824057E+02  0.51100000000E-03 0. -1.
        -11    1    3    3    0    0 -0.20537971680E+02 -0.48527563702E-01 -0.41996259713E+01  0.20963002987E+02  0.51100000000E-03 0.  1.
         12    1    3    3    0    0  0.93353268900E+00  0.10882636867E+01  0.32858236497E+01  0.35850297335E+01  0.00000000000E+00 0. -1.
</event>
<event>
 7    1  0.5753610E-013  0.5052886E+02  0.7816164E-02  0.1300439E+00
        -11   -1    0    0    0    0  0.00000000000E+00  0.00000000000E+00  0.45593999997E+02  0.45594000000E+02  0.51100000000E-03 0.  1.
         11   -1    0    0    0    0 -0.00000000000E+00 -0.00000000000E+00 -0.45593999997E+02  0.45594000000E+02  0.51100000000E-03 0. -1.
    9900012    2    1    2    0    0  0.39720871128E+02 -0.56253505343E+01  0.66161473253E+01  0.50528861086E+02  0.30000003757E+02 0.  0.
        -12    1    1    2    0    0 -0.39720871128E+02  0.56253505343E+01 -0.66161473253E+01  0.40659138914E+02  0.00000000000E+00 0.  1.
         11    1    3    3    0    0  0.17026355302E+02 -0.12268138206E+01 -0.72007893530E+01  0.18527094067E+02  0.51100000000E-03 0. -1.
        -11    1    3    3    0    0  0.91368155346E+01 -0.55170810045E+01 -0.22925530791E+01  0.10916747721E+02  0.51100000000E-03 0.  1.
        -12    1    3    3    0    0  0.13557700292E+02  0.11185442907E+01  0.16109489757E+02  0.21085019298E+02  0.00000000000E+00 0.  1.
</event>
<event>
 7    1  0.5753610E-013  0.5052885E+02  0.7816164E-02  0.1300439E+00
        -11   -1    0    0    0    0  0.00000000000E+00  0.00000000000E+00  0.45593999997E+02  0.45594000000E+02  0.51100000000E-03 0.  1.
         11   -1    0    0    0    0 -0.00000000000E+00 -0.00000000000E+00 -0.45593999997E+02  0.45594000000E+02  0.51100000000E-03 0. -1.
    9900012    2    1    2    0    0 -0.27963902877E+02 -0.29091496149E+02 -0.49870963083E+01  0.50528854143E+02  0.29999982652E+02 0.  0.
        -12    1    1    2    0    0  0.27963902877E+02  0.29091496149E+02  0.49870963083E+01  0.40659145857E+02  0.00000000000E+00 0.  1.
         11    1    3    3    0    0 -0.90737653374E+01  0.13549528617E+01 -0.34730883485E+01  0.98097633811E+01  0.51100000000E-03 0. -1.
        -11    1    3    3    0    0 -0.12655116433E+01 -0.16530645803E+01  0.58124175562E+01  0.61740052101E+01  0.51100000000E-03 0.  1.
        -12    1    3    3    0    0 -0.17624625896E+02 -0.28793384430E+02 -0.73264255160E+01  0.34545085551E+02  0.00000000000E+00 0.  1.
</event>
<event>
 7    1  0.5753610E-013  0.5052886E+02  0.7816164E-02  0.1300439E+00
        -11   -1    0    0    0    0  0.00000000000E+00  0.00000000000E+00  0.45593999997E+02  0.45594000000E+02  0.51100000000E-03 0.  1.
         11   -1    0    0    0    0 -0.00000000000E+00 -0.00000000000E+00 -0.45593999997E+02  0.45594000000E+02  0.51100000000E-03 0. -1.
    9900012    2    1    2    0    0 -0.34652347101E+02 -0.19099307178E+02 -0.93593307572E+01  0.50528858758E+02  0.29999996680E+02 0.  0.
        -12    1    1    2    0    0  0.34652347101E+02  0.19099307178E+02  0.93593307572E+01  0.40659141242E+02  0.00000000000E+00 0.  1.
         11    1    3    3    0    0  0.98632591875E+00 -0.37935122225E+01 -0.30985678601E+01  0.49964684373E+01  0.51100000000E-03 0. -1.
        -11    1    3    3    0    0 -0.27002219630E+02 -0.20853529692E+02 -0.81932078152E+01  0.35087294283E+02  0.51100000000E-03 0.  1.
        -12    1    3    3    0    0 -0.86364533905E+01  0.55477347363E+01  0.19324449181E+01  0.10445096038E+02  0.00000000000E+00 0.  1.
</event>
<event>
 7    1  0.5753610E-013  0.5052886E+02  0.7816164E-02  0.1300439E+00
        -11   -1    0    0    0    0  0.00000000000E+00  0.00000000000E+00  0.45593999997E+02  0.45594000000E+02  0.51100000000E-03 0.  1.
         11   -1    0    0    0    0 -0.00000000000E+00 -0.00000000000E+00 -0.45593999997E+02  0.45594000000E+02  0.51100000000E-03 0. -1.
    9900012    2    1    2    0    0  0.58270977077E+01 -0.35538100708E+01 -0.40082176867E+02  0.50528861592E+02  0.30000005294E+02 0.  0.
        -12    1    1    2    0    0 -0.58270977077E+01  0.35538100708E+01  0.40082176867E+02  0.40659138408E+02  0.00000000000E+00 0.  1.
         11    1    3    3    0    0 -0.29014825197E+01  0.19258886158E+01 -0.20222612699E+02  0.20520275642E+02  0.51100000000E-03 0. -1.
        -11    1    3    3    0    0  0.57378128564E+01 -0.12017049405E+02 -0.18333473209E+02  0.22659395688E+02  0.51100000000E-03 0.  1.
         12    1    3    3    0    0  0.29907673711E+01  0.65373507184E+01 -0.15260909583E+01  0.73491902613E+01  0.00000000000E+00 0. -1.
</event>
<event>
 7    1  0.5753610E-013  0.5052886E+02  0.7816164E-02  0.1300439E+00
        -11   -1    0    0    0    0  0.00000000000E+00  0.00000000000E+00  0.45593999997E+02  0.45594000000E+02  0.51100000000E-03 0.  1.
         11   -1    0    0    0    0 -0.00000000000E+00 -0.00000000000E+00 -0.45593999997E+02  0.45594000000E+02  0.51100000000E-03 0. -1.
    9900012    2    1    2    0    0  0.10467761061E+02  0.22788633583E+02 -0.32004220474E+02  0.50528856251E+02  0.29999989061E+02 0.  0.
        -12    1    1    2    0    0 -0.10467761061E+02 -0.22788633583E+02  0.32004220474E+02  0.40659143749E+02  0.00000000000E+00 0.  1.
         11    1    3    3    0    0 -0.24220376233E+01 -0.16511768367E+01 -0.14998409156E+00  0.29351570117E+01  0.51100000000E-03 0.  1.
        -11    1    3    3    0    0  0.17401830936E+01  0.14151166701E+02 -0.28774126128E+02  0.32112833741E+02  0.51100000000E-03 0. -1.
        -12    1    3    3    0    0  0.11149615590E+02  0.10288643719E+02 -0.30801102542E+01  0.15480865498E+02  0.00000000000E+00 0.  1.
</event>
<event>
 7    1  0.5753610E-013  0.5052895E+02  0.7816164E-02  0.1300438E+00
        -11   -1    0    0    0    0  0.00000000000E+00  0.00000000000E+00  0.45593999997E+02  0.45594000000E+02  0.51100000000E-03 0.  1.
         11   -1    0    0    0    0 -0.00000000000E+00 -0.00000000000E+00 -0.45593999997E+02  0.45594000000E+02  0.51100000000E-03 0. -1.
    9900012    2    1    2    0    0  0.10108138340E+02 -0.73410123941E+01 -0.38692290125E+02  0.50528951329E+02  0.30000278059E+02 0.  0.
        -12    1    1    2    0    0 -0.10108138340E+02  0.73410123941E+01  0.38692290125E+02  0.40659048671E+02  0.00000000000E+00 0.  1.
         11    1    3    3    0    0 -0.48998819250E+01 -0.32706729293E+01 -0.16053961881E+02  0.17100755441E+02  0.51100000000E-03 0. -1.
        -11    1    3    3    0    0 -0.17554236913E+01 -0.35759698034E+01  0.13083286912E+01  0.41929460521E+01  0.51100000000E-03 0.  1.
        -12    1    3    3    0    0  0.16763443957E+02 -0.49436966139E+00 -0.23946656935E+02  0.29235249837E+02  0.00000000000E+00 0.  1.
</event>
<event>
 7    1  0.5753610E-013  0.5052883E+02  0.7816164E-02  0.1300439E+00
        -11   -1    0    0    0    0  0.00000000000E+00  0.00000000000E+00  0.45593999997E+02  0.45594000000E+02  0.51100000000E-03 0.  1.
         11   -1    0    0    0    0 -0.00000000000E+00 -0.00000000000E+00 -0.45593999997E+02  0.45594000000E+02  0.51100000000E-03 0. -1.
    9900012    2    1    2    0    0 -0.21368969359E+02 -0.33070821974E+02  0.10141786459E+02  0.50528831906E+02  0.29999915061E+02 0.  0.
        -12    1    1    2    0    0  0.21368969359E+02  0.33070821974E+02 -0.10141786459E+02  0.40659168094E+02  0.00000000000E+00 0.  1.
         11    1    3    3    0    0 -0.11893267153E+02 -0.28107717155E+02  0.10964595473E+02  0.32430169925E+02  0.51100000000E-03 0. -1.
        -11    1    3    3    0    0 -0.12473091529E+01 -0.26242081392E+01  0.63189681717E+01  0.69549699853E+01  0.51100000000E-03 0.  1.
         12    1    3    3    0    0 -0.82283930531E+01 -0.23388966800E+01 -0.71417771858E+01  0.11143691995E+02  0.00000000000E+00 0. -1.
</event>
<event>
 7    1  0.5753610E-013  0.5052886E+02  0.7816164E-02  0.1300439E+00
        -11   -1    0    0    0    0  0.00000000000E+00  0.00000000000E+00  0.45593999997E+02  0.45594000000E+02  0.51100000000E-03 0.  1.
         11   -1    0    0    0    0 -0.00000000000E+00 -0.00000000000E+00 -0.45593999997E+02  0.45594000000E+02  0.51100000000E-03 0. -1.
    9900012    2    1    2    0    0  0.35094729524E+02  0.14053436291E+02 -0.14967506844E+02  0.50528863596E+02  0.30000011387E+02 0.  0.
        -12    1    1    2    0    0 -0.35094729524E+02 -0.14053436291E+02  0.14967506844E+02  0.40659136404E+02  0.00000000000E+00 0.  1.
         11    1    3    3    0    0  0.17539326395E+02  0.71235213913E+01 -0.59069813025E+01  0.19830909101E+02  0.51100000000E-03 0. -1.
        -11    1    3    3    0    0  0.14191347289E+02 -0.63174426043E+01 -0.62499903108E+01  0.16744157133E+02  0.51100000000E-03 0.  1.
        -12    1    3    3    0    0  0.33640558399E+01  0.13247357504E+02 -0.28105352311E+01  0.13953797362E+02  0.00000000000E+00 0.  1.
</event>
<event>
 7    1  0.5753610E-013  0.5052886E+02  0.7816164E-02  0.1300439E+00
        -11   -1    0    0    0    0  0.00000000000E+00  0.00000000000E+00  0.45593999997E+02  0.45594000000E+02  0.51100000000E-03 0. -1.
         11   -1    0    0    0    0 -0.00000000000E+00 -0.00000000000E+00 -0.45593999997E+02  0.45594000000E+02  0.51100000000E-03 0.  1.
    9900012    2    1    2    0    0 -0.19229246081E+02 -0.24122568194E+02 -0.26485914716E+02  0.50528857370E+02  0.29999992462E+02 0.  0.
        -12    1    1    2    0    0  0.19229246081E+02  0.24122568194E+02  0.26485914716E+02  0.40659142630E+02  0.00000000000E+00 0.  1.
         11    1    3    3    0    0  0.48694048101E+00 -0.52583648087E+01 -0.15974099008E+00  0.52832782378E+01  0.51100000000E-03 0. -1.
        -11    1    3    3    0    0 -0.18957939475E+02 -0.14759799550E+02 -0.30842300387E+02  0.39096069436E+02  0.51100000000E-03 0.  1.
         12    1    3    3    0    0 -0.75824708700E+00 -0.41044038347E+01  0.45161266616E+01  0.61495096965E+01  0.00000000000E+00 0. -1.
</event>
<event>
 7    1  0.5753610E-013  0.5052886E+02  0.7816164E-02  0.1300439E+00
        -11   -1    0    0    0    0  0.00000000000E+00  0.00000000000E+00  0.45593999997E+02  0.45594000000E+02  0.51100000000E-03 0.  1.
         11   -1    0    0    0    0 -0.00000000000E+00 -0.00000000000E+00 -0.45593999997E+02  0.45594000000E+02  0.51100000000E-03 0. -1.
    9900012    2    1    2    0    0  0.19592398027E+02  0.74437258796E+01 -0.34840990834E+02  0.50528858866E+02  0.29999997011E+02 0.  0.
        -12    1    1    2    0    0 -0.19592398027E+02 -0.74437258796E+01  0.34840990834E+02  0.40659141134E+02  0.00000000000E+00 0.  1.
         11    1    3    3    0    0  0.17363630109E+02  0.74495526229E+01 -0.19788996405E+02  0.27360479964E+02  0.51100000000E-03 0. -1.
        -11    1    3    3    0    0 -0.11518070746E+00 -0.63618762179E+01 -0.15108466387E+02  0.16393672329E+02  0.51100000000E-03 0.  1.
         12    1    3    3    0    0  0.23439486249E+01  0.63560494745E+01  0.56471958053E-01  0.67747065738E+01  0.00000000000E+00 0. -1.
</event>
<event>
 7    1  0.5753610E-013  0.5052888E+02  0.7816164E-02  0.1300439E+00
        -11   -1    0    0    0    0  0.00000000000E+00  0.00000000000E+00  0.45593999997E+02  0.45594000000E+02  0.51100000000E-03 0.  1.
         11   -1    0    0    0    0 -0.00000000000E+00 -0.00000000000E+00 -0.45593999997E+02  0.45594000000E+02  0.51100000000E-03 0. -1.
    9900012    2    1    2    0    0 -0.20948128168E+02 -0.33032151754E+02 -0.11100306243E+02  0.50528881442E+02  0.30000065632E+02 0.  0.
        -12    1    1    2    0    0  0.20948128168E+02  0.33032151754E+02  0.11100306243E+02  0.40659118558E+02  0.00000000000E+00 0.  1.
         11    1    3    3    0    0 -0.18053925844E+02 -0.15274437038E+02  0.12385696041E+01  0.23680935795E+02  0.51100000000E-03 0. -1.
        -11    1    3    3    0    0 -0.21431362774E+00  0.25768893035E+01  0.52324317297E+00  0.26381949308E+01  0.51100000000E-03 0.  1.
         12    1    3    3    0    0 -0.26798886956E+01 -0.20334604019E+02 -0.12862119020E+02  0.24209750716E+02  0.00000000000E+00 0. -1.
</event>
<event>
 7    1  0.5753610E-013  0.5052887E+02  0.7816164E-02  0.1300439E+00
        -11   -1    0    0    0    0  0.00000000000E+00  0.00000000000E+00  0.45593999997E+02  0.45594000000E+02  0.51100000000E-03 0.  1.
         11   -1    0    0    0    0 -0.00000000000E+00 -0.00000000000E+00 -0.45593999997E+02  0.45594000000E+02  0.51100000000E-03 0. -1.
    9900012    2    1    2    0    0  0.15742840350E+02  0.39470854621E+01 -0.37279329150E+02  0.50528869564E+02  0.30000029526E+02 0.  0.
        -12    1    1    2    0    0 -0.15742840350E+02 -0.39470854621E+01  0.37279329150E+02  0.40659130436E+02  0.00000000000E+00 0.  1.
         11    1    3    3    0    0 -0.58402560463E+01  0.17502127097E+01 -0.32778235207E+01  0.69221356899E+01  0.51100000000E-03 0.  1.
        -11    1    3    3    0    0  0.61981491332E+01  0.44318955189E+01 -0.23854501534E+02  0.25041884799E+02  0.51100000000E-03 0. -1.
        -12    1    3    3    0    0  0.15384947263E+02 -0.22350227665E+01 -0.10147004095E+02  0.18564849075E+02  0.00000000000E+00 0.  1.
</event>
<event>
 7    1  0.5753610E-013  0.5052886E+02  0.7816164E-02  0.1300439E+00
        -11   -1    0    0    0    0  0.00000000000E+00  0.00000000000E+00  0.45593999997E+02  0.45594000000E+02  0.51100000000E-03 0.  1.
         11   -1    0    0    0    0 -0.00000000000E+00 -0.00000000000E+00 -0.45593999997E+02  0.45594000000E+02  0.51100000000E-03 0. -1.
    9900012    2    1    2    0    0 -0.13809613664E+02  0.13952252720E+02 -0.35606109728E+02  0.50528857910E+02  0.29999994102E+02 0.  0.
        -12    1    1    2    0    0  0.13809613664E+02 -0.13952252720E+02  0.35606109728E+02  0.40659142090E+02  0.00000000000E+00 0.  1.
         11    1    3    3    0    0  0.37784788540E+01  0.98580914080E+01 -0.12767741903E+02  0.16567259949E+02  0.51100000000E-03 0.  1.
        -11    1    3    3    0    0 -0.17826395376E+02  0.83350498851E+01 -0.22199914047E+02  0.29666304331E+02  0.51100000000E-03 0. -1.
         12    1    3    3    0    0  0.23830285796E+00 -0.42408885728E+01 -0.63845377837E+00  0.42952936298E+01  0.00000000000E+00 0. -1.
</event>
<event>
 7    1  0.5753610E-013  0.5052885E+02  0.7816164E-02  0.1300439E+00
        -11   -1    0    0    0    0  0.00000000000E+00  0.00000000000E+00  0.45593999997E+02  0.45594000000E+02  0.51100000000E-03 0.  1.
         11   -1    0    0    0    0 -0.00000000000E+00 -0.00000000000E+00 -0.45593999997E+02  0.45594000000E+02  0.51100000000E-03 0. -1.
    9900012    2    1    2    0    0 -0.39976454406E+02  0.52914792606E+01 -0.52009666858E+01  0.50528847105E+02  0.29999961260E+02 0.  0.
        -12    1    1    2    0    0  0.39976454406E+02 -0.52914792606E+01  0.52009666858E+01  0.40659152895E+02  0.00000000000E+00 0.  1.
         11    1    3    3    0    0 -0.22356053750E+02  0.87506292400E+01 -0.46488699147E+01  0.24453601843E+02  0.51100000000E-03 0. -1.
        -11    1    3    3    0    0  0.66350060260E+00  0.48839017918E+01  0.28476570748E+01  0.56922650007E+01  0.51100000000E-03 0.  1.
         12    1    3    3    0    0 -0.18283901259E+02 -0.83430517712E+01 -0.33997538459E+01  0.20382980261E+02  0.00000000000E+00 0. -1.
</event>
<event>
 7    1  0.5753610E-013  0.5052886E+02  0.7816164E-02  0.1300439E+00
        -11   -1    0    0    0    0  0.00000000000E+00  0.00000000000E+00  0.45593999997E+02  0.45594000000E+02  0.51100000000E-03 0.  1.
         11   -1    0    0    0    0 -0.00000000000E+00 -0.00000000000E+00 -0.45593999997E+02  0.45594000000E+02  0.51100000000E-03 0. -1.
    9900012    2    1    2    0    0  0.27230660337E+02  0.66158502696E+00 -0.30186407832E+02  0.50528858655E+02  0.29999996366E+02 0.  0.
        -12    1    1    2    0    0 -0.27230660337E+02 -0.66158502696E+00  0.30186407832E+02  0.40659141345E+02  0.00000000000E+00 0.  1.
         11    1    3    3    0    0  0.12505475125E+01 -0.74115426561E+00 -0.27612433366E+01  0.31205197887E+01  0.51100000000E-03 0. -1.
        -11    1    3    3    0    0 -0.28192716070E+01  0.29556943226E+01 -0.15788047450E+02  0.16307877357E+02  0.51100000000E-03 0.  1.
         12    1    3    3    0    0  0.28799384432E+02 -0.15529550300E+01 -0.11637117045E+02  0.31100461509E+02  0.00000000000E+00 0. -1.
</event>
<event>
 7    1  0.5753610E-013  0.5052886E+02  0.7816164E-02  0.1300439E+00
        -11   -1    0    0    0    0  0.00000000000E+00  0.00000000000E+00  0.45593999997E+02  0.45594000000E+02  0.51100000000E-03 0.  1.
         11   -1    0    0    0    0 -0.00000000000E+00 -0.00000000000E+00 -0.45593999997E+02  0.45594000000E+02  0.51100000000E-03 0. -1.
    9900012    2    1    2    0    0 -0.23738230021E+02 -0.32236908534E+02 -0.71023675438E+01  0.50528862514E+02  0.30000008098E+02 0.  0.
        -12    1    1    2    0    0  0.23738230021E+02  0.32236908534E+02  0.71023675438E+01  0.40659137486E+02  0.00000000000E+00 0.  1.
         11    1    3    3    0    0  0.13897616218E+01 -0.14755902553E+02 -0.10169671528E+02  0.17974713260E+02  0.51100000000E-03 0. -1.
        -11    1    3    3    0    0 -0.44772141801E+01  0.47050898174E+00 -0.16367022341E+01  0.47901586592E+01  0.51100000000E-03 0.  1.
        -12    1    3    3    0    0 -0.20650777462E+02 -0.17951514963E+02  0.47040062186E+01  0.27763990595E+02  0.00000000000E+00 0.  1.
</event>
<event>
 7    1  0.5753610E-013  0.5052888E+02  0.7816164E-02  0.1300439E+00
        -11   -1    0    0    0    0  0.00000000000E+00  0.00000000000E+00  0.45593999997E+02  0.45594000000E+02  0.51100000000E-03 0. -1.
         11   -1    0    0    0    0 -0.00000000000E+00 -0.00000000000E+00 -0.45593999997E+02  0.45594000000E+02  0.51100000000E-03 0.  1.
    9900012    2    1    2    0    0 -0.30599449945E+02 -0.26461724059E+02 -0.40760948274E+01  0.50528883849E+02  0.30000072948E+02 0.  0.
        -12    1    1    2    0    0  0.30599449945E+02  0.26461724059E+02  0.40760948274E+01  0.40659116151E+02  0.00000000000E+00 0.  1.
         11    1    3    3    0    0 -0.27970483695E+02 -0.78422612988E+01  0.22767207808E+01  0.29138161888E+02  0.51100000000E-03 0. -1.
        -11    1    3    3    0    0 -0.20382018580E+01 -0.81379107498E+01  0.11768902499E+01  0.84714183646E+01  0.51100000000E-03 0.  1.
        -12    1    3    3    0    0 -0.59076439196E+00 -0.10481552010E+02 -0.75297058581E+01  0.12919303597E+02  0.00000000000E+00 0.  1.
</event>
<event>
 7    1  0.5753610E-013  0.5052886E+02  0.7816164E-02  0.1300439E+00
        -11   -1    0    0    0    0  0.00000000000E+00  0.00000000000E+00  0.45593999997E+02  0.45594000000E+02  0.51100000000E-03 0.  1.
         11   -1    0    0    0    0 -0.00000000000E+00 -0.00000000000E+00 -0.45593999997E+02  0.45594000000E+02  0.51100000000E-03 0. -1.
    9900012    2    1    2    0    0 -0.27673085440E+02 -0.16637326775E+02 -0.24709628979E+02  0.50528855096E+02  0.29999985551E+02 0.  0.
        -12    1    1    2    0    0  0.27673085440E+02  0.16637326775E+02  0.24709628979E+02  0.40659144904E+02  0.00000000000E+00 0.  1.
         11    1    3    3    0    0 -0.11111196778E+02  0.11788968707E+01 -0.18750508936E+02  0.21827278284E+02  0.51100000000E-03 0.  1.
        -11    1    3    3    0    0 -0.12673291387E+02 -0.49438976932E+01 -0.68392301433E+01  0.15225948516E+02  0.51100000000E-03 0. -1.
         12    1    3    3    0    0 -0.38885972746E+01 -0.12872325953E+02  0.88011010018E+00  0.13475628296E+02  0.00000000000E+00 0. -1.
</event>
<event>
 7    1  0.7544230E-013  0.5052885E+02  0.7816164E-02  0.1300439E+00
        -11   -1    0    0    0    0  0.00000000000E+00  0.00000000000E+00  0.45593999997E+02  0.45594000000E+02  0.51100000000E-03 0. -1.
         11   -1    0    0    0    0 -0.00000000000E+00 -0.00000000000E+00 -0.45593999997E+02  0.45594000000E+02  0.51100000000E-03 0.  1.
    9900012    2    1    2    0    0 -0.25440171328E+02  0.15730047927E+02  0.27541411914E+02  0.50528854716E+02  0.29999984396E+02 0.  0.
        -12    1    1    2    0    0  0.25440171328E+02 -0.15730047927E+02 -0.27541411914E+02  0.40659145284E+02  0.00000000000E+00 0.  1.
         11    1    3    3    0    0 -0.11106334977E+02  0.73700288680E+01  0.25591383487E+02  0.28854582153E+02  0.51100000000E-03 0. -1.
        -11    1    3    3    0    0 -0.16957211292E+01 -0.35824354603E+01 -0.87312749440E+00  0.40585300119E+01  0.51100000000E-03 0.  1.
        -12    1    3    3    0    0 -0.12638115222E+02  0.11942454519E+02  0.28231559206E+01  0.17615742552E+02  0.00000000000E+00 0.  1.
</event>
<event>
 7    1  0.5753610E-013  0.5052888E+02  0.7816164E-02  0.1300439E+00
        -11   -1    0    0    0    0  0.00000000000E+00  0.00000000000E+00  0.45593999997E+02  0.45594000000E+02  0.51100000000E-03 0.  1.
         11   -1    0    0    0    0 -0.00000000000E+00 -0.00000000000E+00 -0.45593999997E+02  0.45594000000E+02  0.51100000000E-03 0. -1.
    9900012    2    1    2    0    0 -0.81146091846E+01  0.36656369070E+02 -0.15608591065E+02  0.50528875678E+02  0.30000048110E+02 0.  0.
        -12    1    1    2    0    0  0.81146091846E+01 -0.36656369070E+02  0.15608591065E+02  0.40659124322E+02  0.00000000000E+00 0.  1.
         11    1    3    3    0    0 -0.14475157107E+02  0.23463710649E+02 -0.44073934231E+01  0.27919545264E+02  0.51100000000E-03 0. -1.
        -11    1    3    3    0    0  0.41444516038E+01  0.26518998432E+01  0.22220901240E+01  0.53987717728E+01  0.51100000000E-03 0.  1.
        -12    1    3    3    0    0  0.22160963190E+01  0.10540758578E+02 -0.13423287766E+02  0.17210558641E+02  0.00000000000E+00 0.  1.
</event>
<event>
 7    1  0.5753610E-013  0.5052885E+02  0.7816164E-02  0.1300439E+00
        -11   -1    0    0    0    0  0.00000000000E+00  0.00000000000E+00  0.45593999997E+02  0.45594000000E+02  0.51100000000E-03 0. -1.
         11   -1    0    0    0    0 -0.00000000000E+00 -0.00000000000E+00 -0.45593999997E+02  0.45594000000E+02  0.51100000000E-03 0.  1.
    9900012    2    1    2    0    0  0.35584822664E+02 -0.98503223442E+01  0.17025206687E+02  0.50528854447E+02  0.29999983578E+02 0.  0.
        -12    1    1    2    0    0 -0.35584822664E+02  0.98503223442E+01 -0.17025206687E+02  0.40659145553E+02  0.00000000000E+00 0.  1.
         11    1    3    3    0    0  0.12361470368E+02  0.34887750055E+01  0.28976248547E+00  0.12847624810E+02  0.51100000000E-03 0. -1.
        -11    1    3    3    0    0 -0.33277789708E+01 -0.45583913182E+01  0.41985005894E+01  0.70342342688E+01  0.51100000000E-03 0.  1.
         12    1    3    3    0    0  0.26551131267E+02 -0.87807060315E+01  0.12536943612E+02  0.30646995368E+02  0.00000000000E+00 0. -1.
</event>
<event>
 7    1  0.5753610E-013  0.5052886E+02  0.7816164E-02  0.1300439E+00
        -11   -1    0    0    0    0  0.00000000000E+00  0.00000000000E+00  0.45593999997E+02  0.45594000000E+02  0.51100000000E-03 0. -1.
         11   -1    0    0    0    0 -0.00000000000E+00 -0.00000000000E+00 -0.45593999997E+02  0.45594000000E+02  0.51100000000E-03 0.  1.
    9900012    2    1    2    0    0  0.29005164763E+02 -0.22471045277E+02  0.17519084245E+02  0.50528858696E+02  0.29999996493E+02 0.  0.
        -12    1    1    2    0    0 -0.29005164763E+02  0.22471045277E+02 -0.17519084245E+02  0.40659141304E+02  0.00000000000E+00 0.  1.
         11    1    3    3    0    0  0.57364759932E+01  0.24418728286E+01  0.40499600295E+00  0.62477133221E+01  0.51100000000E-03 0. -1.
        -11    1    3    3    0    0 -0.41931411450E+01 -0.50157852798E+01  0.51422611152E+01  0.83176549744E+01  0.51100000000E-03 0.  1.
        -12    1    3    3    0    0  0.27461829915E+02 -0.19897132826E+02  0.11971827127E+02  0.35963490400E+02  0.00000000000E+00 0.  1.
</event>
<event>
 7    1  0.5753610E-013  0.5052886E+02  0.7816164E-02  0.1300439E+00
        -11   -1    0    0    0    0  0.00000000000E+00  0.00000000000E+00  0.45593999997E+02  0.45594000000E+02  0.51100000000E-03 0.  1.
         11   -1    0    0    0    0 -0.00000000000E+00 -0.00000000000E+00 -0.45593999997E+02  0.45594000000E+02  0.51100000000E-03 0. -1.
    9900012    2    1    2    0    0  0.19282532005E+02 -0.39546719953E+01 -0.35576816698E+02  0.50528863789E+02  0.30000011972E+02 0.  0.
        -12    1    1    2    0    0 -0.19282532005E+02  0.39546719953E+01  0.35576816698E+02  0.40659136211E+02  0.00000000000E+00 0.  1.
         11    1    3    3    0    0  0.10011614535E+02  0.48508909319E+01 -0.97515948009E+01  0.14793822016E+02  0.51100000000E-03 0. -1.
        -11    1    3    3    0    0 -0.23313574131E+01  0.45674752375E+01 -0.97010850644E+00  0.52190198513E+01  0.51100000000E-03 0.  1.
        -12    1    3    3    0    0  0.11602274883E+02 -0.13373038165E+02 -0.24855113390E+02  0.30516021921E+02  0.00000000000E+00 0.  1.
</event>
<event>
 7    1  0.5753610E-013  0.5052886E+02  0.7816164E-02  0.1300439E+00
        -11   -1    0    0    0    0  0.00000000000E+00  0.00000000000E+00  0.45593999997E+02  0.45594000000E+02  0.51100000000E-03 0. -1.
         11   -1    0    0    0    0 -0.00000000000E+00 -0.00000000000E+00 -0.45593999997E+02  0.45594000000E+02  0.51100000000E-03 0.  1.
    9900012    2    1    2    0    0  0.15787727049E+02 -0.36627291802E+02 -0.78965303945E+01  0.50528855611E+02  0.29999987117E+02 0.  0.
        -12    1    1    2    0    0 -0.15787727049E+02  0.36627291802E+02  0.78965303945E+01  0.40659144389E+02  0.00000000000E+00 0.  1.
         11    1    3    3    0    0  0.35198543450E+01 -0.74695696278E+01  0.75829803130E+01  0.11210951598E+02  0.51100000000E-03 0. -1.
        -11    1    3    3    0    0 -0.32929978790E+01 -0.13726196469E+02 -0.45665153052E+01  0.14835948464E+02  0.51100000000E-03 0.  1.
         12    1    3    3    0    0  0.15560870583E+02 -0.15431525706E+02 -0.10912995402E+02  0.24481955550E+02  0.00000000000E+00 0. -1.
</event>
<event>
 7    1  0.5753610E-013  0.5052887E+02  0.7816164E-02  0.1300439E+00
        -11   -1    0    0    0    0  0.00000000000E+00  0.00000000000E+00  0.45593999997E+02  0.45594000000E+02  0.51100000000E-03 0. -1.
         11   -1    0    0    0    0 -0.00000000000E+00 -0.00000000000E+00 -0.45593999997E+02  0.45594000000E+02  0.51100000000E-03 0.  1.
    9900012    2    1    2    0    0 -0.10418642997E+02 -0.11243952468E+02  0.37658867366E+02  0.50528869656E+02  0.30000029807E+02 0.  0.
        -12    1    1    2    0    0  0.10418642997E+02  0.11243952468E+02 -0.37658867366E+02  0.40659130344E+02  0.00000000000E+00 0.  1.
         11    1    3    3    0    0  0.82674781384E+01 -0.24139056504E+01  0.13792871328E+02  0.16261040403E+02  0.51100000000E-03 0.  1.
        -11    1    3    3    0    0 -0.35190501500E+01 -0.31942632543E+01  0.15173587615E+02  0.15900465184E+02  0.51100000000E-03 0. -1.
        -12    1    3    3    0    0 -0.15167070985E+02 -0.56357835633E+01  0.86924084226E+01  0.18367364068E+02  0.00000000000E+00 0.  1.
</event>
<event>
 7    1  0.5753610E-013  0.5052886E+02  0.7816164E-02  0.1300439E+00
        -11   -1    0    0    0    0  0.00000000000E+00  0.00000000000E+00  0.45593999997E+02  0.45594000000E+02  0.51100000000E-03 0.  1.
         11   -1    0    0    0    0 -0.00000000000E+00 -0.00000000000E+00 -0.45593999997E+02  0.45594000000E+02  0.51100000000E-03 0. -1.
    9900012    2    1    2    0    0 -0.25708611298E+02 -0.29593411374E+02 -0.10791797278E+02  0.50528861051E+02  0.30000003650E+02 0.  0.
        -12    1    1    2    0    0  0.25708611298E+02  0.29593411374E+02  0.10791797278E+02  0.40659138949E+02  0.00000000000E+00 0.  1.
         11    1    3    3    0    0 -0.18001408406E+02 -0.11787822660E+02 -0.14327621009E+02  0.25851193236E+02  0.51100000000E-03 0. -1.
        -11    1    3    3    0    0  0.21796208129E+01  0.40188154111E+00 -0.22582073683E+01  0.31641359706E+01  0.51100000000E-03 0.  1.
         12    1    3    3    0    0 -0.98868237047E+01 -0.18207470255E+02  0.57940310991E+01  0.21513531844E+02  0.00000000000E+00 0. -1.
</event>
<event>
 7    1  0.5753610E-013  0.5052882E+02  0.7816164E-02  0.1300439E+00
        -11   -1    0    0    0    0  0.00000000000E+00  0.00000000000E+00  0.45593999997E+02  0.45594000000E+02  0.51100000000E-03 0. -1.
         11   -1    0    0    0    0 -0.00000000000E+00 -0.00000000000E+00 -0.45593999997E+02  0.45594000000E+02  0.51100000000E-03 0.  1.
    9900012    2    1    2    0    0 -0.24171915597E+02 -0.24281409401E+02  0.21892940470E+02  0.50528816676E+02  0.29999868768E+02 0.  0.
        -12    1    1    2    0    0  0.24171915597E+02  0.24281409401E+02 -0.21892940470E+02  0.40659183324E+02  0.00000000000E+00 0.  1.
         11    1    3    3    0    0 -0.12788685655E+02 -0.25901326058E+02  0.19488271227E+02  0.34845686792E+02  0.51100000000E-03 0. -1.
        -11    1    3    3    0    0 -0.41963230724E+01 -0.11330526275E+01  0.58193706598E+01  0.72634709831E+01  0.51100000000E-03 0.  1.
         12    1    3    3    0    0 -0.71869068697E+01  0.27529692841E+01 -0.34147014169E+01  0.84196589005E+01  0.00000000000E+00 0. -1.
</event>
<event>
 7    1  0.5753610E-013  0.5052885E+02  0.7816164E-02  0.1300439E+00
        -11   -1    0    0    0    0  0.00000000000E+00  0.00000000000E+00  0.45593999997E+02  0.45594000000E+02  0.51100000000E-03 0.  1.
         11   -1    0    0    0    0 -0.00000000000E+00 -0.00000000000E+00 -0.45593999997E+02  0.45594000000E+02  0.51100000000E-03 0. -1.
    9900012    2    1    2    0    0  0.56896159132E+01 -0.30742071111E+02 -0.25994605822E+02  0.50528853461E+02  0.29999980581E+02 0.  0.
        -12    1    1    2    0    0 -0.56896159132E+01  0.30742071111E+02  0.25994605822E+02  0.40659146539E+02  0.00000000000E+00 0.  1.
         11    1    3    3    0    0  0.26829273175E+01 -0.23596135141E+02 -0.12698667614E+02  0.26930129076E+02  0.51100000000E-03 0. -1.
        -11    1    3    3    0    0 -0.22621015774E+01 -0.74275170975E+01  0.14842893806E+01  0.79049496523E+01  0.51100000000E-03 0.  1.
         12    1    3    3    0    0  0.52687901731E+01  0.28158112796E+00 -0.14780227588E+02  0.15693774733E+02  0.00000000000E+00 0. -1.
</event>
<event>
 7    1  0.5753610E-013  0.5052887E+02  0.7816164E-02  0.1300439E+00
        -11   -1    0    0    0    0  0.00000000000E+00  0.00000000000E+00  0.45593999997E+02  0.45594000000E+02  0.51100000000E-03 0.  1.
         11   -1    0    0    0    0 -0.00000000000E+00 -0.00000000000E+00 -0.45593999997E+02  0.45594000000E+02  0.51100000000E-03 0. -1.
    9900012    2    1    2    0    0  0.34526943300E+01  0.10406259134E+02 -0.39152953071E+02  0.50528867428E+02  0.30000023034E+02 0.  0.
        -12    1    1    2    0    0 -0.34526943300E+01 -0.10406259134E+02  0.39152953071E+02  0.40659132572E+02  0.00000000000E+00 0.  1.
         11    1    3    3    0    0  0.25986107031E+01  0.15595588990E+02 -0.15479832556E+02  0.22126915504E+02  0.51100000000E-03 0. -1.
        -11    1    3    3    0    0  0.27168204899E+01  0.12269904654E+01  0.75620826934E+00  0.30754626293E+01  0.51100000000E-03 0.  1.
         12    1    3    3    0    0 -0.18627368630E+01 -0.64163203211E+01 -0.24429328785E+02  0.25326489294E+02  0.00000000000E+00 0. -1.
</event>
<event>
 7    1  0.5753610E-013  0.5052886E+02  0.7816164E-02  0.1300439E+00
        -11   -1    0    0    0    0  0.00000000000E+00  0.00000000000E+00  0.45593999997E+02  0.45594000000E+02  0.51100000000E-03 0.  1.
         11   -1    0    0    0    0 -0.00000000000E+00 -0.00000000000E+00 -0.45593999997E+02  0.45594000000E+02  0.51100000000E-03 0. -1.
    9900012    2    1    2    0    0 -0.26947679666E+02 -0.30107637373E+02  0.45297382764E+01  0.50528858391E+02  0.29999995564E+02 0.  0.
        -12    1    1    2    0    0  0.26947679666E+02  0.30107637373E+02 -0.45297382764E+01  0.40659141609E+02  0.00000000000E+00 0.  1.
         11    1    3    3    0    0 -0.80585286596E+01 -0.82768535740E+00  0.95575311958E+01  0.12528820776E+02  0.51100000000E-03 0. -1.
        -11    1    3    3    0    0 -0.11528476392E+01 -0.10299969073E+02  0.30363776930E+01  0.10799907886E+02  0.51100000000E-03 0.  1.
         12    1    3    3    0    0 -0.17736303367E+02 -0.18979982943E+02 -0.80641706124E+01  0.27200129729E+02  0.00000000000E+00 0. -1.
</event>
<event>
 7    1  0.5753610E-013  0.5052886E+02  0.7816164E-02  0.1300439E+00
        -11   -1    0    0    0    0  0.00000000000E+00  0.00000000000E+00  0.45593999997E+02  0.45594000000E+02  0.51100000000E-03 0.  1.
         11   -1    0    0    0    0 -0.00000000000E+00 -0.00000000000E+00 -0.45593999997E+02  0.45594000000E+02  0.51100000000E-03 0. -1.
    9900012    2    1    2    0    0 -0.21196270494E+02 -0.11792315468E+02 -0.32631652193E+02  0.50528864350E+02  0.30000013679E+02 0.  0.
        -12    1    1    2    0    0  0.21196270494E+02  0.11792315468E+02  0.32631652193E+02  0.40659135650E+02  0.00000000000E+00 0.  1.
         11    1    3    3    0    0 -0.41648727910E+01  0.23314415614E+01 -0.37150192302E+01  0.60484008846E+01  0.51100000000E-03 0. -1.
        -11    1    3    3    0    0 -0.85253058051E+01  0.28850651699E+01  0.97423807214E+00  0.90528216699E+01  0.51100000000E-03 0.  1.
         12    1    3    3    0    0 -0.85060918975E+01 -0.17008822200E+02 -0.29890871035E+02  0.35427641796E+02  0.00000000000E+00 0. -1.
</event>
<event>
 7    1  0.5753610E-013  0.5052885E+02  0.7816164E-02  0.1300439E+00
        -11   -1    0    0    0    0  0.00000000000E+00  0.00000000000E+00  0.45593999997E+02  0.45594000000E+02  0.51100000000E-03 0.  1.
         11   -1    0    0    0    0 -0.00000000000E+00 -0.00000000000E+00 -0.45593999997E+02  0.45594000000E+02  0.51100000000E-03 0. -1.
    9900012    2    1    2    0    0  0.31283852865E+02  0.22574121351E+02 -0.12841187811E+02  0.50528849625E+02  0.29999968921E+02 0.  0.
        -12    1    1    2    0    0 -0.31283852865E+02 -0.22574121351E+02  0.12841187811E+02  0.40659150375E+02  0.00000000000E+00 0.  1.
         11    1    3    3    0    0 -0.68774864841E+00 -0.38993399950E+01 -0.27537433101E+01  0.48229610281E+01  0.51100000000E-03 0. -1.
        -11    1    3    3    0    0  0.11895535066E+02  0.31090348554E+01 -0.83292622392E+01  0.14850806778E+02  0.51100000000E-03 0.  1.
        -12    1    3    3    0    0  0.20076066447E+02  0.23364426490E+02 -0.17581822613E+01  0.30855081819E+02  0.00000000000E+00 0.  1.
</event>
<event>
 7    1  0.5753610E-013  0.5052886E+02  0.7816164E-02  0.1300439E+00
        -11   -1    0    0    0    0  0.00000000000E+00  0.00000000000E+00  0.45593999997E+02  0.45594000000E+02  0.51100000000E-03 0.  1.
         11   -1    0    0    0    0 -0.00000000000E+00 -0.00000000000E+00 -0.45593999997E+02  0.45594000000E+02  0.51100000000E-03 0. -1.
    9900012    2    1    2    0    0  0.34266913862E+02  0.21290005387E+02  0.50675271795E+01  0.50528861461E+02  0.30000004897E+02 0.  0.
        -12    1    1    2    0    0 -0.34266913862E+02 -0.21290005387E+02 -0.50675271795E+01  0.40659138539E+02  0.00000000000E+00 0.  1.
         11    1    3    3    0    0  0.29253168409E+02  0.70546715050E+01  0.24321175866E+01  0.30189922958E+02  0.51100000000E-03 0. -1.
        -11    1    3    3    0    0  0.61217974644E+01  0.58649002453E+01  0.68525130933E+01  0.10900935512E+02  0.51100000000E-03 0.  1.
         12    1    3    3    0    0 -0.11080520110E+01  0.83704336367E+01 -0.42171035004E+01  0.94380029910E+01  0.00000000000E+00 0. -1.
</event>
<event>
 7    1  0.8210303E-013  0.5052886E+02  0.7816164E-02  0.1300439E+00
        -11   -1    0    0    0    0  0.00000000000E+00  0.00000000000E+00  0.45593999997E+02  0.45594000000E+02  0.51100000000E-03 0. -1.
         11   -1    0    0    0    0 -0.00000000000E+00 -0.00000000000E+00 -0.45593999997E+02  0.45594000000E+02  0.51100000000E-03 0.  1.
    9900012    2    1    2    0    0 -0.32478961614E+02 -0.15803231320E+02  0.18669239903E+02  0.50528860975E+02  0.30000003420E+02 0.  0.
        -12    1    1    2    0    0  0.32478961614E+02  0.15803231320E+02 -0.18669239903E+02  0.40659139025E+02  0.00000000000E+00 0.  1.
         11    1    3    3    0    0 -0.11304552636E+02 -0.22987593963E+00  0.82327788186E+01  0.13986579302E+02  0.51100000000E-03 0. -1.
        -11    1    3    3    0    0  0.31574283229E+01  0.20945578430E+01  0.45163363522E+01  0.58952371012E+01  0.51100000000E-03 0.  1.
        -12    1    3    3    0    0 -0.24331837301E+02 -0.17667913224E+02  0.59201247324E+01  0.30647044571E+02  0.00000000000E+00 0.  1.
</event>
<event>
 7    1  0.5753610E-013  0.5052888E+02  0.7816164E-02  0.1300439E+00
        -11   -1    0    0    0    0  0.00000000000E+00  0.00000000000E+00  0.45593999997E+02  0.45594000000E+02  0.51100000000E-03 0.  1.
         11   -1    0    0    0    0 -0.00000000000E+00 -0.00000000000E+00 -0.45593999997E+02  0.45594000000E+02  0.51100000000E-03 0. -1.
    9900012    2    1    2    0    0 -0.38489063015E+02 -0.13088654813E+02 -0.66594666965E+00  0.50528876282E+02  0.30000049946E+02 0.  0.
        -12    1    1    2    0    0  0.38489063015E+02  0.13088654813E+02  0.66594666965E+00  0.40659123718E+02  0.00000000000E+00 0.  1.
         11    1    3    3    0    0 -0.18913631713E+02  0.35170106575E+01  0.24175010332E+00  0.19239367763E+02  0.51100000000E-03 0. -1.
        -11    1    3    3    0    0 -0.50209471491E+01  0.33038681421E+01 -0.26440062540E+01  0.65662945644E+01  0.51100000000E-03 0.  1.
        -12    1    3    3    0    0 -0.14554484152E+02 -0.19909533613E+02  0.17363094810E+01  0.24723213954E+02  0.00000000000E+00 0.  1.
</event>
<event>
 7    1  0.5753610E-013  0.5052885E+02  0.7816164E-02  0.1300439E+00
        -11   -1    0    0    0    0  0.00000000000E+00  0.00000000000E+00  0.45593999997E+02  0.45594000000E+02  0.51100000000E-03 0.  1.
         11   -1    0    0    0    0 -0.00000000000E+00 -0.00000000000E+00 -0.45593999997E+02  0.45594000000E+02  0.51100000000E-03 0. -1.
    9900012    2    1    2    0    0 -0.29377554695E+02 -0.17013640604E+02 -0.22375473261E+02  0.50528849860E+02  0.29999969633E+02 0.  0.
        -12    1    1    2    0    0  0.29377554695E+02  0.17013640604E+02  0.22375473261E+02  0.40659150140E+02  0.00000000000E+00 0.  1.
         11    1    3    3    0    0 -0.12091438276E+02 -0.65358915897E+00 -0.80085877405E+01  0.14517835109E+02  0.51100000000E-03 0. -1.
        -11    1    3    3    0    0 -0.20719142175E+02 -0.19339410318E+02 -0.13458439202E+02  0.31375551468E+02  0.51100000000E-03 0.  1.
        -12    1    3    3    0    0  0.34330257561E+01  0.29793588725E+01 -0.90844631803E+00  0.46354632828E+01  0.00000000000E+00 0.  1.
</event>
<event>
 7    1  0.5753610E-013  0.5052887E+02  0.7816164E-02  0.1300439E+00
        -11   -1    0    0    0    0  0.00000000000E+00  0.00000000000E+00  0.45593999997E+02  0.45594000000E+02  0.51100000000E-03 0.  1.
         11   -1    0    0    0    0 -0.00000000000E+00 -0.00000000000E+00 -0.45593999997E+02  0.45594000000E+02  0.51100000000E-03 0. -1.
    9900012    2    1    2    0    0  0.38056369504E+02  0.14190418587E+02  0.18733425922E+01  0.50528872464E+02  0.30000038341E+02 0.  0.
        -12    1    1    2    0    0 -0.38056369504E+02 -0.14190418587E+02 -0.18733425922E+01  0.40659127536E+02  0.00000000000E+00 0.  1.
         11    1    3    3    0    0  0.11833802342E+02  0.14919892447E+02  0.29476943593E+01  0.19269949943E+02  0.51100000000E-03 0. -1.
        -11    1    3    3    0    0  0.22400020861E+02  0.61878227246E+01  0.27908339866E+00  0.23240653443E+02  0.51100000000E-03 0.  1.
        -12    1    3    3    0    0  0.38225463016E+01 -0.69172965845E+01 -0.13534351658E+01  0.80182690784E+01  0.00000000000E+00 0.  1.
</event>
<event>
 7    1  0.5753610E-013  0.5052886E+02  0.7816164E-02  0.1300439E+00
        -11   -1    0    0    0    0  0.00000000000E+00  0.00000000000E+00  0.45593999997E+02  0.45594000000E+02  0.51100000000E-03 0. -1.
         11   -1    0    0    0    0 -0.00000000000E+00 -0.00000000000E+00 -0.45593999997E+02  0.45594000000E+02  0.51100000000E-03 0.  1.
    9900012    2    1    2    0    0 -0.13168485957E+02 -0.37843994258E+02  0.68984451660E+01  0.50528862410E+02  0.30000007783E+02 0.  0.
        -12    1    1    2    0    0  0.13168485957E+02  0.37843994258E+02 -0.68984451660E+01  0.40659137590E+02  0.00000000000E+00 0.  1.
         11    1    3    3    0    0 -0.69856460608E+01 -0.24648244790E+02 -0.72660500479E+01  0.26629508176E+02  0.51100000000E-03 0. -1.
        -11    1    3    3    0    0 -0.54637352626E+01 -0.92645368969E+01  0.18002460010E+01  0.10905270875E+02  0.51100000000E-03 0.  1.
        -12    1    3    3    0    0 -0.71910463338E+00 -0.39312125713E+01  0.12364249213E+02  0.12994083359E+02  0.00000000000E+00 0.  1.
</event>
<event>
 7    1  0.5753610E-013  0.5052887E+02  0.7816164E-02  0.1300439E+00
        -11   -1    0    0    0    0  0.00000000000E+00  0.00000000000E+00  0.45593999997E+02  0.45594000000E+02  0.51100000000E-03 0. -1.
         11   -1    0    0    0    0 -0.00000000000E+00 -0.00000000000E+00 -0.45593999997E+02  0.45594000000E+02  0.51100000000E-03 0.  1.
    9900012    2    1    2    0    0 -0.30718367926E+02  0.26591308733E+02  0.15649255428E+01  0.50528870397E+02  0.30000032058E+02 0.  0.
        -12    1    1    2    0    0  0.30718367926E+02 -0.26591308733E+02 -0.15649255428E+01  0.40659129603E+02  0.00000000000E+00 0.  1.
         11    1    3    3    0    0 -0.17148239895E+02  0.11606690844E+02  0.88163561751E+01  0.22505677957E+02  0.51100000000E-03 0. -1.
        -11    1    3    3    0    0  0.42134324141E+01  0.16210923582E+01  0.31780624177E+00  0.45256993062E+01  0.51100000000E-03 0.  1.
        -12    1    3    3    0    0 -0.17783560445E+02  0.13363525531E+02 -0.75692368741E+01  0.23497493134E+02  0.00000000000E+00 0.  1.
</event>
<event>
 7    1  0.5753610E-013  0.5052886E+02  0.7816164E-02  0.1300439E+00
        -11   -1    0    0    0    0  0.00000000000E+00  0.00000000000E+00  0.45593999997E+02  0.45594000000E+02  0.51100000000E-03 0.  1.
         11   -1    0    0    0    0 -0.00000000000E+00 -0.00000000000E+00 -0.45593999997E+02  0.45594000000E+02  0.51100000000E-03 0. -1.
    9900012    2    1    2    0    0 -0.13911875807E+02 -0.15424326242E+02 -0.34953050660E+02  0.50528857376E+02  0.29999992479E+02 0.  0.
        -12    1    1    2    0    0  0.13911875807E+02  0.15424326242E+02  0.34953050660E+02  0.40659142624E+02  0.00000000000E+00 0.  1.
         11    1    3    3    0    0 -0.90571008277E+01 -0.32248201905E+01 -0.52390157997E+01  0.10948873343E+02  0.51100000000E-03 0. -1.
        -11    1    3    3    0    0 -0.82572905555E+01 -0.15152915214E+02 -0.30464332234E+02  0.35012415306E+02  0.51100000000E-03 0.  1.
        -12    1    3    3    0    0  0.34025155760E+01  0.29534091628E+01  0.75029737367E+00  0.45675687271E+01  0.00000000000E+00 0.  1.
</event>
<event>
 7    1  0.5753610E-013  0.5052886E+02  0.7816164E-02  0.1300439E+00
        -11   -1    0    0    0    0  0.00000000000E+00  0.00000000000E+00  0.45593999997E+02  0.45594000000E+02  0.51100000000E-03 0.  1.
         11   -1    0    0    0    0 -0.00000000000E+00 -0.00000000000E+00 -0.45593999997E+02  0.45594000000E+02  0.51100000000E-03 0. -1.
    9900012    2    1    2    0    0  0.13400271283E+02  0.24135560532E+02 -0.29850841192E+02  0.50528864834E+02  0.30000015148E+02 0.  0.
        -12    1    1    2    0    0 -0.13400271283E+02 -0.24135560532E+02  0.29850841192E+02  0.40659135166E+02  0.00000000000E+00 0.  1.
         11    1    3    3    0    0 -0.97757453322E+00  0.11485191927E+00 -0.50978834536E+01  0.51920380295E+01  0.51100000000E-03 0. -1.
        -11    1    3    3    0    0  0.18310576241E+02  0.81841071474E+01 -0.70465747449E+01  0.21258199076E+02  0.51100000000E-03 0.  1.
         12    1    3    3    0    0 -0.39327304247E+01  0.15836601465E+02 -0.17706382993E+02  0.24078627728E+02  0.00000000000E+00 0. -1.
</event>
<event>
 7    1  0.5753610E-013  0.5052890E+02  0.7816164E-02  0.1300439E+00
        -11   -1    0    0    0    0  0.00000000000E+00  0.00000000000E+00  0.45593999997E+02  0.45594000000E+02  0.51100000000E-03 0. -1.
         11   -1    0    0    0    0 -0.00000000000E+00 -0.00000000000E+00 -0.45593999997E+02  0.45594000000E+02  0.51100000000E-03 0.  1.
    9900012    2    1    2    0    0  0.25025272780E+02  0.20759308810E+02  0.24412068813E+02  0.50528901588E+02  0.30000126866E+02 0.  0.
        -12    1    1    2    0    0 -0.25025272780E+02 -0.20759308810E+02 -0.24412068813E+02  0.40659098412E+02  0.00000000000E+00 0.  1.
         11    1    3    3    0    0  0.14047459742E+02  0.45528593868E+01  0.11540607015E+01  0.14811870583E+02  0.51100000000E-03 0. -1.
        -11    1    3    3    0    0  0.26022877053E+01 -0.34046727455E+01  0.92736880943E+01  0.10215918409E+02  0.51100000000E-03 0.  1.
        -12    1    3    3    0    0  0.83755253324E+01  0.19611122168E+02  0.13984320017E+02  0.25501112596E+02  0.00000000000E+00 0.  1.
</event>
<event>
 7    1  0.5753610E-013  0.5052886E+02  0.7816164E-02  0.1300439E+00
        -11   -1    0    0    0    0  0.00000000000E+00  0.00000000000E+00  0.45593999997E+02  0.45594000000E+02  0.51100000000E-03 0. -1.
         11   -1    0    0    0    0 -0.00000000000E+00 -0.00000000000E+00 -0.45593999997E+02  0.45594000000E+02  0.51100000000E-03 0.  1.
    9900012    2    1    2    0    0 -0.21841214565E+02 -0.27479462125E+02  0.20518438450E+02  0.50528858239E+02  0.29999995102E+02 0.  0.
        -12    1    1    2    0    0  0.21841214565E+02  0.27479462125E+02 -0.20518438450E+02  0.40659141761E+02  0.00000000000E+00 0.  1.
         11    1    3    3    0    0 -0.28601186171E+01 -0.46289987024E+01  0.11417102342E+01  0.55598030551E+01  0.51100000000E-03 0. -1.
        -11    1    3    3    0    0  0.24556354070E+01 -0.15323953911E+02  0.66129433809E+00  0.15533544965E+02  0.51100000000E-03 0.  1.
         12    1    3    3    0    0 -0.21436731355E+02 -0.75265095120E+01  0.18715433877E+02  0.29435510219E+02  0.00000000000E+00 0. -1.
</event>
<event>
 7    1  0.5753610E-013  0.5052886E+02  0.7816164E-02  0.1300439E+00
        -11   -1    0    0    0    0  0.00000000000E+00  0.00000000000E+00  0.45593999997E+02  0.45594000000E+02  0.51100000000E-03 0.  1.
         11   -1    0    0    0    0 -0.00000000000E+00 -0.00000000000E+00 -0.45593999997E+02  0.45594000000E+02  0.51100000000E-03 0. -1.
    9900012    2    1    2    0    0 -0.58518433556E+01  0.35354764262E+02 -0.19208396302E+02  0.50528856930E+02  0.29999991124E+02 0.  0.
        -12    1    1    2    0    0  0.58518433556E+01 -0.35354764262E+02  0.19208396302E+02  0.40659143070E+02  0.00000000000E+00 0.  1.
         11    1    3    3    0    0 -0.13062245760E+02  0.80637535322E+01 -0.69657838314E+01  0.16857299012E+02  0.51100000000E-03 0. -1.
        -11    1    3    3    0    0 -0.25698737118E+01  0.16805438578E+02 -0.73422161552E+01  0.18518508445E+02  0.51100000000E-03 0.  1.
         12    1    3    3    0    0  0.97802761167E+01  0.10485572152E+02 -0.49003963152E+01  0.15153049472E+02  0.00000000000E+00 0. -1.
</event>
<event>
 7    1  0.5753610E-013  0.5052883E+02  0.7816164E-02  0.1300439E+00
        -11   -1    0    0    0    0  0.00000000000E+00  0.00000000000E+00  0.45593999997E+02  0.45594000000E+02  0.51100000000E-03 0. -1.
         11   -1    0    0    0    0 -0.00000000000E+00 -0.00000000000E+00 -0.45593999997E+02  0.45594000000E+02  0.51100000000E-03 0.  1.
    9900012    2    1    2    0    0 -0.11402926868E+02  0.21504164092E+02  0.32568582444E+02  0.50528826658E+02  0.29999899109E+02 0.  0.
        -12    1    1    2    0    0  0.11402926868E+02 -0.21504164092E+02 -0.32568582444E+02  0.40659173342E+02  0.00000000000E+00 0.  1.
         11    1    3    3    0    0 -0.47530388635E+01  0.75169958922E+01  0.26233267553E+02  0.27699836325E+02  0.51100000000E-03 0.  1.
        -11    1    3    3    0    0 -0.17784275880E+01  0.13778256833E+02  0.96657135593E+01  0.16924218887E+02  0.51100000000E-03 0. -1.
        -12    1    3    3    0    0 -0.48714604162E+01  0.20891136637E+00 -0.33303986676E+01  0.59047714461E+01  0.00000000000E+00 0.  1.
</event>
<event>
 7    1  0.5753610E-013  0.5052884E+02  0.7816164E-02  0.1300439E+00
        -11   -1    0    0    0    0  0.00000000000E+00  0.00000000000E+00  0.45593999997E+02  0.45594000000E+02  0.51100000000E-03 0. -1.
         11   -1    0    0    0    0 -0.00000000000E+00 -0.00000000000E+00 -0.45593999997E+02  0.45594000000E+02  0.51100000000E-03 0.  1.
    9900012    2    1    2    0    0  0.14824564846E+02 -0.20552088594E+02  0.31796403885E+02  0.50528839059E+02  0.29999936804E+02 0.  0.
        -12    1    1    2    0    0 -0.14824564846E+02  0.20552088594E+02 -0.31796403885E+02  0.40659160941E+02  0.00000000000E+00 0.  1.
         11    1    3    3    0    0  0.63609695072E+01 -0.60355855434E+01  0.13259233823E+02  0.15896462114E+02  0.51100000000E-03 0. -1.
        -11    1    3    3    0    0 -0.60278369421E+01 -0.12083099950E+02  0.13511816541E+02  0.19102494839E+02  0.51100000000E-03 0.  1.
         12    1    3    3    0    0  0.14491432281E+02 -0.24334031005E+01  0.50253535215E+01  0.15529882105E+02  0.00000000000E+00 0. -1.
</event>
<event>
 7    1  0.5753610E-013  0.5052886E+02  0.7816164E-02  0.1300439E+00
        -11   -1    0    0    0    0  0.00000000000E+00  0.00000000000E+00  0.45593999997E+02  0.45594000000E+02  0.51100000000E-03 0. -1.
         11   -1    0    0    0    0 -0.00000000000E+00 -0.00000000000E+00 -0.45593999997E+02  0.45594000000E+02  0.51100000000E-03 0.  1.
    9900012    2    1    2    0    0 -0.86723103190E+01  0.59271753071E+01  0.39278812678E+02  0.50528862051E+02  0.30000006689E+02 0.  0.
        -12    1    1    2    0    0  0.86723103190E+01 -0.59271753071E+01 -0.39278812678E+02  0.40659137949E+02  0.00000000000E+00 0.  1.
         11    1    3    3    0    0  0.34808381927E+01  0.21954109083E+01  0.18818167763E+02  0.19262904812E+02  0.51100000000E-03 0. -1.
        -11    1    3    3    0    0 -0.86462984103E+01 -0.33234630252E+01  0.21412239453E+02  0.23329978168E+02  0.51100000000E-03 0.  1.
         12    1    3    3    0    0 -0.35068501014E+01  0.70552274240E+01 -0.95159453823E+00  0.79359790702E+01  0.00000000000E+00 0. -1.
</event>
<event>
 7    1  0.5753610E-013  0.5052886E+02  0.7816164E-02  0.1300439E+00
        -11   -1    0    0    0    0  0.00000000000E+00  0.00000000000E+00  0.45593999997E+02  0.45594000000E+02  0.51100000000E-03 0. -1.
         11   -1    0    0    0    0 -0.00000000000E+00 -0.00000000000E+00 -0.45593999997E+02  0.45594000000E+02  0.51100000000E-03 0.  1.
    9900012    2    1    2    0    0 -0.86268351133E+01  0.35873643578E+02  0.17082879725E+02  0.50528863667E+02  0.30000011604E+02 0.  0.
        -12    1    1    2    0    0  0.86268351133E+01 -0.35873643578E+02 -0.17082879725E+02  0.40659136333E+02  0.00000000000E+00 0.  1.
         11    1    3    3    0    0  0.94929564947E+00 -0.11046219818E+01  0.82319464857E+01  0.83598023396E+01  0.51100000000E-03 0. -1.
        -11    1    3    3    0    0 -0.87956502997E+01  0.11521545421E+02 -0.17138003850E+01  0.14596115412E+02  0.51100000000E-03 0.  1.
        -12    1    3    3    0    0 -0.78048046302E+00  0.25456720138E+02  0.10564733624E+02  0.27572945916E+02  0.00000000000E+00 0.  1.
</event>
<event>
 7    1  0.5753610E-013  0.5052899E+02  0.7816164E-02  0.1300438E+00
        -11   -1    0    0    0    0  0.00000000000E+00  0.00000000000E+00  0.45593999997E+02  0.45594000000E+02  0.51100000000E-03 0.  1.
         11   -1    0    0    0    0 -0.00000000000E+00 -0.00000000000E+00 -0.45593999997E+02  0.45594000000E+02  0.51100000000E-03 0. -1.
    9900012    2    1    2    0    0 -0.21720153956E+02  0.33956045355E+02  0.53270154863E+01  0.50528988723E+02  0.30000391721E+02 0.  0.
        -12    1    1    2    0    0  0.21720153956E+02 -0.33956045355E+02 -0.53270154863E+01  0.40659011277E+02  0.00000000000E+00 0.  1.
         11    1    3    3    0    0 -0.76852859125E+00  0.14561992763E+02  0.60057022867E+01  0.15770565292E+02  0.51100000000E-03 0. -1.
        -11    1    3    3    0    0  0.23633711219E+01 -0.13651606038E+01 -0.21974199224E+01  0.35039750442E+01  0.51100000000E-03 0.  1.
        -12    1    3    3    0    0 -0.23314996486E+02  0.20759213196E+02  0.15187331220E+01  0.31254448387E+02  0.00000000000E+00 0.  1.
</event>
<event>
 7    1  0.5753610E-013  0.5052887E+02  0.7816164E-02  0.1300439E+00
        -11   -1    0    0    0    0  0.00000000000E+00  0.00000000000E+00  0.45593999997E+02  0.45594000000E+02  0.51100000000E-03 0.  1.
         11   -1    0    0    0    0 -0.00000000000E+00 -0.00000000000E+00 -0.45593999997E+02  0.45594000000E+02  0.51100000000E-03 0. -1.
    9900012    2    1    2    0    0 -0.21448191902E+02  0.12345244701E+01 -0.34519788801E+02  0.50528870578E+02  0.30000032609E+02 0.  0.
        -12    1    1    2    0    0  0.21448191902E+02 -0.12345244701E+01  0.34519788801E+02  0.40659129422E+02  0.00000000000E+00 0.  1.
         11    1    3    3    0    0 -0.18792357366E+02 -0.84468960120E+01 -0.16358317871E+02  0.26307742424E+02  0.51100000000E-03 0. -1.
        -11    1    3    3    0    0  0.10556257903E+01 -0.27981944023E+01 -0.38148267844E+01  0.48473850042E+01  0.51100000000E-03 0.  1.
         12    1    3    3    0    0 -0.37114603263E+01  0.12479614884E+02 -0.14346644145E+02  0.19373743150E+02  0.00000000000E+00 0. -1.
</event>
<event>
 7    1  0.7655996E-013  0.5052886E+02  0.7816164E-02  0.1300439E+00
        -11   -1    0    0    0    0  0.00000000000E+00  0.00000000000E+00  0.45593999997E+02  0.45594000000E+02  0.51100000000E-03 0. -1.
         11   -1    0    0    0    0 -0.00000000000E+00 -0.00000000000E+00 -0.45593999997E+02  0.45594000000E+02  0.51100000000E-03 0.  1.
    9900012    2    1    2    0    0  0.22643588983E+01 -0.22045465670E+02  0.34088649727E+02  0.50528856895E+02  0.29999991019E+02 0.  0.
        -12    1    1    2    0    0 -0.22643588983E+01  0.22045465670E+02 -0.34088649727E+02  0.40659143105E+02  0.00000000000E+00 0.  1.
         11    1    3    3    0    0 -0.48015502191E+01 -0.12249967867E+02  0.10503928428E+02  0.16835946957E+02  0.51100000000E-03 0. -1.
        -11    1    3    3    0    0 -0.65277869169E+01 -0.44399056723E+00  0.11535925577E+02  0.13262228653E+02  0.51100000000E-03 0.  1.
        -12    1    3    3    0    0  0.13593696034E+02 -0.93515072352E+01  0.12048795722E+02  0.20430681285E+02  0.00000000000E+00 0.  1.
</event>
<event>
 7    1  0.5753610E-013  0.5052888E+02  0.7816164E-02  0.1300439E+00
        -11   -1    0    0    0    0  0.00000000000E+00  0.00000000000E+00  0.45593999997E+02  0.45594000000E+02  0.51100000000E-03 0.  1.
         11   -1    0    0    0    0 -0.00000000000E+00 -0.00000000000E+00 -0.45593999997E+02  0.45594000000E+02  0.51100000000E-03 0. -1.
    9900012    2    1    2    0    0  0.33067464936E+02  0.83316817531E+01 -0.22142490805E+02  0.50528879779E+02  0.30000060575E+02 0.  0.
        -12    1    1    2    0    0 -0.33067464936E+02 -0.83316817531E+01  0.22142490805E+02  0.40659120221E+02  0.00000000000E+00 0.  1.
         11    1    3    3    0    0  0.24112247651E+02 -0.59546632395E+01 -0.17053516381E+02  0.30127743399E+02  0.51100000000E-03 0. -1.
        -11    1    3    3    0    0  0.10166110755E+02  0.86781518945E+01 -0.58927282684E+01  0.14607682051E+02  0.51100000000E-03 0.  1.
        -12    1    3    3    0    0 -0.12108934702E+01  0.56081930981E+01  0.80375384400E+00  0.57934543291E+01  0.00000000000E+00 0.  1.
</event>
<event>
 7    1  0.5753610E-013  0.5052883E+02  0.7816164E-02  0.1300439E+00
        -11   -1    0    0    0    0  0.00000000000E+00  0.00000000000E+00  0.45593999997E+02  0.45594000000E+02  0.51100000000E-03 0.  1.
         11   -1    0    0    0    0 -0.00000000000E+00 -0.00000000000E+00 -0.45593999997E+02  0.45594000000E+02  0.51100000000E-03 0. -1.
    9900012    2    1    2    0    0 -0.30385917495E+02  0.24220634957E+02 -0.11967663177E+02  0.50528830043E+02  0.29999909398E+02 0.  0.
        -12    1    1    2    0    0  0.30385917495E+02 -0.24220634957E+02  0.11967663177E+02  0.40659169957E+02  0.00000000000E+00 0.  1.
         11    1    3    3    0    0 -0.24276706401E+02  0.10938356332E+02 -0.89755947941E+01  0.28099242251E+02  0.51100000000E-03 0. -1.
        -11    1    3    3    0    0 -0.35656085393E+01 -0.21787763656E+01 -0.51289634568E+01  0.66156554557E+01  0.51100000000E-03 0.  1.
         12    1    3    3    0    0 -0.25436025547E+01  0.15461054991E+02  0.21368950741E+01  0.15813932336E+02  0.00000000000E+00 0. -1.
</event>
<event>
 7    1  0.5753610E-013  0.5052886E+02  0.7816164E-02  0.1300439E+00
        -11   -1    0    0    0    0  0.00000000000E+00  0.00000000000E+00  0.45593999997E+02  0.45594000000E+02  0.51100000000E-03 0.  1.
         11   -1    0    0    0    0 -0.00000000000E+00 -0.00000000000E+00 -0.45593999997E+02  0.45594000000E+02  0.51100000000E-03 0. -1.
    9900012    2    1    2    0    0 -0.39625013497E+02  0.81030177643E+01 -0.41671883435E+01  0.50528855269E+02  0.29999986076E+02 0.  0.
        -12    1    1    2    0    0  0.39625013497E+02 -0.81030177643E+01  0.41671883435E+01  0.40659144731E+02  0.00000000000E+00 0.  1.
         11    1    3    3    0    0 -0.15620744004E+02  0.45900782886E+01 -0.15903273373E+01  0.16358655301E+02  0.51100000000E-03 0. -1.
        -11    1    3    3    0    0 -0.80052945555E+01  0.13116420960E+02 -0.27525969798E+00  0.15368832352E+02  0.51100000000E-03 0.  1.
         12    1    3    3    0    0 -0.15998974938E+02 -0.96034814839E+01 -0.23016013082E+01  0.18801367616E+02  0.00000000000E+00 0. -1.
</event>
<event>
 7    1  0.5753610E-013  0.5052888E+02  0.7816164E-02  0.1300439E+00
        -11   -1    0    0    0    0  0.00000000000E+00  0.00000000000E+00  0.45593999997E+02  0.45594000000E+02  0.51100000000E-03 0. -1.
         11   -1    0    0    0    0 -0.00000000000E+00 -0.00000000000E+00 -0.45593999997E+02  0.45594000000E+02  0.51100000000E-03 0.  1.
    9900012    2    1    2    0    0  0.14805618279E+02 -0.86925019485E+01  0.36856447899E+02  0.50528884485E+02  0.30000074881E+02 0.  0.
        -12    1    1    2    0    0 -0.14805618279E+02  0.86925019485E+01 -0.36856447899E+02  0.40659115515E+02  0.00000000000E+00 0.  1.
         11    1    3    3    0    0  0.12997163486E+02  0.55433382222E+01  0.21995159499E+02  0.26142721721E+02  0.51100000000E-03 0. -1.
        -11    1    3    3    0    0 -0.95398113937E+00 -0.35113358813E+01  0.12558129020E+02  0.13074638214E+02  0.51100000000E-03 0.  1.
         12    1    3    3    0    0  0.27624359321E+01 -0.10724504289E+02  0.23031593803E+01  0.11311524551E+02  0.00000000000E+00 0. -1.
</event>
<event>
 7    1  0.7022059E-013  0.5052888E+02  0.7816164E-02  0.1300439E+00
        -11   -1    0    0    0    0  0.00000000000E+00  0.00000000000E+00  0.45593999997E+02  0.45594000000E+02  0.51100000000E-03 0. -1.
         11   -1    0    0    0    0 -0.00000000000E+00 -0.00000000000E+00 -0.45593999997E+02  0.45594000000E+02  0.51100000000E-03 0.  1.
    9900012    2    1    2    0    0 -0.93921678289E+01 -0.30992825915E+02  0.24584460186E+02  0.50528883465E+02  0.30000071781E+02 0.  0.
        -12    1    1    2    0    0  0.93921678289E+01  0.30992825915E+02 -0.24584460186E+02  0.40659116535E+02  0.00000000000E+00 0.  1.
         11    1    3    3    0    0 -0.76162673290E+01 -0.27383003619E+02  0.12925962318E+02  0.31223659576E+02  0.51100000000E-03 0. -1.
        -11    1    3    3    0    0  0.37432016912E+01 -0.56420163825E+01  0.11590770394E+02  0.13423481901E+02  0.51100000000E-03 0.  1.
        -12    1    3    3    0    0 -0.55191021911E+01  0.20321940865E+01  0.67727474838E-01  0.58817419878E+01  0.00000000000E+00 0.  1.
</event>
<event>
 7    1  0.5753610E-013  0.5052880E+02  0.7816164E-02  0.1300439E+00
        -11   -1    0    0    0    0  0.00000000000E+00  0.00000000000E+00  0.45593999997E+02  0.45594000000E+02  0.51100000000E-03 0.  1.
         11   -1    0    0    0    0 -0.00000000000E+00 -0.00000000000E+00 -0.45593999997E+02  0.45594000000E+02  0.51100000000E-03 0. -1.
    9900012    2    1    2    0    0 -0.36999751077E+02 -0.99121489957E+01 -0.13635904757E+02  0.50528804533E+02  0.29999831859E+02 0.  0.
        -12    1    1    2    0    0  0.36999751077E+02  0.99121489957E+01  0.13635904757E+02  0.40659195467E+02  0.00000000000E+00 0.  1.
         11    1    3    3    0    0 -0.94134450492E+01 -0.32992922463E+01 -0.47044750930E+01  0.11028615651E+02  0.51100000000E-03 0. -1.
        -11    1    3    3    0    0 -0.59048943312E+01  0.23536114269E+01 -0.14107675447E+02  0.15473647618E+02  0.51100000000E-03 0.  1.
        -12    1    3    3    0    0 -0.21681411697E+02 -0.89664681763E+01  0.51762457832E+01  0.24026541264E+02  0.00000000000E+00 0.  1.
</event>
<event>
 7    1  0.5753610E-013  0.5052886E+02  0.7816164E-02  0.1300439E+00
        -11   -1    0    0    0    0  0.00000000000E+00  0.00000000000E+00  0.45593999997E+02  0.45594000000E+02  0.51100000000E-03 0. -1.
         11   -1    0    0    0    0 -0.00000000000E+00 -0.00000000000E+00 -0.45593999997E+02  0.45594000000E+02  0.51100000000E-03 0.  1.
    9900012    2    1    2    0    0  0.23606235053E+02  0.32299792749E+02  0.72549665478E+01  0.50528862225E+02  0.30000007220E+02 0.  0.
        -12    1    1    2    0    0 -0.23606235053E+02 -0.32299792749E+02 -0.72549665478E+01  0.40659137775E+02  0.00000000000E+00 0.  1.
         11    1    3    3    0    0  0.10611437629E+02  0.12379018668E+01 -0.21794035627E+01  0.10903431099E+02  0.51100000000E-03 0. -1.
        -11    1    3    3    0    0 -0.71177699461E+00  0.98906005071E+01 -0.44122728519E+01  0.10853513572E+02  0.51100000000E-03 0.  1.
        -12    1    3    3    0    0  0.13706574419E+02  0.21171290375E+02  0.13846642962E+02  0.28771917554E+02  0.00000000000E+00 0.  1.
</event>
<event>
 7    1  0.5753610E-013  0.5052886E+02  0.7816164E-02  0.1300439E+00
        -11   -1    0    0    0    0  0.00000000000E+00  0.00000000000E+00  0.45593999997E+02  0.45594000000E+02  0.51100000000E-03 0. -1.
         11   -1    0    0    0    0 -0.00000000000E+00 -0.00000000000E+00 -0.45593999997E+02  0.45594000000E+02  0.51100000000E-03 0.  1.
    9900012    2    1    2    0    0 -0.14609608463E+02  0.20940994156E+02  0.31641739163E+02  0.50528861385E+02  0.30000004666E+02 0.  0.
        -12    1    1    2    0    0  0.14609608463E+02 -0.20940994156E+02 -0.31641739163E+02  0.40659138615E+02  0.00000000000E+00 0.  1.
         11    1    3    3    0    0 -0.12543223026E+02  0.12124452797E+02  0.14726626344E+02  0.22829987368E+02  0.51100000000E-03 0. -1.
        -11    1    3    3    0    0  0.21895458275E+01 -0.47163247268E+01 -0.51510976696E+00  0.52252433620E+01  0.51100000000E-03 0.  1.
         12    1    3    3    0    0 -0.42559312644E+01  0.13532866086E+02  0.17430222585E+02  0.22473630655E+02  0.00000000000E+00 0. -1.
</event>
<event>
 7    1  0.5753610E-013  0.5052886E+02  0.7816164E-02  0.1300439E+00
        -11   -1    0    0    0    0  0.00000000000E+00  0.00000000000E+00  0.45593999997E+02  0.45594000000E+02  0.51100000000E-03 0. -1.
         11   -1    0    0    0    0 -0.00000000000E+00 -0.00000000000E+00 -0.45593999997E+02  0.45594000000E+02  0.51100000000E-03 0.  1.
    9900012    2    1    2    0    0  0.27845738506E+02 -0.28098712862E+02  0.93937655911E+01  0.50528860199E+02  0.30000001059E+02 0.  0.
        -12    1    1    2    0    0 -0.27845738506E+02  0.28098712862E+02 -0.93937655911E+01  0.40659139801E+02  0.00000000000E+00 0.  1.
         11    1    3    3    0    0  0.19166259787E+02 -0.22417247999E+02  0.80209736946E+01  0.30564923382E+02  0.51100000000E-03 0. -1.
        -11    1    3    3    0    0  0.13835283017E+02 -0.50230439476E+01  0.10430627985E+01  0.14755812649E+02  0.51100000000E-03 0.  1.
        -12    1    3    3    0    0 -0.51558042986E+01 -0.65842091501E+00  0.32972909800E+00  0.52081241676E+01  0.00000000000E+00 0.  1.
</event>
<event>
 7    1  0.5753610E-013  0.5052887E+02  0.7816164E-02  0.1300439E+00
        -11   -1    0    0    0    0  0.00000000000E+00  0.00000000000E+00  0.45593999997E+02  0.45594000000E+02  0.51100000000E-03 0.  1.
         11   -1    0    0    0    0 -0.00000000000E+00 -0.00000000000E+00 -0.45593999997E+02  0.45594000000E+02  0.51100000000E-03 0. -1.
    9900012    2    1    2    0    0  0.20617831095E+02 -0.19039729109E+02 -0.29420375361E+02  0.50528871504E+02  0.30000035425E+02 0.  0.
        -12    1    1    2    0    0 -0.20617831095E+02  0.19039729109E+02  0.29420375361E+02  0.40659128496E+02  0.00000000000E+00 0.  1.
         11    1    3    3    0    0  0.12728896125E+02 -0.10380723771E+02 -0.12658052361E+02  0.20736694829E+02  0.51100000000E-03 0. -1.
        -11    1    3    3    0    0  0.94526386543E+01 -0.32778214591E+01  0.20070277791E+01  0.10204148755E+02  0.51100000000E-03 0.  1.
        -12    1    3    3    0    0 -0.15637036844E+01 -0.53811838791E+01 -0.18769350779E+02  0.19588027921E+02  0.00000000000E+00 0.  1.
</event>
<event>
 7    1  0.5753610E-013  0.5052885E+02  0.7816164E-02  0.1300439E+00
        -11   -1    0    0    0    0  0.00000000000E+00  0.00000000000E+00  0.45593999997E+02  0.45594000000E+02  0.51100000000E-03 0. -1.
         11   -1    0    0    0    0 -0.00000000000E+00 -0.00000000000E+00 -0.45593999997E+02  0.45594000000E+02  0.51100000000E-03 0.  1.
    9900012    2    1    2    0    0  0.34538207088E+02 -0.11897520094E+02  0.17852938634E+02  0.50528854028E+02  0.29999982305E+02 0.  0.
        -12    1    1    2    0    0 -0.34538207088E+02  0.11897520094E+02 -0.17852938634E+02  0.40659145972E+02  0.00000000000E+00 0.  1.
         11    1    3    3    0    0  0.13978589835E+02 -0.79240238966E+01  0.89257652734E+01  0.18380979693E+02  0.51100000000E-03 0. -1.
        -11    1    3    3    0    0  0.88710210221E+01  0.36354707051E+01 -0.63209481694E+01  0.11483294268E+02  0.51100000000E-03 0.  1.
         12    1    3    3    0    0  0.11688596232E+02 -0.76089669027E+01  0.15248121530E+02  0.20664580068E+02  0.00000000000E+00 0. -1.
</event>
<event>
 7    1  0.5753610E-013  0.5052886E+02  0.7816164E-02  0.1300439E+00
        -11   -1    0    0    0    0  0.00000000000E+00  0.00000000000E+00  0.45593999997E+02  0.45594000000E+02  0.51100000000E-03 0.  1.
         11   -1    0    0    0    0 -0.00000000000E+00 -0.00000000000E+00 -0.45593999997E+02  0.45594000000E+02  0.51100000000E-03 0. -1.
    9900012    2    1    2    0    0  0.24914459927E+02 -0.21165533187E+02 -0.24175507945E+02  0.50528864582E+02  0.30000014384E+02 0.  0.
        -12    1    1    2    0    0 -0.24914459927E+02  0.21165533187E+02  0.24175507945E+02  0.40659135418E+02  0.00000000000E+00 0.  1.
         11    1    3    3    0    0  0.47299035540E+01  0.54784766209E+00 -0.87860698826E+01  0.99933552390E+01  0.51100000000E-03 0.  1.
        -11    1    3    3    0    0  0.11586948208E+02 -0.25548456554E+02 -0.12255890799E+02  0.30613524145E+02  0.51100000000E-03 0. -1.
         12    1    3    3    0    0  0.85976081645E+01  0.38350757049E+01 -0.31335472630E+01  0.99219851977E+01  0.00000000000E+00 0. -1.
</event>
<event>
 7    1  0.5753610E-013  0.5052887E+02  0.7816164E-02  0.1300439E+00
        -11   -1    0    0    0    0  0.00000000000E+00  0.00000000000E+00  0.45593999997E+02  0.45594000000E+02  0.51100000000E-03 0.  1.
         11   -1    0    0    0    0 -0.00000000000E+00 -0.00000000000E+00 -0.45593999997E+02  0.45594000000E+02  0.51100000000E-03 0. -1.
    9900012    2    1    2    0    0  0.22275473122E+02  0.22890575669E+02 -0.25159293870E+02  0.50528865414E+02  0.30000016912E+02 0.  0.
        -12    1    1    2    0    0 -0.22275473122E+02 -0.22890575669E+02  0.25159293870E+02  0.40659134586E+02  0.00000000000E+00 0.  1.
         11    1    3    3    0    0  0.11795922670E+01  0.10639833517E+02 -0.19497840660E+02  0.22243275070E+02  0.51100000000E-03 0. -1.
        -11    1    3    3    0    0 -0.34197425000E+00 -0.57375452555E+00  0.20382625783E+01  0.21449138077E+01  0.51100000000E-03 0.  1.
         12    1    3    3    0    0  0.21437855105E+02  0.12824496677E+02 -0.76997157885E+01  0.26140676536E+02  0.00000000000E+00 0. -1.
</event>
<event>
 7    1  0.6113597E-013  0.5052885E+02  0.7816164E-02  0.1300439E+00
        -11   -1    0    0    0    0  0.00000000000E+00  0.00000000000E+00  0.45593999997E+02  0.45594000000E+02  0.51100000000E-03 0.  1.
         11   -1    0    0    0    0 -0.00000000000E+00 -0.00000000000E+00 -0.45593999997E+02  0.45594000000E+02  0.51100000000E-03 0. -1.
    9900012    2    1    2    0    0  0.52453954830E+01  0.33550904590E+02 -0.22360440977E+02  0.50528847362E+02  0.29999962041E+02 0.  0.
        -12    1    1    2    0    0 -0.52453954830E+01 -0.33550904590E+02  0.22360440977E+02  0.40659152638E+02  0.00000000000E+00 0.  1.
         11    1    3    3    0    0  0.75721026309E+00  0.83961338464E+01 -0.12173912016E+02  0.14807854840E+02  0.51100000000E-03 0. -1.
        -11    1    3    3    0    0  0.85942008010E+01  0.76969434282E+00 -0.63122404151E+01  0.10690981999E+02  0.51100000000E-03 0.  1.
        -12    1    3    3    0    0 -0.41060155811E+01  0.24385076400E+02 -0.38742885463E+01  0.25030010522E+02  0.00000000000E+00 0.  1.
</event>
<event>
 7    1  0.5753610E-013  0.5052885E+02  0.7816164E-02  0.1300439E+00
        -11   -1    0    0    0    0  0.00000000000E+00  0.00000000000E+00  0.45593999997E+02  0.45594000000E+02  0.51100000000E-03 0.  1.
         11   -1    0    0    0    0 -0.00000000000E+00 -0.00000000000E+00 -0.45593999997E+02  0.45594000000E+02  0.51100000000E-03 0. -1.
    9900012    2    1    2    0    0 -0.30739369772E+02 -0.20910887862E+02 -0.16461849432E+02  0.50528848855E+02  0.29999966578E+02 0.  0.
        -12    1    1    2    0    0  0.30739369772E+02  0.20910887862E+02  0.16461849432E+02  0.40659151145E+02  0.00000000000E+00 0.  1.
         11    1    3    3    0    0 -0.15804792596E+02 -0.15610384126E+02 -0.14268843547E+02  0.26402186614E+02  0.51100000000E-03 0. -1.
        -11    1    3    3    0    0 -0.15937484971E+02  0.14367043488E+01 -0.49917991570E+01  0.16762625262E+02  0.51100000000E-03 0.  1.
         12    1    3    3    0    0  0.10029077957E+01 -0.67372080853E+01  0.27987932730E+01  0.73640369782E+01  0.00000000000E+00 0. -1.
</event>
<event>
 7    1  0.5753610E-013  0.5052886E+02  0.7816164E-02  0.1300439E+00
        -11   -1    0    0    0    0  0.00000000000E+00  0.00000000000E+00  0.45593999997E+02  0.45594000000E+02  0.51100000000E-03 0.  1.
         11   -1    0    0    0    0 -0.00000000000E+00 -0.00000000000E+00 -0.45593999997E+02  0.45594000000E+02  0.51100000000E-03 0. -1.
    9900012    2    1    2    0    0  0.34564350727E+02  0.20105853017E+02 -0.73638084796E+01  0.50528863978E+02  0.30000012548E+02 0.  0.
        -12    1    1    2    0    0 -0.34564350727E+02 -0.20105853017E+02  0.73638084796E+01  0.40659136022E+02  0.00000000000E+00 0.  1.
         11    1    3    3    0    0  0.71035659073E+01 -0.32434887572E+01  0.68734616236E+01  0.10403141010E+02  0.51100000000E-03 0.  1.
        -11    1    3    3    0    0  0.97274543655E+01  0.11071931901E+02 -0.89785822229E+00  0.14765405315E+02  0.51100000000E-03 0. -1.
        -12    1    3    3    0    0  0.17733330454E+02  0.12277409873E+02 -0.13339411881E+02  0.25360317654E+02  0.00000000000E+00 0.  1.
</event>
<event>
 7    1  0.5753610E-013  0.5052887E+02  0.7816164E-02  0.1300439E+00
        -11   -1    0    0    0    0  0.00000000000E+00  0.00000000000E+00  0.45593999997E+02  0.45594000000E+02  0.51100000000E-03 0. -1.
         11   -1    0    0    0    0 -0.00000000000E+00 -0.00000000000E+00 -0.45593999997E+02  0.45594000000E+02  0.51100000000E-03 0.  1.
    9900012    2    1    2    0    0 -0.40484075877E+02  0.14453034382E+01  0.34807913754E+01  0.50528865599E+02  0.30000017476E+02 0.  0.
        -12    1    1    2    0    0  0.40484075877E+02 -0.14453034382E+01 -0.34807913754E+01  0.40659134401E+02  0.00000000000E+00 0.  1.
         11    1    3    3    0    0 -0.11628197970E+02  0.79373393132E+01 -0.12176052404E+01  0.14131486341E+02  0.51100000000E-03 0.  1.
        -11    1    3    3    0    0 -0.23812478186E+02  0.28370815062E+01  0.80164804832E+01  0.25285314086E+02  0.51100000000E-03 0. -1.
        -12    1    3    3    0    0 -0.50433997204E+01 -0.93291173812E+01 -0.33180838674E+01  0.11112065173E+02  0.00000000000E+00 0.  1.
</event>
<event>
 7    1  0.5753610E-013  0.5052886E+02  0.7816164E-02  0.1300439E+00
        -11   -1    0    0    0    0  0.00000000000E+00  0.00000000000E+00  0.45593999997E+02  0.45594000000E+02  0.51100000000E-03 0.  1.
         11   -1    0    0    0    0 -0.00000000000E+00 -0.00000000000E+00 -0.45593999997E+02  0.45594000000E+02  0.51100000000E-03 0. -1.
    9900012    2    1    2    0    0  0.14229051149E+02  0.20308105476E+02 -0.32222363101E+02  0.50528859227E+02  0.29999998105E+02 0.  0.
        -12    1    1    2    0    0 -0.14229051149E+02 -0.20308105476E+02  0.32222363101E+02  0.40659140773E+02  0.00000000000E+00 0.  1.
         11    1    3    3    0    0  0.11234759283E+02  0.83461278235E+01 -0.23359798090E+02  0.27231559501E+02  0.51100000000E-03 0. -1.
        -11    1    3    3    0    0  0.31507797260E+00  0.12712576757E+02 -0.13081330138E+02  0.18243631227E+02  0.51100000000E-03 0.  1.
         12    1    3    3    0    0  0.26792138928E+01 -0.75059910445E+00  0.42187651263E+01  0.50536684982E+01  0.00000000000E+00 0. -1.
</event>
<event>
 7    1  0.5753610E-013  0.5052884E+02  0.7816164E-02  0.1300439E+00
        -11   -1    0    0    0    0  0.00000000000E+00  0.00000000000E+00  0.45593999997E+02  0.45594000000E+02  0.51100000000E-03 0.  1.
         11   -1    0    0    0    0 -0.00000000000E+00 -0.00000000000E+00 -0.45593999997E+02  0.45594000000E+02  0.51100000000E-03 0. -1.
    9900012    2    1    2    0    0  0.19274572190E+02 -0.33809783319E+02 -0.11771026773E+02  0.50528835566E+02  0.29999926186E+02 0.  0.
        -12    1    1    2    0    0 -0.19274572190E+02  0.33809783319E+02  0.11771026773E+02  0.40659164434E+02  0.00000000000E+00 0.  1.
         11    1    3    3    0    0  0.39657751482E+01  0.48189674450E+00 -0.89783913953E+01  0.98270600541E+01  0.51100000000E-03 0. -1.
        -11    1    3    3    0    0  0.10099424278E+02 -0.59612283205E+01  0.29594903513E+00  0.11731248864E+02  0.51100000000E-03 0.  1.
         12    1    3    3    0    0  0.52093727643E+01 -0.28330451743E+02 -0.30885844128E+01  0.28970526647E+02  0.00000000000E+00 0. -1.
</event>
<event>
 7    1  0.5753610E-013  0.5052886E+02  0.7816164E-02  0.1300439E+00
        -11   -1    0    0    0    0  0.00000000000E+00  0.00000000000E+00  0.45593999997E+02  0.45594000000E+02  0.51100000000E-03 0. -1.
         11   -1    0    0    0    0 -0.00000000000E+00 -0.00000000000E+00 -0.45593999997E+02  0.45594000000E+02  0.51100000000E-03 0.  1.
    9900012    2    1    2    0    0 -0.26976856800E+02 -0.27726852222E+02  0.12515440336E+02  0.50528863465E+02  0.30000010989E+02 0.  0.
        -12    1    1    2    0    0  0.26976856800E+02  0.27726852222E+02 -0.12515440336E+02  0.40659136535E+02  0.00000000000E+00 0.  1.
         11    1    3    3    0    0 -0.88244134980E+01 -0.43958389600E+01 -0.28351140958E+01  0.10258242829E+02  0.51100000000E-03 0. -1.
        -11    1    3    3    0    0 -0.97913035163E+01 -0.21608327912E+02  0.12112615145E+01  0.23754086268E+02  0.51100000000E-03 0.  1.
         12    1    3    3    0    0 -0.83611397854E+01 -0.17226853502E+01  0.14139292918E+02  0.16516534368E+02  0.00000000000E+00 0. -1.
</event>
<event>
 7    1  0.5753610E-013  0.5052883E+02  0.7816164E-02  0.1300439E+00
        -11   -1    0    0    0    0  0.00000000000E+00  0.00000000000E+00  0.45593999997E+02  0.45594000000E+02  0.51100000000E-03 0.  1.
         11   -1    0    0    0    0 -0.00000000000E+00 -0.00000000000E+00 -0.45593999997E+02  0.45594000000E+02  0.51100000000E-03 0. -1.
    9900012    2    1    2    0    0  0.12436893875E+02 -0.22554578205E+02 -0.31460807115E+02  0.50528834839E+02  0.29999923976E+02 0.  0.
        -12    1    1    2    0    0 -0.12436893875E+02  0.22554578205E+02  0.31460807115E+02  0.40659165161E+02  0.00000000000E+00 0.  1.
         11    1    3    3    0    0  0.68084632186E+01 -0.21089760259E+01 -0.12890122269E+02  0.14729501134E+02  0.51100000000E-03 0. -1.
        -11    1    3    3    0    0  0.12827257879E+02 -0.69787617359E+01 -0.51948703041E+01  0.15499301204E+02  0.51100000000E-03 0.  1.
        -12    1    3    3    0    0 -0.71988272228E+01 -0.13466840443E+02 -0.13375814542E+02  0.20300032501E+02  0.00000000000E+00 0.  1.
</event>
<event>
 7    1  0.5753610E-013  0.5052886E+02  0.7816164E-02  0.1300439E+00
        -11   -1    0    0    0    0  0.00000000000E+00  0.00000000000E+00  0.45593999997E+02  0.45594000000E+02  0.51100000000E-03 0.  1.
         11   -1    0    0    0    0 -0.00000000000E+00 -0.00000000000E+00 -0.45593999997E+02  0.45594000000E+02  0.51100000000E-03 0. -1.
    9900012    2    1    2    0    0 -0.25608481239E+02  0.13292092772E+02  0.28647710647E+02  0.50528863672E+02  0.30000011618E+02 0.  0.
        -12    1    1    2    0    0  0.25608481239E+02 -0.13292092772E+02 -0.28647710647E+02  0.40659136328E+02  0.00000000000E+00 0.  1.
         11    1    3    3    0    0 -0.82455803425E+01 -0.30414988897E+01  0.28993261764E+01  0.92545341978E+01  0.51100000000E-03 0. -1.
        -11    1    3    3    0    0 -0.13211810271E+02 -0.15626718708E+01  0.70313443783E+01  0.15047713383E+02  0.51100000000E-03 0.  1.
        -12    1    3    3    0    0 -0.41510906248E+01  0.17896263532E+02  0.18717040093E+02  0.26226616091E+02  0.00000000000E+00 0.  1.
</event>
<event>
 7    1  0.5753610E-013  0.5052887E+02  0.7816164E-02  0.1300439E+00
        -11   -1    0    0    0    0  0.00000000000E+00  0.00000000000E+00  0.45593999997E+02  0.45594000000E+02  0.51100000000E-03 0.  1.
         11   -1    0    0    0    0 -0.00000000000E+00 -0.00000000000E+00 -0.45593999997E+02  0.45594000000E+02  0.51100000000E-03 0. -1.
    9900012    2    1    2    0    0 -0.13553566758E+02 -0.24477790654E+02 -0.29500900330E+02  0.50528873995E+02  0.30000042996E+02 0.  0.
        -12    1    1    2    0    0  0.13553566758E+02  0.24477790654E+02  0.29500900330E+02  0.40659126005E+02  0.00000000000E+00 0.  1.
         11    1    3    3    0    0  0.39221168493E+00  0.29824563823E+01 -0.65409045245E+01  0.71994658370E+01  0.51100000000E-03 0. -1.
        -11    1    3    3    0    0 -0.43676102800E+01 -0.22570108038E+02 -0.23078346267E+02  0.32574466428E+02  0.51100000000E-03 0.  1.
        -12    1    3    3    0    0 -0.95781681632E+01 -0.48901389984E+01  0.11835046104E+00  0.10754941730E+02  0.00000000000E+00 0.  1.
</event>
<event>
 7    1  0.5753610E-013  0.5052887E+02  0.7816164E-02  0.1300439E+00
        -11   -1    0    0    0    0  0.00000000000E+00  0.00000000000E+00  0.45593999997E+02  0.45594000000E+02  0.51100000000E-03 0.  1.
         11   -1    0    0    0    0 -0.00000000000E+00 -0.00000000000E+00 -0.45593999997E+02  0.45594000000E+02  0.51100000000E-03 0. -1.
    9900012    2    1    2    0    0 -0.19302304714E+02  0.31503791001E+02 -0.16973422199E+02  0.50528869711E+02  0.30000029974E+02 0.  0.
        -12    1    1    2    0    0  0.19302304714E+02 -0.31503791001E+02  0.16973422199E+02  0.40659130289E+02  0.00000000000E+00 0.  1.
         11    1    3    3    0    0 -0.12693883256E+01  0.51848292319E+01  0.28989201741E+01  0.60743344756E+01  0.51100000000E-03 0.  1.
        -11    1    3    3    0    0  0.34821721208E+01  0.70954766146E+01 -0.12308077581E+02  0.14627374511E+02  0.51100000000E-03 0. -1.
         12    1    3    3    0    0 -0.21515088510E+02  0.19223485154E+02 -0.75642647915E+01  0.29827160725E+02  0.00000000000E+00 0. -1.
</event>
<event>
 7    1  0.5753610E-013  0.5052885E+02  0.7816164E-02  0.1300439E+00
        -11   -1    0    0    0    0  0.00000000000E+00  0.00000000000E+00  0.45593999997E+02  0.45594000000E+02  0.51100000000E-03 0.  1.
         11   -1    0    0    0    0 -0.00000000000E+00 -0.00000000000E+00 -0.45593999997E+02  0.45594000000E+02  0.51100000000E-03 0. -1.
    9900012    2    1    2    0    0  0.92695060099E+00  0.33911512703E+02 -0.22412418487E+02  0.50528850554E+02  0.29999971744E+02 0.  0.
        -12    1    1    2    0    0 -0.92695060099E+00 -0.33911512703E+02  0.22412418487E+02  0.40659149446E+02  0.00000000000E+00 0.  1.
         11    1    3    3    0    0 -0.62531401045E+01  0.15644225435E+02 -0.10269328756E+02  0.19730754268E+02  0.51100000000E-03 0. -1.
        -11    1    3    3    0    0  0.56628567760E+01  0.16669024351E+02 -0.17611957335E+02  0.24901914808E+02  0.51100000000E-03 0.  1.
        -12    1    3    3    0    0  0.15172339294E+01  0.15982629166E+01  0.54688676038E+01  0.58961814774E+01  0.00000000000E+00 0.  1.
</event>
<event>
 7    1  0.5753610E-013  0.5052888E+02  0.7816164E-02  0.1300439E+00
        -11   -1    0    0    0    0  0.00000000000E+00  0.00000000000E+00  0.45593999997E+02  0.45594000000E+02  0.51100000000E-03 0.  1.
         11   -1    0    0    0    0 -0.00000000000E+00 -0.00000000000E+00 -0.45593999997E+02  0.45594000000E+02  0.51100000000E-03 0. -1.
    9900012    2    1    2    0    0  0.15560144281E+02 -0.22284096524E+02 -0.30240128654E+02  0.50528875207E+02  0.30000046678E+02 0.  0.
        -12    1    1    2    0    0 -0.15560144281E+02  0.22284096524E+02  0.30240128654E+02  0.40659124793E+02  0.00000000000E+00 0.  1.
         11    1    3    3    0    0  0.17347844814E+02 -0.95058947988E+01 -0.21677754618E+02  0.29346802230E+02  0.51100000000E-03 0. -1.
        -11    1    3    3    0    0  0.16119122556E+01  0.26604327155E+00  0.30043294007E+01  0.34198005134E+01  0.51100000000E-03 0.  1.
        -12    1    3    3    0    0 -0.33996127884E+01 -0.13044244997E+02 -0.11566703437E+02  0.17762272463E+02  0.00000000000E+00 0.  1.
</event>
<event>
 7    1  0.5753610E-013  0.5052886E+02  0.7816164E-02  0.1300439E+00
        -11   -1    0    0    0    0  0.00000000000E+00  0.00000000000E+00  0.45593999997E+02  0.45594000000E+02  0.51100000000E-03 0. -1.
         11   -1    0    0    0    0 -0.00000000000E+00 -0.00000000000E+00 -0.45593999997E+02  0.45594000000E+02  0.51100000000E-03 0.  1.
    9900012    2    1    2    0    0 -0.37449701551E+02  0.12533624816E+02  0.96743842348E+01  0.50528860712E+02  0.30000002621E+02 0.  0.
        -12    1    1    2    0    0  0.37449701551E+02 -0.12533624816E+02 -0.96743842348E+01  0.40659139288E+02  0.00000000000E+00 0.  1.
         11    1    3    3    0    0 -0.83509028832E+01  0.89837955457E+01  0.77647044159E+01  0.14516776374E+02  0.51100000000E-03 0. -1.
        -11    1    3    3    0    0 -0.18007664192E+02  0.79511018001E+01 -0.72413719798E+01  0.20974590768E+02  0.51100000000E-03 0.  1.
         12    1    3    3    0    0 -0.11091134476E+02 -0.44012725297E+01  0.91510517987E+01  0.15037493570E+02  0.00000000000E+00 0. -1.
</event>
<event>
 7    1  0.5753610E-013  0.5052886E+02  0.7816164E-02  0.1300439E+00
        -11   -1    0    0    0    0  0.00000000000E+00  0.00000000000E+00  0.45593999997E+02  0.45594000000E+02  0.51100000000E-03 0. -1.
         11   -1    0    0    0    0 -0.00000000000E+00 -0.00000000000E+00 -0.45593999997E+02  0.45594000000E+02  0.51100000000E-03 0.  1.
    9900012    2    1    2    0    0 -0.19424580998E+01  0.40363057334E+02  0.44962431947E+01  0.50528859039E+02  0.29999997534E+02 0.  0.
        -12    1    1    2    0    0  0.19424580998E+01 -0.40363057334E+02 -0.44962431947E+01  0.40659140961E+02  0.00000000000E+00 0.  1.
         11    1    3    3    0    0  0.57001982787E+01  0.11315341995E+02  0.65117437047E+01  0.14245421413E+02  0.51100000000E-03 0. -1.
        -11    1    3    3    0    0  0.13523101468E+00 -0.31075438575E+01  0.26894869443E+00  0.31220906320E+01  0.51100000000E-03 0.  1.
        -12    1    3    3    0    0 -0.77778873932E+01  0.32155259196E+02 -0.22844492044E+01  0.33161346994E+02  0.00000000000E+00 0.  1.
</event>
<event>
 7    1  0.5753610E-013  0.5052885E+02  0.7816164E-02  0.1300439E+00
        -11   -1    0    0    0    0  0.00000000000E+00  0.00000000000E+00  0.45593999997E+02  0.45594000000E+02  0.51100000000E-03 0.  1.
         11   -1    0    0    0    0 -0.00000000000E+00 -0.00000000000E+00 -0.45593999997E+02  0.45594000000E+02  0.51100000000E-03 0. -1.
    9900012    2    1    2    0    0  0.25258198950E+02 -0.74923437125E+00 -0.31853233810E+02  0.50528850102E+02  0.29999970369E+02 0.  0.
        -12    1    1    2    0    0 -0.25258198950E+02  0.74923437125E+00  0.31853233810E+02  0.40659149898E+02  0.00000000000E+00 0.  1.
         11    1    3    3    0    0  0.78493629362E+01  0.80938272054E+01 -0.20503241825E+02  0.23398834649E+02  0.51100000000E-03 0. -1.
        -11    1    3    3    0    0  0.50010046025E+00  0.24622356410E+01  0.16358750332E+01  0.29981314527E+01  0.51100000000E-03 0.  1.
         12    1    3    3    0    0  0.16908735553E+02 -0.11305297218E+02 -0.12985867018E+02  0.24131884000E+02  0.00000000000E+00 0. -1.
</event>
<event>
 7    1  0.5753610E-013  0.5052886E+02  0.7816164E-02  0.1300439E+00
        -11   -1    0    0    0    0  0.00000000000E+00  0.00000000000E+00  0.45593999997E+02  0.45594000000E+02  0.51100000000E-03 0.  1.
         11   -1    0    0    0    0 -0.00000000000E+00 -0.00000000000E+00 -0.45593999997E+02  0.45594000000E+02  0.51100000000E-03 0. -1.
    9900012    2    1    2    0    0  0.10116223828E+02 -0.87258513081E+01 -0.38401653141E+02  0.50528862902E+02  0.30000009277E+02 0.  0.
        -12    1    1    2    0    0 -0.10116223828E+02  0.87258513081E+01  0.38401653141E+02  0.40659137098E+02  0.00000000000E+00 0.  1.
         11    1    3    3    0    0 -0.47841010558E+01 -0.88337120770E+01 -0.19214324864E+02  0.21682074906E+02  0.51100000000E-03 0. -1.
        -11    1    3    3    0    0  0.21536791231E+01  0.10569587941E+01 -0.15299800899E+02  0.15486749287E+02  0.51100000000E-03 0.  1.
        -12    1    3    3    0    0  0.12746645761E+02 -0.94909802518E+00 -0.38875273780E+01  0.13360038710E+02  0.00000000000E+00 0.  1.
</event>
<event>
 7    1  0.5753610E-013  0.5052885E+02  0.7816164E-02  0.1300439E+00
        -11   -1    0    0    0    0  0.00000000000E+00  0.00000000000E+00  0.45593999997E+02  0.45594000000E+02  0.51100000000E-03 0.  1.
         11   -1    0    0    0    0 -0.00000000000E+00 -0.00000000000E+00 -0.45593999997E+02  0.45594000000E+02  0.51100000000E-03 0. -1.
    9900012    2    1    2    0    0  0.99337668704E+01 -0.10674560826E+02 -0.37954449245E+02  0.50528853544E+02  0.29999980832E+02 0.  0.
        -12    1    1    2    0    0 -0.99337668704E+01  0.10674560826E+02  0.37954449245E+02  0.40659146456E+02  0.00000000000E+00 0.  1.
         11    1    3    3    0    0 -0.34272004219E+01 -0.42489827700E+01  0.38413512694E+00  0.54723959440E+01  0.51100000000E-03 0. -1.
        -11    1    3    3    0    0 -0.30684650341E+01  0.33401007823E+01 -0.81223004754E+01  0.93028767688E+01  0.51100000000E-03 0.  1.
         12    1    3    3    0    0  0.16429432326E+02 -0.97656788383E+01 -0.30216283896E+02  0.35753580831E+02  0.00000000000E+00 0. -1.
</event>
<event>
 7    1  0.5753610E-013  0.5052884E+02  0.7816164E-02  0.1300439E+00
        -11   -1    0    0    0    0  0.00000000000E+00  0.00000000000E+00  0.45593999997E+02  0.45594000000E+02  0.51100000000E-03 0. -1.
         11   -1    0    0    0    0 -0.00000000000E+00 -0.00000000000E+00 -0.45593999997E+02  0.45594000000E+02  0.51100000000E-03 0.  1.
    9900012    2    1    2    0    0 -0.22876378851E+02 -0.59055568744E+01 -0.33090229724E+02  0.50528836033E+02  0.29999927605E+02 0.  0.
        -12    1    1    2    0    0  0.22876378851E+02  0.59055568744E+01  0.33090229724E+02  0.40659163967E+02  0.00000000000E+00 0.  1.
         11    1    3    3    0    0 -0.14103067748E+02 -0.74203169271E+01 -0.13993579656E+02  0.21207967726E+02  0.51100000000E-03 0. -1.
        -11    1    3    3    0    0 -0.53470898322E+01  0.94457344521E+01 -0.17413032160E+02  0.20518941451E+02  0.51100000000E-03 0.  1.
         12    1    3    3    0    0 -0.34262212704E+01 -0.79309743994E+01 -0.16836179084E+01  0.88019268561E+01  0.00000000000E+00 0. -1.
</event>
<event>
 7    1  0.5753610E-013  0.5052886E+02  0.7816164E-02  0.1300439E+00
        -11   -1    0    0    0    0  0.00000000000E+00  0.00000000000E+00  0.45593999997E+02  0.45594000000E+02  0.51100000000E-03 0. -1.
         11   -1    0    0    0    0 -0.00000000000E+00 -0.00000000000E+00 -0.45593999997E+02  0.45594000000E+02  0.51100000000E-03 0.  1.
    9900012    2    1    2    0    0 -0.10631741002E+02 -0.29585827220E+02  0.25783913680E+02  0.50528864573E+02  0.30000014355E+02 0.  0.
        -12    1    1    2    0    0  0.10631741002E+02  0.29585827220E+02 -0.25783913680E+02  0.40659135427E+02  0.00000000000E+00 0.  1.
         11    1    3    3    0    0  0.67963862854E+01 -0.26922386674E+01  0.11765549281E+02  0.13851612387E+02  0.51100000000E-03 0. -1.
        -11    1    3    3    0    0 -0.50505432718E+01 -0.13886120570E+01  0.40675595643E+01  0.66318377435E+01  0.51100000000E-03 0.  1.
         12    1    3    3    0    0 -0.12377584016E+02 -0.25504976496E+02  0.99508048343E+01  0.30045414442E+02  0.00000000000E+00 0. -1.
</event>
<event>
 7    1  0.5753610E-013  0.5052888E+02  0.7816164E-02  0.1300439E+00
        -11   -1    0    0    0    0  0.00000000000E+00  0.00000000000E+00  0.45593999997E+02  0.45594000000E+02  0.51100000000E-03 0.  1.
         11   -1    0    0    0    0 -0.00000000000E+00 -0.00000000000E+00 -0.45593999997E+02  0.45594000000E+02  0.51100000000E-03 0. -1.
    9900012    2    1    2    0    0  0.31457510465E+02  0.21473306806E+02  0.14229776236E+02  0.50528875543E+02  0.30000047701E+02 0.  0.
        -12    1    1    2    0    0 -0.31457510465E+02 -0.21473306806E+02 -0.14229776236E+02  0.40659124457E+02  0.00000000000E+00 0.  1.
         11    1    3    3    0    0  0.30479439400E+02  0.18801142865E+02  0.15828705170E+02  0.39153890060E+02  0.51100000000E-03 0. -1.
        -11    1    3    3    0    0  0.55442724440E+01 -0.41882672002E+00 -0.18374265348E+01  0.58558098745E+01  0.51100000000E-03 0.  1.
        -12    1    3    3    0    0 -0.45662013785E+01  0.30909906612E+01  0.23849760001E+00  0.55191756089E+01  0.00000000000E+00 0.  1.
</event>
<event>
 7    1  0.5753610E-013  0.5052886E+02  0.7816164E-02  0.1300439E+00
        -11   -1    0    0    0    0  0.00000000000E+00  0.00000000000E+00  0.45593999997E+02  0.45594000000E+02  0.51100000000E-03 0. -1.
         11   -1    0    0    0    0 -0.00000000000E+00 -0.00000000000E+00 -0.45593999997E+02  0.45594000000E+02  0.51100000000E-03 0.  1.
    9900012    2    1    2    0    0  0.94173912127E+01 -0.30413378443E+02  0.25288437474E+02  0.50528856926E+02  0.29999991114E+02 0.  0.
        -12    1    1    2    0    0 -0.94173912127E+01  0.30413378443E+02 -0.25288437474E+02  0.40659143074E+02  0.00000000000E+00 0.  1.
         11    1    3    3    0    0  0.36326980069E+01  0.17217489859E+01  0.53539794531E+00  0.40555598381E+01  0.51100000000E-03 0. -1.
        -11    1    3    3    0    0  0.10573130683E+02 -0.53322706552E+01  0.50953159429E+01  0.12891332266E+02  0.51100000000E-03 0.  1.
         12    1    3    3    0    0 -0.47884374773E+01 -0.26802856774E+02  0.19657723586E+02  0.33581964822E+02  0.00000000000E+00 0. -1.
</event>
<event>
 7    1  0.5753610E-013  0.5052886E+02  0.7816164E-02  0.1300439E+00
        -11   -1    0    0    0    0  0.00000000000E+00  0.00000000000E+00  0.45593999997E+02  0.45594000000E+02  0.51100000000E-03 0.  1.
         11   -1    0    0    0    0 -0.00000000000E+00 -0.00000000000E+00 -0.45593999997E+02  0.45594000000E+02  0.51100000000E-03 0. -1.
    9900012    2    1    2    0    0 -0.22825430489E+02 -0.23976572093E+02 -0.23606984437E+02  0.50528855880E+02  0.29999987934E+02 0.  0.
        -12    1    1    2    0    0  0.22825430489E+02  0.23976572093E+02  0.23606984437E+02  0.40659144120E+02  0.00000000000E+00 0.  1.
         11    1    3    3    0    0 -0.18327410227E+01 -0.35704888499E+01 -0.13310305960E+02  0.13902214762E+02  0.51100000000E-03 0. -1.
        -11    1    3    3    0    0 -0.16413513345E+02 -0.17796119993E+02 -0.15876404647E+02  0.28951088614E+02  0.51100000000E-03 0.  1.
        -12    1    3    3    0    0 -0.45791761213E+01 -0.26099632500E+01  0.55797261703E+01  0.76755525046E+01  0.00000000000E+00 0.  1.
</event>
<event>
 7    1  0.5753610E-013  0.5052888E+02  0.7816164E-02  0.1300439E+00
        -11   -1    0    0    0    0  0.00000000000E+00  0.00000000000E+00  0.45593999997E+02  0.45594000000E+02  0.51100000000E-03 0.  1.
         11   -1    0    0    0    0 -0.00000000000E+00 -0.00000000000E+00 -0.45593999997E+02  0.45594000000E+02  0.51100000000E-03 0. -1.
    9900012    2    1    2    0    0  0.35496295799E+02 -0.18336740651E+02 -0.75459319823E+01  0.50528878481E+02  0.30000056632E+02 0.  0.
        -12    1    1    2    0    0 -0.35496295799E+02  0.18336740651E+02  0.75459319823E+01  0.40659121519E+02  0.00000000000E+00 0.  1.
         11    1    3    3    0    0  0.21290007468E+02 -0.18352660519E+02 -0.69477249626E+01  0.28954368385E+02  0.51100000000E-03 0. -1.
        -11    1    3    3    0    0  0.14804571093E+02 -0.27756545750E+01  0.45094822667E+01  0.15723072668E+02  0.51100000000E-03 0.  1.
         12    1    3    3    0    0 -0.59828276171E+00  0.27915744426E+01 -0.51076892864E+01  0.58514374284E+01  0.00000000000E+00 0. -1.
</event>
<event>
 7    1  0.5753610E-013  0.5052886E+02  0.7816164E-02  0.1300439E+00
        -11   -1    0    0    0    0  0.00000000000E+00  0.00000000000E+00  0.45593999997E+02  0.45594000000E+02  0.51100000000E-03 0. -1.
         11   -1    0    0    0    0 -0.00000000000E+00 -0.00000000000E+00 -0.45593999997E+02  0.45594000000E+02  0.51100000000E-03 0.  1.
    9900012    2    1    2    0    0 -0.12089774159E+02 -0.20568305803E+02  0.32923364476E+02  0.50528858700E+02  0.29999996505E+02 0.  0.
        -12    1    1    2    0    0  0.12089774159E+02  0.20568305803E+02 -0.32923364476E+02  0.40659141300E+02  0.00000000000E+00 0.  1.
         11    1    3    3    0    0 -0.64574213125E+01 -0.94680222866E+01  0.13095612169E+01  0.11535020020E+02  0.51100000000E-03 0. -1.
        -11    1    3    3    0    0 -0.48681947492E+01 -0.16359766556E+02  0.20507720573E+02  0.26681601999E+02  0.51100000000E-03 0.  1.
        -12    1    3    3    0    0 -0.76415809727E+00  0.52594830402E+01  0.11106082686E+02  0.12312236681E+02  0.00000000000E+00 0.  1.
</event>
<event>
 7    1  0.5753610E-013  0.5052886E+02  0.7816164E-02  0.1300439E+00
        -11   -1    0    0    0    0  0.00000000000E+00  0.00000000000E+00  0.45593999997E+02  0.45594000000E+02  0.51100000000E-03 0. -1.
         11   -1    0    0    0    0 -0.00000000000E+00 -0.00000000000E+00 -0.45593999997E+02  0.45594000000E+02  0.51100000000E-03 0.  1.
    9900012    2    1    2    0    0 -0.32991320121E+02 -0.31183513477E+01  0.23558739537E+02  0.50528861703E+02  0.30000005632E+02 0.  0.
        -12    1    1    2    0    0  0.32991320121E+02  0.31183513477E+01 -0.23558739537E+02  0.40659138297E+02  0.00000000000E+00 0.  1.
         11    1    3    3    0    0 -0.22011011080E+01 -0.76724029520E+01 -0.13722283808E+01  0.80989890811E+01  0.51100000000E-03 0. -1.
        -11    1    3    3    0    0 -0.10757240452E+02  0.57215738059E+01  0.26965270288E+01  0.12479017879E+02  0.51100000000E-03 0.  1.
         12    1    3    3    0    0 -0.20032978562E+02 -0.11675222016E+01  0.22234440889E+02  0.29950854743E+02  0.00000000000E+00 0. -1.
</event>
<event>
 7    1  0.5753610E-013  0.5052886E+02  0.7816164E-02  0.1300439E+00
        -11   -1    0    0    0    0  0.00000000000E+00  0.00000000000E+00  0.45593999997E+02  0.45594000000E+02  0.51100000000E-03 0. -1.
         11   -1    0    0    0    0 -0.00000000000E+00 -0.00000000000E+00 -0.45593999997E+02  0.45594000000E+02  0.51100000000E-03 0.  1.
    9900012    2    1    2    0    0 -0.15951750356E+02 -0.28552795646E+02  0.24154615741E+02  0.50528856622E+02  0.29999990189E+02 0.  0.
        -12    1    1    2    0    0  0.15951750356E+02  0.28552795646E+02 -0.24154615741E+02  0.40659143378E+02  0.00000000000E+00 0.  1.
         11    1    3    3    0    0  0.22780790231E+01 -0.44909559565E+01  0.15646960213E-01  0.50357297909E+01  0.51100000000E-03 0. -1.
        -11    1    3    3    0    0 -0.62760646532E+01 -0.18730522276E+02  0.25586288102E+02  0.32324597312E+02  0.51100000000E-03 0.  1.
        -12    1    3    3    0    0 -0.11953764726E+02 -0.53313174135E+01 -0.14473193212E+01  0.13168529519E+02  0.00000000000E+00 0.  1.
</event>
<event>
 7    1  0.5753610E-013  0.5052887E+02  0.7816164E-02  0.1300439E+00
        -11   -1    0    0    0    0  0.00000000000E+00  0.00000000000E+00  0.45593999997E+02  0.45594000000E+02  0.51100000000E-03 0.  1.
         11   -1    0    0    0    0 -0.00000000000E+00 -0.00000000000E+00 -0.45593999997E+02  0.45594000000E+02  0.51100000000E-03 0. -1.
    9900012    2    1    2    0    0  0.25281621633E+02  0.15352289325E+02 -0.27898233930E+02  0.50528872657E+02  0.30000038928E+02 0.  0.
        -12    1    1    2    0    0 -0.25281621633E+02 -0.15352289325E+02  0.27898233930E+02  0.40659127343E+02  0.00000000000E+00 0.  1.
         11    1    3    3    0    0  0.26590981258E+02  0.62126764048E+01 -0.18657464304E+02  0.33072323881E+02  0.51100000000E-03 0. -1.
        -11    1    3    3    0    0 -0.16108354246E-01 -0.12305351997E+01  0.18473906847E+01  0.22197587616E+01  0.51100000000E-03 0.  1.
        -12    1    3    3    0    0 -0.12932512708E+01  0.10370148120E+02 -0.11088160311E+02  0.15236790015E+02  0.00000000000E+00 0.  1.
</event>
<event>
 7    1  0.5753610E-013  0.5052886E+02  0.7816164E-02  0.1300439E+00
        -11   -1    0    0    0    0  0.00000000000E+00  0.00000000000E+00  0.45593999997E+02  0.45594000000E+02  0.51100000000E-03 0.  1.
         11   -1    0    0    0    0 -0.00000000000E+00 -0.00000000000E+00 -0.45593999997E+02  0.45594000000E+02  0.51100000000E-03 0. -1.
    9900012    2    1    2    0    0  0.27896814130E+02 -0.16971499552E+02 -0.24226052370E+02  0.50528860203E+02  0.30000001072E+02 0.  0.
        -12    1    1    2    0    0 -0.27896814130E+02  0.16971499552E+02  0.24226052370E+02  0.40659139797E+02  0.00000000000E+00 0.  1.
         11    1    3    3    0    0  0.14305709618E+02 -0.40387244957E+01 -0.10504622774E+02  0.18201970308E+02  0.51100000000E-03 0. -1.
        -11    1    3    3    0    0  0.75574430831E+01  0.34125166612E+01  0.23546972567E+01  0.86200240921E+01  0.51100000000E-03 0.  1.
         12    1    3    3    0    0  0.60336614288E+01 -0.16345291718E+02 -0.16076126852E+02  0.23706865802E+02  0.00000000000E+00 0. -1.
</event>
<event>
 7    1  0.5753610E-013  0.5052885E+02  0.7816164E-02  0.1300439E+00
        -11   -1    0    0    0    0  0.00000000000E+00  0.00000000000E+00  0.45593999997E+02  0.45594000000E+02  0.51100000000E-03 0.  1.
         11   -1    0    0    0    0 -0.00000000000E+00 -0.00000000000E+00 -0.45593999997E+02  0.45594000000E+02  0.51100000000E-03 0. -1.
    9900012    2    1    2    0    0 -0.65655566358E+01 -0.37006698288E+02  0.15510133594E+02  0.50528849784E+02  0.29999969405E+02 0.  0.
        -12    1    1    2    0    0  0.65655566358E+01  0.37006698288E+02 -0.15510133594E+02  0.40659150216E+02  0.00000000000E+00 0.  1.
         11    1    3    3    0    0  0.19269601394E+01 -0.23140437120E+02  0.88488150612E+01  0.24849437292E+02  0.51100000000E-03 0. -1.
        -11    1    3    3    0    0 -0.11150035354E+02 -0.17025755388E+02  0.70362408941E+01  0.21533887737E+02  0.51100000000E-03 0.  1.
         12    1    3    3    0    0  0.26575185786E+01  0.31594942192E+01 -0.37492236136E+00  0.41455247549E+01  0.00000000000E+00 0. -1.
</event>
<event>
 7    1  0.5753610E-013  0.5052887E+02  0.7816164E-02  0.1300439E+00
        -11   -1    0    0    0    0  0.00000000000E+00  0.00000000000E+00  0.45593999997E+02  0.45594000000E+02  0.51100000000E-03 0.  1.
         11   -1    0    0    0    0 -0.00000000000E+00 -0.00000000000E+00 -0.45593999997E+02  0.45594000000E+02  0.51100000000E-03 0. -1.
    9900012    2    1    2    0    0  0.29213676060E+02 -0.28141096297E+02  0.27937472900E+01  0.50528865803E+02  0.30000018094E+02 0.  0.
        -12    1    1    2    0    0 -0.29213676060E+02  0.28141096297E+02 -0.27937472900E+01  0.40659134197E+02  0.00000000000E+00 0.  1.
         11    1    3    3    0    0  0.20920255799E+01  0.33862920716E+01 -0.11573798540E+01  0.41452470865E+01  0.51100000000E-03 0. -1.
        -11    1    3    3    0    0  0.90919846156E+01 -0.15313717071E+02  0.11245293414E+02  0.21062543508E+02  0.51100000000E-03 0.  1.
         12    1    3    3    0    0  0.18029665865E+02 -0.16213671297E+02 -0.72941662705E+01  0.25321075208E+02  0.00000000000E+00 0. -1.
</event>
<event>
 7    1  0.5753610E-013  0.5052886E+02  0.7816164E-02  0.1300439E+00
        -11   -1    0    0    0    0  0.00000000000E+00  0.00000000000E+00  0.45593999997E+02  0.45594000000E+02  0.51100000000E-03 0. -1.
         11   -1    0    0    0    0 -0.00000000000E+00 -0.00000000000E+00 -0.45593999997E+02  0.45594000000E+02  0.51100000000E-03 0.  1.
    9900012    2    1    2    0    0  0.21382652895E+02 -0.14313246912E+02  0.31481403368E+02  0.50528860314E+02  0.30000001411E+02 0.  0.
        -12    1    1    2    0    0 -0.21382652895E+02  0.14313246912E+02 -0.31481403368E+02  0.40659139686E+02  0.00000000000E+00 0.  1.
         11    1    3    3    0    0  0.27545773605E+01 -0.15529573703E+02  0.15964030164E+02  0.22441158953E+02  0.51100000000E-03 0. -1.
        -11    1    3    3    0    0  0.12938828566E+02 -0.14698248214E+01  0.19958156096E+01  0.13174101483E+02  0.51100000000E-03 0.  1.
        -12    1    3    3    0    0  0.56892469682E+01  0.26861516125E+01  0.13521557594E+02  0.14913599878E+02  0.00000000000E+00 0.  1.
</event>
<event>
 7    1  0.5753610E-013  0.5052886E+02  0.7816164E-02  0.1300439E+00
        -11   -1    0    0    0    0  0.00000000000E+00  0.00000000000E+00  0.45593999997E+02  0.45594000000E+02  0.51100000000E-03 0. -1.
         11   -1    0    0    0    0 -0.00000000000E+00 -0.00000000000E+00 -0.45593999997E+02  0.45594000000E+02  0.51100000000E-03 0.  1.
    9900012    2    1    2    0    0  0.37883170204E+02 -0.11292271249E+02  0.95139926937E+01  0.50528855498E+02  0.29999986770E+02 0.  0.
        -12    1    1    2    0    0 -0.37883170204E+02  0.11292271249E+02 -0.95139926937E+01  0.40659144502E+02  0.00000000000E+00 0.  1.
         11    1    3    3    0    0  0.80466388070E+01  0.14212907217E+00  0.81868749041E+01  0.11480135788E+02  0.51100000000E-03 0. -1.
        -11    1    3    3    0    0  0.16746477963E+02  0.54445180594E+01  0.16490906191E+01  0.17686345049E+02  0.51100000000E-03 0.  1.
        -12    1    3    3    0    0  0.13090053434E+02 -0.16878918381E+02 -0.32197282946E+00  0.21362374660E+02  0.00000000000E+00 0.  1.
</event>
<event>
 7    1  0.5753610E-013  0.5052882E+02  0.7816164E-02  0.1300439E+00
        -11   -1    0    0    0    0  0.00000000000E+00  0.00000000000E+00  0.45593999997E+02  0.45594000000E+02  0.51100000000E-03 0.  1.
         11   -1    0    0    0    0 -0.00000000000E+00 -0.00000000000E+00 -0.45593999997E+02  0.45594000000E+02  0.51100000000E-03 0. -1.
    9900012    2    1    2    0    0 -0.13836421888E+02  0.61715910561E+01 -0.37731069484E+02  0.50528822546E+02  0.29999886612E+02 0.  0.
        -12    1    1    2    0    0  0.13836421888E+02 -0.61715910561E+01  0.37731069484E+02  0.40659177454E+02  0.00000000000E+00 0.  1.
         11    1    3    3    0    0  0.41301202199E+00 -0.12379508951E+01 -0.13524577290E+02  0.13587394617E+02  0.51100000000E-03 0. -1.
        -11    1    3    3    0    0 -0.15052371027E+02 -0.10526338550E+01 -0.49301435366E+01  0.15874137051E+02  0.51100000000E-03 0.  1.
         12    1    3    3    0    0  0.80293711719E+00  0.84621758062E+01 -0.19276348657E+02  0.21067290878E+02  0.00000000000E+00 0. -1.
</event>
<event>
 7    1  0.5753610E-013  0.5052888E+02  0.7816164E-02  0.1300439E+00
        -11   -1    0    0    0    0  0.00000000000E+00  0.00000000000E+00  0.45593999997E+02  0.45594000000E+02  0.51100000000E-03 0.  1.
         11   -1    0    0    0    0 -0.00000000000E+00 -0.00000000000E+00 -0.45593999997E+02  0.45594000000E+02  0.51100000000E-03 0. -1.
    9900012    2    1    2    0    0 -0.33265619099E+02  0.11108016226E+02 -0.20571198433E+02  0.50528884866E+02  0.30000076038E+02 0.  0.
        -12    1    1    2    0    0  0.33265619099E+02 -0.11108016226E+02  0.20571198433E+02  0.40659115134E+02  0.00000000000E+00 0.  1.
         11    1    3    3    0    0 -0.23379805840E+02 -0.27081214398E+01 -0.19174259549E+02  0.30357889787E+02  0.51100000000E-03 0. -1.
        -11    1    3    3    0    0 -0.17148256939E+01  0.35401998722E+01 -0.51836405156E+01  0.65072091984E+01  0.51100000000E-03 0.  1.
         12    1    3    3    0    0 -0.81709875655E+01  0.10275937794E+02  0.37867016309E+01  0.13663785880E+02  0.00000000000E+00 0. -1.
</event>
<event>
 7    1  0.5753610E-013  0.5052893E+02  0.7816164E-02  0.1300439E+00
        -11   -1    0    0    0    0  0.00000000000E+00  0.00000000000E+00  0.45593999997E+02  0.45594000000E+02  0.51100000000E-03 0.  1.
         11   -1    0    0    0    0 -0.00000000000E+00 -0.00000000000E+00 -0.45593999997E+02  0.45594000000E+02  0.51100000000E-03 0. -1.
    9900012    2    1    2    0    0  0.34280601596E+02  0.59494164885E+01  0.21038180882E+02  0.50528926509E+02  0.30000202615E+02 0.  0.
        -12    1    1    2    0    0 -0.34280601596E+02 -0.59494164885E+01 -0.21038180882E+02  0.40659073491E+02  0.00000000000E+00 0.  1.
         11    1    3    3    0    0  0.70590866800E+01 -0.56768893905E+01  0.11790086859E+02  0.14868218666E+02  0.51100000000E-03 0. -1.
        -11    1    3    3    0    0  0.10660500324E+02 -0.14733438162E+01  0.97750853140E+01  0.14538545399E+02  0.51100000000E-03 0.  1.
         12    1    3    3    0    0  0.16561014592E+02  0.13099649695E+02 -0.52699129101E+00  0.21122162443E+02  0.00000000000E+00 0. -1.
</event>
<event>
 7    1  0.5753610E-013  0.5052886E+02  0.7816164E-02  0.1300439E+00
        -11   -1    0    0    0    0  0.00000000000E+00  0.00000000000E+00  0.45593999997E+02  0.45594000000E+02  0.51100000000E-03 0.  1.
         11   -1    0    0    0    0 -0.00000000000E+00 -0.00000000000E+00 -0.45593999997E+02  0.45594000000E+02  0.51100000000E-03 0. -1.
    9900012    2    1    2    0    0  0.91429076152E+01  0.36410995707E+02 -0.15614494531E+02  0.50528858255E+02  0.29999995151E+02 0.  0.
        -12    1    1    2    0    0 -0.91429076152E+01 -0.36410995707E+02  0.15614494531E+02  0.40659141745E+02  0.00000000000E+00 0.  1.
         11    1    3    3    0    0  0.33445849551E+01  0.25401759930E+02 -0.17236180249E+02  0.30879144514E+02  0.51100000000E-03 0. -1.
        -11    1    3    3    0    0  0.88050993644E+01  0.98923143812E+01 -0.34166424865E+01  0.13677028361E+02  0.51100000000E-03 0.  1.
        -12    1    3    3    0    0 -0.30067767044E+01  0.11169213952E+01  0.50383282049E+01  0.59726853804E+01  0.00000000000E+00 0.  1.
</event>
<event>
 7    1  0.5753610E-013  0.5052886E+02  0.7816164E-02  0.1300439E+00
        -11   -1    0    0    0    0  0.00000000000E+00  0.00000000000E+00  0.45593999997E+02  0.45594000000E+02  0.51100000000E-03 0.  1.
         11   -1    0    0    0    0 -0.00000000000E+00 -0.00000000000E+00 -0.45593999997E+02  0.45594000000E+02  0.51100000000E-03 0. -1.
    9900012    2    1    2    0    0  0.37746777382E+02  0.15056583417E+02  0.12828771465E+01  0.50528859814E+02  0.29999999891E+02 0.  0.
        -12    1    1    2    0    0 -0.37746777382E+02 -0.15056583417E+02 -0.12828771465E+01  0.40659140186E+02  0.00000000000E+00 0.  1.
         11    1    3    3    0    0  0.13630904366E+01 -0.21348579527E+01 -0.45941399697E+01  0.52461182163E+01  0.51100000000E-03 0. -1.
        -11    1    3    3    0    0  0.37789238873E+01  0.36110031849E+01  0.83775816508E+01  0.98743852631E+01  0.51100000000E-03 0.  1.
         12    1    3    3    0    0  0.32604763058E+02  0.13580438185E+02 -0.25005645345E+01  0.35408356335E+02  0.00000000000E+00 0. -1.
</event>
<event>
 7    1  0.5753610E-013  0.5052886E+02  0.7816164E-02  0.1300439E+00
        -11   -1    0    0    0    0  0.00000000000E+00  0.00000000000E+00  0.45593999997E+02  0.45594000000E+02  0.51100000000E-03 0.  1.
         11   -1    0    0    0    0 -0.00000000000E+00 -0.00000000000E+00 -0.45593999997E+02  0.45594000000E+02  0.51100000000E-03 0. -1.
    9900012    2    1    2    0    0  0.34867137257E+02  0.77099328322E+01 -0.19442358491E+02  0.50528860455E+02  0.30000001840E+02 0.  0.
        -12    1    1    2    0    0 -0.34867137257E+02 -0.77099328322E+01  0.19442358491E+02  0.40659139545E+02  0.00000000000E+00 0.  1.
         11    1    3    3    0    0  0.21895769403E+02  0.11319537543E+02 -0.12984563973E+02  0.27859568370E+02  0.51100000000E-03 0. -1.
        -11    1    3    3    0    0  0.10295548800E+02  0.25548717999E+01  0.30396857586E+01  0.11034735374E+02  0.51100000000E-03 0.  1.
        -12    1    3    3    0    0  0.26758190545E+01 -0.61644765102E+01 -0.94974802768E+01  0.11634556711E+02  0.00000000000E+00 0.  1.
</event>
<event>
 7    1  0.5753610E-013  0.5052886E+02  0.7816164E-02  0.1300439E+00
        -11   -1    0    0    0    0  0.00000000000E+00  0.00000000000E+00  0.45593999997E+02  0.45594000000E+02  0.51100000000E-03 0.  1.
         11   -1    0    0    0    0 -0.00000000000E+00 -0.00000000000E+00 -0.45593999997E+02  0.45594000000E+02  0.51100000000E-03 0. -1.
    9900012    2    1    2    0    0 -0.24852615652E+02  0.28704314806E+02 -0.14545638387E+02  0.50528858478E+02  0.29999995829E+02 0.  0.
        -12    1    1    2    0    0  0.24852615652E+02 -0.28704314806E+02  0.14545638387E+02  0.40659141522E+02  0.00000000000E+00 0.  1.
         11    1    3    3    0    0  0.80221021900E+00  0.76495164200E+00  0.36307463702E+01  0.37961838359E+01  0.51100000000E-03 0. -1.
        -11    1    3    3    0    0 -0.72902509347E+01  0.91735632440E+00 -0.11086649395E+02  0.13300492336E+02  0.51100000000E-03 0.  1.
         12    1    3    3    0    0 -0.18364574936E+02  0.27022006840E+02 -0.70897353622E+01  0.33432182306E+02  0.00000000000E+00 0. -1.
</event>
<event>
 7    1  0.5753610E-013  0.5052886E+02  0.7816164E-02  0.1300439E+00
        -11   -1    0    0    0    0  0.00000000000E+00  0.00000000000E+00  0.45593999997E+02  0.45594000000E+02  0.51100000000E-03 0. -1.
         11   -1    0    0    0    0 -0.00000000000E+00 -0.00000000000E+00 -0.45593999997E+02  0.45594000000E+02  0.51100000000E-03 0.  1.
    9900012    2    1    2    0    0 -0.32575264180E+02  0.23928559275E+02  0.44093352152E+01  0.50528855611E+02  0.29999987115E+02 0.  0.
        -12    1    1    2    0    0  0.32575264180E+02 -0.23928559275E+02 -0.44093352152E+01  0.40659144389E+02  0.00000000000E+00 0.  1.
         11    1    3    3    0    0  0.11542045664E+01  0.30992517118E+01 -0.12070508817E+01  0.35205853840E+01  0.51100000000E-03 0. -1.
        -11    1    3    3    0    0 -0.32052919485E+02  0.14086911501E+02 -0.38968955758E+01  0.35228064360E+02  0.51100000000E-03 0.  1.
         12    1    3    3    0    0 -0.16765492616E+01  0.67423960623E+01  0.95132816727E+01  0.11780205867E+02  0.00000000000E+00 0. -1.
</event>
<event>
 7    1  0.5753610E-013  0.5052888E+02  0.7816164E-02  0.1300439E+00
        -11   -1    0    0    0    0  0.00000000000E+00  0.00000000000E+00  0.45593999997E+02  0.45594000000E+02  0.51100000000E-03 0.  1.
         11   -1    0    0    0    0 -0.00000000000E+00 -0.00000000000E+00 -0.45593999997E+02  0.45594000000E+02  0.51100000000E-03 0. -1.
    9900012    2    1    2    0    0  0.32909824560E+02  0.15067917891E+02 -0.18522020605E+02  0.50528881103E+02  0.30000064602E+02 0.  0.
        -12    1    1    2    0    0 -0.32909824560E+02 -0.15067917891E+02  0.18522020605E+02  0.40659118897E+02  0.00000000000E+00 0.  1.
         11    1    3    3    0    0  0.98620754962E+01  0.67857452883E+01 -0.79771022397E+01  0.14385445166E+02  0.51100000000E-03 0. -1.
        -11    1    3    3    0    0 -0.31317922956E+01  0.22319634342E+01 -0.83394947632E+01  0.91835154991E+01  0.51100000000E-03 0.  1.
        -12    1    3    3    0    0  0.26179541360E+02  0.60502091684E+01 -0.22054236017E+01  0.26959920439E+02  0.00000000000E+00 0.  1.
</event>
<event>
 7    1  0.5753610E-013  0.5052886E+02  0.7816164E-02  0.1300439E+00
        -11   -1    0    0    0    0  0.00000000000E+00  0.00000000000E+00  0.45593999997E+02  0.45594000000E+02  0.51100000000E-03 0. -1.
         11   -1    0    0    0    0 -0.00000000000E+00 -0.00000000000E+00 -0.45593999997E+02  0.45594000000E+02  0.51100000000E-03 0.  1.
    9900012    2    1    2    0    0 -0.35758605631E+02 -0.16754351079E+02  0.96839877652E+01  0.50528858644E+02  0.29999996334E+02 0.  0.
        -12    1    1    2    0    0  0.35758605631E+02  0.16754351079E+02 -0.96839877652E+01  0.40659141356E+02  0.00000000000E+00 0.  1.
         11    1    3    3    0    0 -0.12851746615E+02 -0.26266383206E+01  0.13425697996E+01  0.13185943798E+02  0.51100000000E-03 0. -1.
        -11    1    3    3    0    0 -0.21094358567E+02 -0.16745437075E+02  0.14368892620E+02  0.30526164213E+02  0.51100000000E-03 0.  1.
        -12    1    3    3    0    0 -0.18125004495E+01  0.26177243169E+01 -0.60274746543E+01  0.68167506326E+01  0.00000000000E+00 0.  1.
</event>
<event>
 7    1  0.5753610E-013  0.5052882E+02  0.7816164E-02  0.1300439E+00
        -11   -1    0    0    0    0  0.00000000000E+00  0.00000000000E+00  0.45593999997E+02  0.45594000000E+02  0.51100000000E-03 0.  1.
         11   -1    0    0    0    0 -0.00000000000E+00 -0.00000000000E+00 -0.45593999997E+02  0.45594000000E+02  0.51100000000E-03 0. -1.
    9900012    2    1    2    0    0 -0.53348843540E+01 -0.43511462791E+01 -0.40072128413E+02  0.50528819726E+02  0.29999878039E+02 0.  0.
        -12    1    1    2    0    0  0.53348843540E+01  0.43511462791E+01  0.40072128413E+02  0.40659180274E+02  0.00000000000E+00 0.  1.
         11    1    3    3    0    0 -0.39406388002E+01 -0.52599700457E+01  0.12646913097E+01  0.66929338414E+01  0.51100000000E-03 0.  1.
        -11    1    3    3    0    0 -0.18097197049E+00  0.59799349840E+01 -0.74720172757E+01  0.95720121028E+01  0.51100000000E-03 0. -1.
         12    1    3    3    0    0 -0.12132735833E+01 -0.50711112174E+01 -0.33864802447E+02  0.34263873782E+02  0.00000000000E+00 0. -1.
</event>
<event>
 7    1  0.5753610E-013  0.5052886E+02  0.7816164E-02  0.1300439E+00
        -11   -1    0    0    0    0  0.00000000000E+00  0.00000000000E+00  0.45593999997E+02  0.45594000000E+02  0.51100000000E-03 0. -1.
         11   -1    0    0    0    0 -0.00000000000E+00 -0.00000000000E+00 -0.45593999997E+02  0.45594000000E+02  0.51100000000E-03 0.  1.
    9900012    2    1    2    0    0  0.39811275472E+02 -0.82533528307E+01 -0.33201982505E+00  0.50528859271E+02  0.29999998240E+02 0.  0.
        -12    1    1    2    0    0 -0.39811275472E+02  0.82533528307E+01  0.33201982505E+00  0.40659140729E+02  0.00000000000E+00 0.  1.
         11    1    3    3    0    0  0.23129007346E+02 -0.30603613983E+01  0.10562926794E+02  0.25610392723E+02  0.51100000000E-03 0. -1.
        -11    1    3    3    0    0  0.15873111886E+02 -0.87335457063E+01 -0.65717851568E+01  0.19272230331E+02  0.51100000000E-03 0.  1.
        -12    1    3    3    0    0  0.80915624071E+00  0.35405542739E+01 -0.43231614621E+01  0.56462362168E+01  0.00000000000E+00 0.  1.
</event>
<event>
 7    1  0.5753610E-013  0.5052894E+02  0.7816164E-02  0.1300438E+00
        -11   -1    0    0    0    0  0.00000000000E+00  0.00000000000E+00  0.45593999997E+02  0.45594000000E+02  0.51100000000E-03 0. -1.
         11   -1    0    0    0    0 -0.00000000000E+00 -0.00000000000E+00 -0.45593999997E+02  0.45594000000E+02  0.51100000000E-03 0.  1.
    9900012    2    1    2    0    0 -0.86811004521E+01 -0.39052743806E+02  0.72581332976E+01  0.50528944394E+02  0.30000256978E+02 0.  0.
        -12    1    1    2    0    0  0.86811004521E+01  0.39052743806E+02 -0.72581332976E+01  0.40659055606E+02  0.00000000000E+00 0.  1.
         11    1    3    3    0    0  0.33354504179E+01 -0.14351450471E+02 -0.50884067806E+01  0.15587855655E+02  0.51100000000E-03 0. -1.
        -11    1    3    3    0    0  0.41221153182E+01 -0.81064439949E+01  0.61472401463E+01  0.10977013739E+02  0.51100000000E-03 0.  1.
         12    1    3    3    0    0 -0.16138666188E+02 -0.16594849340E+02  0.61992999320E+01  0.23964075000E+02  0.00000000000E+00 0. -1.
</event>
<event>
 7    1  0.5753610E-013  0.5052886E+02  0.7816164E-02  0.1300439E+00
        -11   -1    0    0    0    0  0.00000000000E+00  0.00000000000E+00  0.45593999997E+02  0.45594000000E+02  0.51100000000E-03 0.  1.
         11   -1    0    0    0    0 -0.00000000000E+00 -0.00000000000E+00 -0.45593999997E+02  0.45594000000E+02  0.51100000000E-03 0. -1.
    9900012    2    1    2    0    0 -0.22133541574E+02 -0.90786852966E+01 -0.32876273582E+02  0.50528861372E+02  0.30000004625E+02 0.  0.
        -12    1    1    2    0    0  0.22133541574E+02  0.90786852966E+01  0.32876273582E+02  0.40659138628E+02  0.00000000000E+00 0.  1.
         11    1    3    3    0    0 -0.86133862207E+00 -0.60604206534E+01 -0.17923023616E+02  0.18939518962E+02  0.51100000000E-03 0. -1.
        -11    1    3    3    0    0 -0.15239452819E+02 -0.10279123839E+02 -0.96288812737E+01  0.20751305115E+02  0.51100000000E-03 0.  1.
        -12    1    3    3    0    0 -0.60327501329E+01  0.72608591955E+01 -0.53243686929E+01  0.10838037295E+02  0.00000000000E+00 0.  1.
</event>
<event>
 7    1  0.5753610E-013  0.5052885E+02  0.7816164E-02  0.1300439E+00
        -11   -1    0    0    0    0  0.00000000000E+00  0.00000000000E+00  0.45593999997E+02  0.45594000000E+02  0.51100000000E-03 0.  1.
         11   -1    0    0    0    0 -0.00000000000E+00 -0.00000000000E+00 -0.45593999997E+02  0.45594000000E+02  0.51100000000E-03 0. -1.
    9900012    2    1    2    0    0 -0.10327948542E+02  0.38583154939E+02 -0.76052895579E+01  0.50528846106E+02  0.29999958223E+02 0.  0.
        -12    1    1    2    0    0  0.10327948542E+02 -0.38583154939E+02  0.76052895579E+01  0.40659153894E+02  0.00000000000E+00 0.  1.
         11    1    3    3    0    0 -0.58627240162E+01  0.58726757683E-01 -0.69934324762E+01  0.91259563763E+01  0.51100000000E-03 0. -1.
        -11    1    3    3    0    0  0.38814209763E+00  0.46304225514E+01  0.48654198511E+01  0.67278360474E+01  0.51100000000E-03 0.  1.
         12    1    3    3    0    0 -0.48533666233E+01  0.33894005630E+02 -0.54772769328E+01  0.34675053682E+02  0.00000000000E+00 0. -1.
</event>
<event>
 7    1  0.5753610E-013  0.5052886E+02  0.7816164E-02  0.1300439E+00
        -11   -1    0    0    0    0  0.00000000000E+00  0.00000000000E+00  0.45593999997E+02  0.45594000000E+02  0.51100000000E-03 0.  1.
         11   -1    0    0    0    0 -0.00000000000E+00 -0.00000000000E+00 -0.45593999997E+02  0.45594000000E+02  0.51100000000E-03 0. -1.
    9900012    2    1    2    0    0  0.19066854935E+02 -0.25404636113E+02 -0.25381589176E+02  0.50528861270E+02  0.30000004316E+02 0.  0.
        -12    1    1    2    0    0 -0.19066854935E+02  0.25404636113E+02  0.25381589176E+02  0.40659138730E+02  0.00000000000E+00 0.  1.
         11    1    3    3    0    0  0.26920442068E+01 -0.14582448102E+02 -0.99619439410E+01  0.17864356188E+02  0.51100000000E-03 0. -1.
        -11    1    3    3    0    0 -0.19585343588E+00 -0.30425082217E+01 -0.13972630265E+02  0.14301384955E+02  0.51100000000E-03 0.  1.
        -12    1    3    3    0    0  0.16570664165E+02 -0.77796797893E+01 -0.14470149704E+01  0.18363120127E+02  0.00000000000E+00 0.  1.
</event>
<event>
 7    1  0.5753610E-013  0.5052885E+02  0.7816164E-02  0.1300439E+00
        -11   -1    0    0    0    0  0.00000000000E+00  0.00000000000E+00  0.45593999997E+02  0.45594000000E+02  0.51100000000E-03 0.  1.
         11   -1    0    0    0    0 -0.00000000000E+00 -0.00000000000E+00 -0.45593999997E+02  0.45594000000E+02  0.51100000000E-03 0. -1.
    9900012    2    1    2    0    0 -0.23710797709E+02 -0.77298498458E+01 -0.32112516713E+02  0.50528852981E+02  0.29999979122E+02 0.  0.
        -12    1    1    2    0    0  0.23710797709E+02  0.77298498458E+01  0.32112516713E+02  0.40659147019E+02  0.00000000000E+00 0.  1.
         11    1    3    3    0    0 -0.10677486544E+02 -0.54693702080E+01 -0.11376623790E+02  0.16533308758E+02  0.51100000000E-03 0. -1.
        -11    1    3    3    0    0 -0.47496394725E+01 -0.64663171310E+01  0.29535145716E+01  0.85495953673E+01  0.51100000000E-03 0.  1.
        -12    1    3    3    0    0 -0.82836716922E+01  0.42058374932E+01 -0.23689407495E+02  0.25445948856E+02  0.00000000000E+00 0.  1.
</event>
<event>
 7    1  0.5753610E-013  0.5052884E+02  0.7816164E-02  0.1300439E+00
        -11   -1    0    0    0    0  0.00000000000E+00  0.00000000000E+00  0.45593999997E+02  0.45594000000E+02  0.51100000000E-03 0.  1.
         11   -1    0    0    0    0 -0.00000000000E+00 -0.00000000000E+00 -0.45593999997E+02  0.45594000000E+02  0.51100000000E-03 0. -1.
    9900012    2    1    2    0    0 -0.13470254697E+02 -0.78065065401E+01 -0.37560323154E+02  0.50528841359E+02  0.29999943796E+02 0.  0.
        -12    1    1    2    0    0  0.13470254697E+02  0.78065065401E+01  0.37560323154E+02  0.40659158641E+02  0.00000000000E+00 0.  1.
         11    1    3    3    0    0 -0.42837292660E+01 -0.52836207909E+01 -0.16901173157E+02  0.18218579512E+02  0.51100000000E-03 0. -1.
        -11    1    3    3    0    0 -0.13959133134E+02  0.14504190568E+01 -0.21867600466E+02  0.25983707658E+02  0.51100000000E-03 0.  1.
        -12    1    3    3    0    0  0.47726077027E+01 -0.39733048060E+01  0.12084504694E+01  0.63265541887E+01  0.00000000000E+00 0.  1.
</event>
<event>
 7    1  0.5753610E-013  0.5052886E+02  0.7816164E-02  0.1300439E+00
        -11   -1    0    0    0    0  0.00000000000E+00  0.00000000000E+00  0.45593999997E+02  0.45594000000E+02  0.51100000000E-03 0. -1.
         11   -1    0    0    0    0 -0.00000000000E+00 -0.00000000000E+00 -0.45593999997E+02  0.45594000000E+02  0.51100000000E-03 0.  1.
    9900012    2    1    2    0    0  0.29877569571E+02 -0.34149208805E+01  0.27364848059E+02  0.50528858870E+02  0.29999997022E+02 0.  0.
        -12    1    1    2    0    0 -0.29877569571E+02  0.34149208805E+01 -0.27364848059E+02  0.40659141130E+02  0.00000000000E+00 0.  1.
         11    1    3    3    0    0  0.13702661087E+01 -0.62820964136E+01  0.77588804497E+01  0.10076834357E+02  0.51100000000E-03 0. -1.
        -11    1    3    3    0    0  0.38656755988E+01 -0.40561313514E+01 -0.29531363714E+01  0.63337717092E+01  0.51100000000E-03 0.  1.
        -12    1    3    3    0    0  0.24641627864E+02  0.69233068844E+01  0.22559103981E+02  0.34118252804E+02  0.00000000000E+00 0.  1.
</event>
<event>
 7    1  0.5753610E-013  0.5052886E+02  0.7816164E-02  0.1300439E+00
        -11   -1    0    0    0    0  0.00000000000E+00  0.00000000000E+00  0.45593999997E+02  0.45594000000E+02  0.51100000000E-03 0.  1.
         11   -1    0    0    0    0 -0.00000000000E+00 -0.00000000000E+00 -0.45593999997E+02  0.45594000000E+02  0.51100000000E-03 0. -1.
    9900012    2    1    2    0    0  0.34897536689E+02  0.18524157769E+02 -0.96011935156E+01  0.50528863204E+02  0.30000010196E+02 0.  0.
        -12    1    1    2    0    0 -0.34897536689E+02 -0.18524157769E+02  0.96011935156E+01  0.40659136796E+02  0.00000000000E+00 0.  1.
         11    1    3    3    0    0  0.10685686072E+02 -0.29030178928E+01  0.17964519756E+00  0.11074460364E+02  0.51100000000E-03 0. -1.
        -11    1    3    3    0    0  0.10388728845E+02  0.80352024510E+01  0.61197704629E+01  0.14489367006E+02  0.51100000000E-03 0.  1.
         12    1    3    3    0    0  0.13823121772E+02  0.13391973211E+02 -0.15900609176E+02  0.24965035834E+02  0.00000000000E+00 0. -1.
</event>
<event>
 7    1  0.5753610E-013  0.5052887E+02  0.7816164E-02  0.1300439E+00
        -11   -1    0    0    0    0  0.00000000000E+00  0.00000000000E+00  0.45593999997E+02  0.45594000000E+02  0.51100000000E-03 0.  1.
         11   -1    0    0    0    0 -0.00000000000E+00 -0.00000000000E+00 -0.45593999997E+02  0.45594000000E+02  0.51100000000E-03 0. -1.
    9900012    2    1    2    0    0  0.28257790689E+02 -0.74542947003E+01 -0.28268284032E+02  0.50528866632E+02  0.30000020614E+02 0.  0.
        -12    1    1    2    0    0 -0.28257790689E+02  0.74542947003E+01  0.28268284032E+02  0.40659133368E+02  0.00000000000E+00 0.  1.
         11    1    3    3    0    0  0.13497240541E+02 -0.11464713303E+02 -0.96613477736E+01  0.20173170162E+02  0.51100000000E-03 0. -1.
        -11    1    3    3    0    0 -0.24671300291E+01 -0.24658503558E+01  0.83218625930E+00  0.35860399871E+01  0.51100000000E-03 0.  1.
        -12    1    3    3    0    0  0.17227680178E+02  0.64762689585E+01 -0.19439122518E+02  0.26769656483E+02  0.00000000000E+00 0.  1.
</event>
<event>
 7    1  0.5753610E-013  0.5052884E+02  0.7816164E-02  0.1300439E+00
        -11   -1    0    0    0    0  0.00000000000E+00  0.00000000000E+00  0.45593999997E+02  0.45594000000E+02  0.51100000000E-03 0.  1.
         11   -1    0    0    0    0 -0.00000000000E+00 -0.00000000000E+00 -0.45593999997E+02  0.45594000000E+02  0.51100000000E-03 0. -1.
    9900012    2    1    2    0    0  0.13062267477E+00 -0.38569526967E+02 -0.12866300197E+02  0.50528841702E+02  0.29999944838E+02 0.  0.
        -12    1    1    2    0    0 -0.13062267477E+00  0.38569526967E+02  0.12866300197E+02  0.40659158298E+02  0.00000000000E+00 0.  1.
         11    1    3    3    0    0  0.59729849342E+01 -0.64359096057E+01 -0.12738167240E+02  0.15471211535E+02  0.51100000000E-03 0. -1.
        -11    1    3    3    0    0  0.22903511553E+01 -0.33673533689E+01  0.29166801898E+01  0.50091716597E+01  0.51100000000E-03 0.  1.
         12    1    3    3    0    0 -0.81327134147E+01 -0.28766263992E+02 -0.30448131474E+01  0.30048458507E+02  0.00000000000E+00 0. -1.
</event>
<event>
 7    1  0.5753610E-013  0.5052886E+02  0.7816164E-02  0.1300439E+00
        -11   -1    0    0    0    0  0.00000000000E+00  0.00000000000E+00  0.45593999997E+02  0.45594000000E+02  0.51100000000E-03 0. -1.
         11   -1    0    0    0    0 -0.00000000000E+00 -0.00000000000E+00 -0.45593999997E+02  0.45594000000E+02  0.51100000000E-03 0.  1.
    9900012    2    1    2    0    0  0.26675397455E+02  0.43562232913E+01  0.30374534626E+02  0.50528857554E+02  0.29999993021E+02 0.  0.
        -12    1    1    2    0    0 -0.26675397455E+02 -0.43562232913E+01 -0.30374534626E+02  0.40659142446E+02  0.00000000000E+00 0.  1.
         11    1    3    3    0    0  0.97907804959E+01  0.43759378705E-01 -0.14734530747E+01  0.99011293208E+01  0.51100000000E-03 0. -1.
        -11    1    3    3    0    0  0.69245890035E+01 -0.72065122988E+01  0.12301210614E+02  0.15849401730E+02  0.51100000000E-03 0.  1.
         12    1    3    3    0    0  0.99600279552E+01  0.11518976211E+02  0.19546777086E+02  0.24778326503E+02  0.00000000000E+00 0. -1.
</event>
<event>
 7    1  0.5753610E-013  0.5052887E+02  0.7816164E-02  0.1300439E+00
        -11   -1    0    0    0    0  0.00000000000E+00  0.00000000000E+00  0.45593999997E+02  0.45594000000E+02  0.51100000000E-03 0. -1.
         11   -1    0    0    0    0 -0.00000000000E+00 -0.00000000000E+00 -0.45593999997E+02  0.45594000000E+02  0.51100000000E-03 0.  1.
    9900012    2    1    2    0    0 -0.12443930530E+02 -0.37980230000E+02 -0.74709634640E+01  0.50528873436E+02  0.30000041296E+02 0.  0.
        -12    1    1    2    0    0  0.12443930530E+02  0.37980230000E+02  0.74709634640E+01  0.40659126564E+02  0.00000000000E+00 0.  1.
         11    1    3    3    0    0  0.55209557814E+01 -0.38476623778E+01  0.12984198751E+01  0.68535649809E+01  0.51100000000E-03 0. -1.
        -11    1    3    3    0    0 -0.11114785608E+02 -0.77828610276E+01  0.31902089877E+01  0.13938752402E+02  0.51100000000E-03 0.  1.
        -12    1    3    3    0    0 -0.68501007035E+01 -0.26349706594E+02 -0.11959592327E+02  0.29736556053E+02  0.00000000000E+00 0.  1.
</event>
<event>
 7    1  0.5753610E-013  0.5052886E+02  0.7816164E-02  0.1300439E+00
        -11   -1    0    0    0    0  0.00000000000E+00  0.00000000000E+00  0.45593999997E+02  0.45594000000E+02  0.51100000000E-03 0.  1.
         11   -1    0    0    0    0 -0.00000000000E+00 -0.00000000000E+00 -0.45593999997E+02  0.45594000000E+02  0.51100000000E-03 0. -1.
    9900012    2    1    2    0    0  0.12016259748E+02 -0.37613442204E+02 -0.96955750659E+01  0.50528859471E+02  0.29999998847E+02 0.  0.
        -12    1    1    2    0    0 -0.12016259748E+02  0.37613442204E+02  0.96955750659E+01  0.40659140529E+02  0.00000000000E+00 0.  1.
         11    1    3    3    0    0 -0.23740705395E+01 -0.67531899563E+00 -0.51614005436E+00  0.25216398413E+01  0.51100000000E-03 0. -1.
        -11    1    3    3    0    0  0.80168561360E+01 -0.84922920224E+01 -0.14243869997E+02  0.18419469017E+02  0.51100000000E-03 0.  1.
        -12    1    3    3    0    0  0.63734741517E+01 -0.28445831185E+02  0.50644349854E+01  0.29587750613E+02  0.00000000000E+00 0.  1.
</event>
<event>
 7    1  0.5753610E-013  0.5052886E+02  0.7816164E-02  0.1300439E+00
        -11   -1    0    0    0    0  0.00000000000E+00  0.00000000000E+00  0.45593999997E+02  0.45594000000E+02  0.51100000000E-03 0.  1.
         11   -1    0    0    0    0 -0.00000000000E+00 -0.00000000000E+00 -0.45593999997E+02  0.45594000000E+02  0.51100000000E-03 0. -1.
    9900012    2    1    2    0    0  0.46506245928E+01 -0.13200392562E+02 -0.38174423909E+02  0.50528864327E+02  0.30000013608E+02 0.  0.
        -12    1    1    2    0    0 -0.46506245928E+01  0.13200392562E+02  0.38174423909E+02  0.40659135673E+02  0.00000000000E+00 0.  1.
         11    1    3    3    0    0  0.75334797817E+01 -0.96405218944E+01 -0.15239778520E+02  0.19543383270E+02  0.51100000000E-03 0.  1.
        -11    1    3    3    0    0 -0.75951009146E+01 -0.82445213658E+01 -0.21411704086E+02  0.24168549037E+02  0.51100000000E-03 0. -1.
        -12    1    3    3    0    0  0.47122457256E+01  0.46846506987E+01 -0.15229413028E+01  0.68169320196E+01  0.00000000000E+00 0.  1.
</event>
<event>
 7    1  0.5753610E-013  0.5052885E+02  0.7816164E-02  0.1300439E+00
        -11   -1    0    0    0    0  0.00000000000E+00  0.00000000000E+00  0.45593999997E+02  0.45594000000E+02  0.51100000000E-03 0.  1.
         11   -1    0    0    0    0 -0.00000000000E+00 -0.00000000000E+00 -0.45593999997E+02  0.45594000000E+02  0.51100000000E-03 0. -1.
    9900012    2    1    2    0    0 -0.13386434160E+02 -0.21350771849E+02 -0.31907901571E+02  0.50528852681E+02  0.29999978209E+02 0.  0.
        -12    1    1    2    0    0  0.13386434160E+02  0.21350771849E+02  0.31907901571E+02  0.40659147319E+02  0.00000000000E+00 0.  1.
         11    1    3    3    0    0  0.28375725795E+01 -0.16917909072E+01 -0.10284924487E+02  0.10802483353E+02  0.51100000000E-03 0. -1.
        -11    1    3    3    0    0 -0.45181705829E+01  0.34095796963E+01  0.50763688446E+00  0.56830268862E+01  0.51100000000E-03 0.  1.
         12    1    3    3    0    0 -0.11705836157E+02 -0.23068560638E+02 -0.22130613968E+02  0.34043342442E+02  0.00000000000E+00 0. -1.
</event>
<event>
 7    1  0.5753610E-013  0.5052885E+02  0.7816164E-02  0.1300439E+00
        -11   -1    0    0    0    0  0.00000000000E+00  0.00000000000E+00  0.45593999997E+02  0.45594000000E+02  0.51100000000E-03 0. -1.
         11   -1    0    0    0    0 -0.00000000000E+00 -0.00000000000E+00 -0.45593999997E+02  0.45594000000E+02  0.51100000000E-03 0.  1.
    9900012    2    1    2    0    0 -0.25704991820E+02  0.27061478333E+02 -0.16127491907E+02  0.50528853314E+02  0.29999980133E+02 0.  0.
        -12    1    1    2    0    0  0.25704991820E+02 -0.27061478333E+02  0.16127491907E+02  0.40659146686E+02  0.00000000000E+00 0.  1.
         11    1    3    3    0    0  0.22178699035E+01  0.40280909074E+01 -0.65051707041E+00  0.46440968968E+01  0.51100000000E-03 0. -1.
        -11    1    3    3    0    0 -0.16714060793E+02  0.24329341740E+02 -0.39949581056E+01  0.29786513529E+02  0.51100000000E-03 0.  1.
        -12    1    3    3    0    0 -0.11208800930E+02 -0.12959543141E+01 -0.11482016731E+02  0.16098242888E+02  0.00000000000E+00 0.  1.
</event>
<event>
 7    1  0.5753610E-013  0.5052886E+02  0.7816164E-02  0.1300439E+00
        -11   -1    0    0    0    0  0.00000000000E+00  0.00000000000E+00  0.45593999997E+02  0.45594000000E+02  0.51100000000E-03 0.  1.
         11   -1    0    0    0    0 -0.00000000000E+00 -0.00000000000E+00 -0.45593999997E+02  0.45594000000E+02  0.51100000000E-03 0. -1.
    9900012    2    1    2    0    0  0.31006887575E+02 -0.24158366182E+02 -0.10397682585E+02  0.50528861583E+02  0.30000005268E+02 0.  0.
        -12    1    1    2    0    0 -0.31006887575E+02  0.24158366182E+02  0.10397682585E+02  0.40659138417E+02  0.00000000000E+00 0.  1.
         11    1    3    3    0    0  0.17047396399E+02 -0.19722816046E+01 -0.85905738848E+01  0.19191184920E+02  0.51100000000E-03 0. -1.
        -11    1    3    3    0    0  0.34264182927E+01 -0.14716879531E+02 -0.79098637431E+01  0.17055580616E+02  0.51100000000E-03 0.  1.
         12    1    3    3    0    0  0.10533072883E+02 -0.74692050466E+01  0.61027550428E+01  0.14282096047E+02  0.00000000000E+00 0. -1.
</event>
<event>
 7    1  0.5753610E-013  0.5052886E+02  0.7816164E-02  0.1300439E+00
        -11   -1    0    0    0    0  0.00000000000E+00  0.00000000000E+00  0.45593999997E+02  0.45594000000E+02  0.51100000000E-03 0.  1.
         11   -1    0    0    0    0 -0.00000000000E+00 -0.00000000000E+00 -0.45593999997E+02  0.45594000000E+02  0.51100000000E-03 0. -1.
    9900012    2    1    2    0    0 -0.34528583814E+02  0.10270304563E+02 -0.18853731215E+02  0.50528862814E+02  0.30000009009E+02 0.  0.
        -12    1    1    2    0    0  0.34528583814E+02 -0.10270304563E+02  0.18853731215E+02  0.40659137186E+02  0.00000000000E+00 0.  1.
         11    1    3    3    0    0  0.19756294583E+01  0.30921101572E+01  0.47812551782E+01  0.60269941364E+01  0.51100000000E-03 0.  1.
        -11    1    3    3    0    0 -0.14341503646E+02 -0.17678026519E+00 -0.84286722296E+01  0.16635879715E+02  0.51100000000E-03 0. -1.
        -12    1    3    3    0    0 -0.22162709627E+02  0.73549746708E+01 -0.15206314164E+02  0.27865988962E+02  0.00000000000E+00 0.  1.
</event>
<event>
 7    1  0.5753610E-013  0.5052886E+02  0.7816164E-02  0.1300439E+00
        -11   -1    0    0    0    0  0.00000000000E+00  0.00000000000E+00  0.45593999997E+02  0.45594000000E+02  0.51100000000E-03 0.  1.
         11   -1    0    0    0    0 -0.00000000000E+00 -0.00000000000E+00 -0.45593999997E+02  0.45594000000E+02  0.51100000000E-03 0. -1.
    9900012    2    1    2    0    0  0.24254921157E+02  0.58521855709E+01 -0.32103217049E+02  0.50528858086E+02  0.29999994639E+02 0.  0.
        -12    1    1    2    0    0 -0.24254921157E+02 -0.58521855709E+01  0.32103217049E+02  0.40659141914E+02  0.00000000000E+00 0.  1.
         11    1    3    3    0    0 -0.52559237463E+00  0.53622322842E+01 -0.68952912976E+01  0.87507042433E+01  0.51100000000E-03 0. -1.
        -11    1    3    3    0    0  0.15144947140E+02  0.45110617712E+01 -0.15007032585E+01  0.15873601126E+02  0.51100000000E-03 0.  1.
        -12    1    3    3    0    0  0.96355663914E+01 -0.40211084845E+01 -0.23707222493E+02  0.25904552716E+02  0.00000000000E+00 0.  1.
</event>
<event>
 7    1  0.5753610E-013  0.5052886E+02  0.7816164E-02  0.1300439E+00
        -11   -1    0    0    0    0  0.00000000000E+00  0.00000000000E+00  0.45593999997E+02  0.45594000000E+02  0.51100000000E-03 0.  1.
         11   -1    0    0    0    0 -0.00000000000E+00 -0.00000000000E+00 -0.45593999997E+02  0.45594000000E+02  0.51100000000E-03 0. -1.
    9900012    2    1    2    0    0  0.27491908141E+02  0.26335738713E+02 -0.14275498242E+02  0.50528855925E+02  0.29999988071E+02 0.  0.
        -12    1    1    2    0    0 -0.27491908141E+02 -0.26335738713E+02  0.14275498242E+02  0.40659144075E+02  0.00000000000E+00 0.  1.
         11    1    3    3    0    0  0.15079792000E+02  0.92197587819E+01 -0.17412813296E+02  0.24811492214E+02  0.51100000000E-03 0. -1.
        -11    1    3    3    0    0  0.55363587417E+01 -0.11152498063E+01  0.26202093031E+01  0.62257969209E+01  0.51100000000E-03 0.  1.
         12    1    3    3    0    0  0.68757573992E+01  0.18231229738E+02  0.51710575088E+00  0.19491566790E+02  0.00000000000E+00 0. -1.
</event>
<event>
 7    1  0.5753610E-013  0.5052886E+02  0.7816164E-02  0.1300439E+00
        -11   -1    0    0    0    0  0.00000000000E+00  0.00000000000E+00  0.45593999997E+02  0.45594000000E+02  0.51100000000E-03 0. -1.
         11   -1    0    0    0    0 -0.00000000000E+00 -0.00000000000E+00 -0.45593999997E+02  0.45594000000E+02  0.51100000000E-03 0.  1.
    9900012    2    1    2    0    0  0.29912786093E+02 -0.82331665712E+01  0.26279374734E+02  0.50528864003E+02  0.30000012624E+02 0.  0.
        -12    1    1    2    0    0 -0.29912786093E+02  0.82331665712E+01 -0.26279374734E+02  0.40659135997E+02  0.00000000000E+00 0.  1.
         11    1    3    3    0    0  0.18828138287E+02  0.15880825014E+01  0.51878577076E+01  0.19594250821E+02  0.51100000000E-03 0. -1.
        -11    1    3    3    0    0  0.13769751778E+01  0.46965850993E+01  0.27739336951E+01  0.56257160114E+01  0.51100000000E-03 0.  1.
         12    1    3    3    0    0  0.97076726275E+01 -0.14517834172E+02  0.18317583331E+02  0.25308897170E+02  0.00000000000E+00 0. -1.
</event>
<event>
 7    1  0.5753610E-013  0.5052886E+02  0.7816164E-02  0.1300439E+00
        -11   -1    0    0    0    0  0.00000000000E+00  0.00000000000E+00  0.45593999997E+02  0.45594000000E+02  0.51100000000E-03 0.  1.
         11   -1    0    0    0    0 -0.00000000000E+00 -0.00000000000E+00 -0.45593999997E+02  0.45594000000E+02  0.51100000000E-03 0. -1.
    9900012    2    1    2    0    0  0.35710791731E+02 -0.15475953383E+02 -0.11764340170E+02  0.50528862296E+02  0.30000007436E+02 0.  0.
        -12    1    1    2    0    0 -0.35710791731E+02  0.15475953383E+02  0.11764340170E+02  0.40659137704E+02  0.00000000000E+00 0.  1.
         11    1    3    3    0    0  0.15251472564E+02 -0.83222605011E+01  0.66081742538E+01  0.18588582583E+02  0.51100000000E-03 0. -1.
        -11    1    3    3    0    0  0.52329912043E+00  0.16973314049E+01 -0.72331125672E+01  0.74479992977E+01  0.51100000000E-03 0.  1.
        -12    1    3    3    0    0  0.19936020047E+02 -0.88510242867E+01 -0.11139401857E+02  0.24492280416E+02  0.00000000000E+00 0.  1.
</event>
<event>
 7    1  0.5753610E-013  0.5052886E+02  0.7816164E-02  0.1300439E+00
        -11   -1    0    0    0    0  0.00000000000E+00  0.00000000000E+00  0.45593999997E+02  0.45594000000E+02  0.51100000000E-03 0. -1.
         11   -1    0    0    0    0 -0.00000000000E+00 -0.00000000000E+00 -0.45593999997E+02  0.45594000000E+02  0.51100000000E-03 0.  1.
    9900012    2    1    2    0    0  0.19541209594E+02  0.30270484429E+02  0.18841574326E+02  0.50528855604E+02  0.29999987093E+02 0.  0.
        -12    1    1    2    0    0 -0.19541209594E+02 -0.30270484429E+02 -0.18841574326E+02  0.40659144396E+02  0.00000000000E+00 0.  1.
         11    1    3    3    0    0 -0.14983530686E+01  0.95512464319E+01  0.12270643669E+02  0.15621781801E+02  0.51100000000E-03 0. -1.
        -11    1    3    3    0    0  0.15137474126E+01  0.42714041013E+01 -0.51113947489E+01  0.68310087663E+01  0.51100000000E-03 0.  1.
        -12    1    3    3    0    0  0.19525815250E+02  0.16447833896E+02  0.11682325407E+02  0.28076065037E+02  0.00000000000E+00 0.  1.
</event>
<event>
 7    1  0.5753610E-013  0.5052886E+02  0.7816164E-02  0.1300439E+00
        -11   -1    0    0    0    0  0.00000000000E+00  0.00000000000E+00  0.45593999997E+02  0.45594000000E+02  0.51100000000E-03 0. -1.
         11   -1    0    0    0    0 -0.00000000000E+00 -0.00000000000E+00 -0.45593999997E+02  0.45594000000E+02  0.51100000000E-03 0.  1.
    9900012    2    1    2    0    0 -0.22806818672E+02 -0.32731445572E+02  0.78528302504E+01  0.50528862649E+02  0.30000008509E+02 0.  0.
        -12    1    1    2    0    0  0.22806818672E+02  0.32731445572E+02 -0.78528302504E+01  0.40659137351E+02  0.00000000000E+00 0.  1.
         11    1    3    3    0    0 -0.34657089431E+01 -0.57559244118E+01  0.12918420313E+02  0.14561160254E+02  0.51100000000E-03 0. -1.
        -11    1    3    3    0    0 -0.10453909253E+02 -0.11916910345E+02  0.38893105335E+01  0.16322490849E+02  0.51100000000E-03 0.  1.
        -12    1    3    3    0    0 -0.88872004761E+01 -0.15058610815E+02 -0.89549005961E+01  0.19645211546E+02  0.00000000000E+00 0.  1.
</event>
<event>
 7    1  0.5753610E-013  0.5052885E+02  0.7816164E-02  0.1300439E+00
        -11   -1    0    0    0    0  0.00000000000E+00  0.00000000000E+00  0.45593999997E+02  0.45594000000E+02  0.51100000000E-03 0. -1.
         11   -1    0    0    0    0 -0.00000000000E+00 -0.00000000000E+00 -0.45593999997E+02  0.45594000000E+02  0.51100000000E-03 0.  1.
    9900012    2    1    2    0    0 -0.24113949793E+02  0.11909297080E+02  0.30493489251E+02  0.50528845824E+02  0.29999957368E+02 0.  0.
        -12    1    1    2    0    0  0.24113949793E+02 -0.11909297080E+02 -0.30493489251E+02  0.40659154176E+02  0.00000000000E+00 0.  1.
         11    1    3    3    0    0 -0.46439614506E+01  0.68024733432E+01 -0.41504401622E+01  0.92231326208E+01  0.51100000000E-03 0. -1.
        -11    1    3    3    0    0 -0.11638352196E+02  0.63400231184E+01  0.14430147587E+02  0.19592761281E+02  0.51100000000E-03 0.  1.
        -12    1    3    3    0    0 -0.78316361467E+01 -0.12331993819E+01  0.20213781827E+02  0.21712951923E+02  0.00000000000E+00 0.  1.
</event>
<event>
 7    1  0.5753610E-013  0.5052886E+02  0.7816164E-02  0.1300439E+00
        -11   -1    0    0    0    0  0.00000000000E+00  0.00000000000E+00  0.45593999997E+02  0.45594000000E+02  0.51100000000E-03 0.  1.
         11   -1    0    0    0    0 -0.00000000000E+00 -0.00000000000E+00 -0.45593999997E+02  0.45594000000E+02  0.51100000000E-03 0. -1.
    9900012    2    1    2    0    0  0.18611540463E+02  0.35059478841E+02 -0.88095925741E+01  0.50528863065E+02  0.30000009772E+02 0.  0.
        -12    1    1    2    0    0 -0.18611540463E+02 -0.35059478841E+02  0.88095925741E+01  0.40659136935E+02  0.00000000000E+00 0.  1.
         11    1    3    3    0    0  0.30541703952E+01  0.27593958725E+02 -0.96687178855E+01  0.29397935655E+02  0.51100000000E-03 0. -1.
        -11    1    3    3    0    0  0.75725212580E+01  0.95770991496E+01 -0.20382400002E+01  0.12378139153E+02  0.51100000000E-03 0.  1.
        -12    1    3    3    0    0  0.79848488099E+01 -0.21115790345E+01  0.28973653116E+01  0.87527882577E+01  0.00000000000E+00 0.  1.
</event>
<event>
 7    1  0.5753610E-013  0.5052886E+02  0.7816164E-02  0.1300439E+00
        -11   -1    0    0    0    0  0.00000000000E+00  0.00000000000E+00  0.45593999997E+02  0.45594000000E+02  0.51100000000E-03 0. -1.
         11   -1    0    0    0    0 -0.00000000000E+00 -0.00000000000E+00 -0.45593999997E+02  0.45594000000E+02  0.51100000000E-03 0.  1.
    9900012    2    1    2    0    0 -0.21875840521E+02  0.34067262268E+02 -0.37463689581E+01  0.50528855429E+02  0.29999986561E+02 0.  0.
        -12    1    1    2    0    0  0.21875840521E+02 -0.34067262268E+02  0.37463689581E+01  0.40659144571E+02  0.00000000000E+00 0.  1.
         11    1    3    3    0    0 -0.14789729993E+02  0.92949123360E+01 -0.61353620601E+01  0.18514161512E+02  0.51100000000E-03 0. -1.
        -11    1    3    3    0    0 -0.62650994989E+01  0.28344675665E+00  0.40340011006E+01  0.74568746091E+01  0.51100000000E-03 0.  1.
        -12    1    3    3    0    0 -0.82101102835E+00  0.24488903175E+02 -0.16450079986E+01  0.24557819308E+02  0.00000000000E+00 0.  1.
</event>
<event>
 7    1  0.5753610E-013  0.5052883E+02  0.7816164E-02  0.1300439E+00
        -11   -1    0    0    0    0  0.00000000000E+00  0.00000000000E+00  0.45593999997E+02  0.45594000000E+02  0.51100000000E-03 0. -1.
         11   -1    0    0    0    0 -0.00000000000E+00 -0.00000000000E+00 -0.45593999997E+02  0.45594000000E+02  0.51100000000E-03 0.  1.
    9900012    2    1    2    0    0 -0.86583957318E+01 -0.12286366065E+02  0.37778897801E+02  0.50528834652E+02  0.29999923409E+02 0.  0.
        -12    1    1    2    0    0  0.86583957318E+01  0.12286366065E+02 -0.37778897801E+02  0.40659165348E+02  0.00000000000E+00 0.  1.
         11    1    3    3    0    0 -0.54139136885E+00 -0.95457413425E+00  0.17084628579E+02  0.17119837918E+02  0.51100000000E-03 0. -1.
        -11    1    3    3    0    0  0.76386428565E+01 -0.31858528572E+01  0.86350893496E+01  0.11960906799E+02  0.51100000000E-03 0.  1.
         12    1    3    3    0    0 -0.15755647219E+02 -0.81459390734E+01  0.12059179872E+02  0.21448089935E+02  0.00000000000E+00 0. -1.
</event>
<event>
 7    1  0.5753610E-013  0.5052886E+02  0.7816164E-02  0.1300439E+00
        -11   -1    0    0    0    0  0.00000000000E+00  0.00000000000E+00  0.45593999997E+02  0.45594000000E+02  0.51100000000E-03 0. -1.
         11   -1    0    0    0    0 -0.00000000000E+00 -0.00000000000E+00 -0.45593999997E+02  0.45594000000E+02  0.51100000000E-03 0.  1.
    9900012    2    1    2    0    0  0.24616653270E+02 -0.28827520580E+01  0.32231600146E+02  0.50528856802E+02  0.29999990736E+02 0.  0.
        -12    1    1    2    0    0 -0.24616653270E+02  0.28827520580E+01 -0.32231600146E+02  0.40659143198E+02  0.00000000000E+00 0.  1.
         11    1    3    3    0    0  0.17106304567E+02  0.76476178446E+01  0.42169371100E+01  0.19206620564E+02  0.51100000000E-03 0. -1.
        -11    1    3    3    0    0  0.18336415914E+01 -0.36176107413E+01  0.40027834518E+01  0.56983878935E+01  0.51100000000E-03 0.  1.
        -12    1    3    3    0    0  0.56767071110E+01 -0.69127591613E+01  0.24011879584E+02  0.25623848345E+02  0.00000000000E+00 0.  1.
</event>
<event>
 7    1  0.5753610E-013  0.5052887E+02  0.7816164E-02  0.1300439E+00
        -11   -1    0    0    0    0  0.00000000000E+00  0.00000000000E+00  0.45593999997E+02  0.45594000000E+02  0.51100000000E-03 0. -1.
         11   -1    0    0    0    0 -0.00000000000E+00 -0.00000000000E+00 -0.45593999997E+02  0.45594000000E+02  0.51100000000E-03 0.  1.
    9900012    2    1    2    0    0 -0.40174781103E+02  0.53379838921E+01  0.32646011409E+01  0.50528871513E+02  0.30000035452E+02 0.  0.
        -12    1    1    2    0    0  0.40174781103E+02 -0.53379838921E+01 -0.32646011409E+01  0.40659128487E+02  0.00000000000E+00 0.  1.
         11    1    3    3    0    0 -0.22905423906E+01  0.10880669337E+01  0.33850959691E+01  0.42295802483E+01  0.51100000000E-03 0.  1.
        -11    1    3    3    0    0 -0.23177641167E+02  0.14700039686E+02 -0.42978422075E+01  0.27780670703E+02  0.51100000000E-03 0. -1.
        -12    1    3    3    0    0 -0.14706597545E+02 -0.10450122728E+02  0.41773473792E+01  0.18518620562E+02  0.00000000000E+00 0.  1.
</event>
<event>
 7    1  0.5753610E-013  0.5052886E+02  0.7816164E-02  0.1300439E+00
        -11   -1    0    0    0    0  0.00000000000E+00  0.00000000000E+00  0.45593999997E+02  0.45594000000E+02  0.51100000000E-03 0.  1.
         11   -1    0    0    0    0 -0.00000000000E+00 -0.00000000000E+00 -0.45593999997E+02  0.45594000000E+02  0.51100000000E-03 0. -1.
    9900012    2    1    2    0    0  0.16312641568E+01  0.27495696351E+02 -0.29908047789E+02  0.50528860030E+02  0.30000000546E+02 0.  0.
        -12    1    1    2    0    0 -0.16312641568E+01 -0.27495696351E+02  0.29908047789E+02  0.40659139970E+02  0.00000000000E+00 0.  1.
         11    1    3    3    0    0 -0.57570279290E+01  0.16890061202E+02 -0.22245690084E+02  0.28518209369E+02  0.51100000000E-03 0. -1.
        -11    1    3    3    0    0  0.65848572473E+01  0.25394459002E+01 -0.11142105336E+02  0.13189224467E+02  0.51100000000E-03 0.  1.
        -12    1    3    3    0    0  0.80343483850E+00  0.80661892482E+01  0.34797476314E+01  0.88214261945E+01  0.00000000000E+00 0.  1.
</event>
<event>
 7    1  0.5753610E-013  0.5052887E+02  0.7816164E-02  0.1300439E+00
        -11   -1    0    0    0    0  0.00000000000E+00  0.00000000000E+00  0.45593999997E+02  0.45594000000E+02  0.51100000000E-03 0.  1.
         11   -1    0    0    0    0 -0.00000000000E+00 -0.00000000000E+00 -0.45593999997E+02  0.45594000000E+02  0.51100000000E-03 0. -1.
    9900012    2    1    2    0    0  0.68604094985E+01 -0.43107449791E+01 -0.39843653342E+02  0.50528874918E+02  0.30000045802E+02 0.  0.
        -12    1    1    2    0    0 -0.68604094985E+01  0.43107449791E+01  0.39843653342E+02  0.40659125082E+02  0.00000000000E+00 0.  1.
         11    1    3    3    0    0  0.18136821913E+01 -0.71700534451E+01 -0.10391510974E+02  0.12754709329E+02  0.51100000000E-03 0. -1.
        -11    1    3    3    0    0  0.15063304282E+01 -0.10012871749E+02 -0.10447739729E+02  0.14549292001E+02  0.51100000000E-03 0.  1.
         12    1    3    3    0    0  0.35403968790E+01  0.12872180214E+02 -0.19004402639E+02  0.23224873588E+02  0.00000000000E+00 0. -1.
</event>
<event>
 7    1  0.5753610E-013  0.5052886E+02  0.7816164E-02  0.1300439E+00
        -11   -1    0    0    0    0  0.00000000000E+00  0.00000000000E+00  0.45593999997E+02  0.45594000000E+02  0.51100000000E-03 0.  1.
         11   -1    0    0    0    0 -0.00000000000E+00 -0.00000000000E+00 -0.45593999997E+02  0.45594000000E+02  0.51100000000E-03 0. -1.
    9900012    2    1    2    0    0  0.37941163274E+02  0.87316238228E+01 -0.11721444782E+02  0.50528863352E+02  0.30000010646E+02 0.  0.
        -12    1    1    2    0    0 -0.37941163274E+02 -0.87316238228E+01  0.11721444782E+02  0.40659136648E+02  0.00000000000E+00 0.  1.
         11    1    3    3    0    0  0.91225618525E+01  0.39333346638E+01 -0.15919291990E+02  0.18764757234E+02  0.51100000000E-03 0. -1.
        -11    1    3    3    0    0  0.81538254662E+01 -0.26212301600E+01 -0.22966348275E+01  0.88673699075E+01  0.51100000000E-03 0.  1.
        -12    1    3    3    0    0  0.20664775955E+02  0.74195193190E+01  0.64944820353E+01  0.22896736211E+02  0.00000000000E+00 0.  1.
</event>
<event>
 7    1  0.5753610E-013  0.5052887E+02  0.7816164E-02  0.1300439E+00
        -11   -1    0    0    0    0  0.00000000000E+00  0.00000000000E+00  0.45593999997E+02  0.45594000000E+02  0.51100000000E-03 0. -1.
         11   -1    0    0    0    0 -0.00000000000E+00 -0.00000000000E+00 -0.45593999997E+02  0.45594000000E+02  0.51100000000E-03 0.  1.
    9900012    2    1    2    0    0  0.34137170844E+02  0.59928753241E+01  0.21258033027E+02  0.50528868725E+02  0.30000026976E+02 0.  0.
        -12    1    1    2    0    0 -0.34137170844E+02 -0.59928753241E+01 -0.21258033027E+02  0.40659131275E+02  0.00000000000E+00 0.  1.
         11    1    3    3    0    0  0.27576630787E+02  0.10423686227E+02  0.25430718078E+02  0.38933857018E+02  0.51100000000E-03 0. -1.
        -11    1    3    3    0    0  0.64870567490E+01 -0.67868888112E+00 -0.84064082233E+00  0.65764124806E+01  0.51100000000E-03 0.  1.
        -12    1    3    3    0    0  0.73483307973E-01 -0.37521220213E+01 -0.33320442278E+01  0.50185992264E+01  0.00000000000E+00 0.  1.
</event>
<event>
 7    1  0.5753610E-013  0.5052887E+02  0.7816164E-02  0.1300439E+00
        -11   -1    0    0    0    0  0.00000000000E+00  0.00000000000E+00  0.45593999997E+02  0.45594000000E+02  0.51100000000E-03 0.  1.
         11   -1    0    0    0    0 -0.00000000000E+00 -0.00000000000E+00 -0.45593999997E+02  0.45594000000E+02  0.51100000000E-03 0. -1.
    9900012    2    1    2    0    0 -0.27086710663E+02 -0.25778659951E+01 -0.30213073001E+02  0.50528867351E+02  0.30000022799E+02 0.  0.
        -12    1    1    2    0    0  0.27086710663E+02  0.25778659951E+01  0.30213073001E+02  0.40659132649E+02  0.00000000000E+00 0.  1.
         11    1    3    3    0    0 -0.12999387909E+02  0.13908986474E+01 -0.11368741138E+02  0.17325327137E+02  0.51100000000E-03 0. -1.
        -11    1    3    3    0    0 -0.77455206491E+01  0.90999480656E+01 -0.44449600382E+01  0.12749894702E+02  0.51100000000E-03 0.  1.
         12    1    3    3    0    0 -0.63418021053E+01 -0.13068712708E+02 -0.14399371824E+02  0.20453645512E+02  0.00000000000E+00 0. -1.
</event>
<event>
 7    1  0.5753610E-013  0.5052887E+02  0.7816164E-02  0.1300439E+00
        -11   -1    0    0    0    0  0.00000000000E+00  0.00000000000E+00  0.45593999997E+02  0.45594000000E+02  0.51100000000E-03 0.  1.
         11   -1    0    0    0    0 -0.00000000000E+00 -0.00000000000E+00 -0.45593999997E+02  0.45594000000E+02  0.51100000000E-03 0. -1.
    9900012    2    1    2    0    0  0.74731691480E+01 -0.39321859503E+02 -0.71489692910E+01  0.50528872441E+02  0.30000038272E+02 0.  0.
        -12    1    1    2    0    0 -0.74731691480E+01  0.39321859503E+02  0.71489692910E+01  0.40659127559E+02  0.00000000000E+00 0.  1.
         11    1    3    3    0    0  0.12523501922E+02 -0.21499616329E+02 -0.23119164223E+01  0.24988328485E+02  0.51100000000E-03 0. -1.
        -11    1    3    3    0    0  0.31404078683E+01  0.18847108175E+01 -0.14160330756E+01  0.39267602903E+01  0.51100000000E-03 0.  1.
        -12    1    3    3    0    0 -0.81907406427E+01 -0.19706953992E+02 -0.34210197931E+01  0.21613783666E+02  0.00000000000E+00 0.  1.
</event>
<event>
 7    1  0.5753610E-013  0.5052886E+02  0.7816164E-02  0.1300439E+00
        -11   -1    0    0    0    0  0.00000000000E+00  0.00000000000E+00  0.45593999997E+02  0.45594000000E+02  0.51100000000E-03 0.  1.
         11   -1    0    0    0    0 -0.00000000000E+00 -0.00000000000E+00 -0.45593999997E+02  0.45594000000E+02  0.51100000000E-03 0. -1.
    9900012    2    1    2    0    0  0.15139308696E+02  0.28776549147E+02 -0.24410588421E+02  0.50528864794E+02  0.30000015029E+02 0.  0.
        -12    1    1    2    0    0 -0.15139308696E+02 -0.28776549147E+02  0.24410588421E+02  0.40659135206E+02  0.00000000000E+00 0.  1.
         11    1    3    3    0    0  0.15761034716E+02  0.13772537116E+02 -0.23866405311E+02  0.31744263996E+02  0.51100000000E-03 0. -1.
        -11    1    3    3    0    0  0.43061105297E+01  0.42212795028E+01  0.25265058289E+01  0.65379676123E+01  0.51100000000E-03 0.  1.
        -12    1    3    3    0    0 -0.49278365493E+01  0.10782732529E+02 -0.30706889386E+01  0.12246633186E+02  0.00000000000E+00 0.  1.
</event>
<event>
 7    1  0.5753610E-013  0.5052886E+02  0.7816164E-02  0.1300439E+00
        -11   -1    0    0    0    0  0.00000000000E+00  0.00000000000E+00  0.45593999997E+02  0.45594000000E+02  0.51100000000E-03 0.  1.
         11   -1    0    0    0    0 -0.00000000000E+00 -0.00000000000E+00 -0.45593999997E+02  0.45594000000E+02  0.51100000000E-03 0. -1.
    9900012    2    1    2    0    0 -0.27968321126E+02 -0.15462138101E+02 -0.25136839685E+02  0.50528863135E+02  0.30000009985E+02 0.  0.
        -12    1    1    2    0    0  0.27968321126E+02  0.15462138101E+02  0.25136839685E+02  0.40659136865E+02  0.00000000000E+00 0.  1.
         11    1    3    3    0    0 -0.13040027311E+01  0.14974248461E+01 -0.86964727055E+00  0.21677156014E+01  0.51100000000E-03 0. -1.
        -11    1    3    3    0    0 -0.10307646234E+02  0.72317191444E+01 -0.63700788709E+01  0.14111103350E+02  0.51100000000E-03 0.  1.
         12    1    3    3    0    0 -0.16356672161E+02 -0.24191282091E+02 -0.17897113544E+02  0.34250044184E+02  0.00000000000E+00 0. -1.
</event>
<event>
 7    1  0.5753610E-013  0.5052886E+02  0.7816164E-02  0.1300439E+00
        -11   -1    0    0    0    0  0.00000000000E+00  0.00000000000E+00  0.45593999997E+02  0.45594000000E+02  0.51100000000E-03 0.  1.
         11   -1    0    0    0    0 -0.00000000000E+00 -0.00000000000E+00 -0.45593999997E+02  0.45594000000E+02  0.51100000000E-03 0. -1.
    9900012    2    1    2    0    0 -0.29542357355E+01 -0.20817936057E+02 -0.34800163237E+02  0.50528864104E+02  0.30000012931E+02 0.  0.
        -12    1    1    2    0    0  0.29542357355E+01  0.20817936057E+02  0.34800163237E+02  0.40659135896E+02  0.00000000000E+00 0.  1.
         11    1    3    3    0    0  0.43412774745E+01 -0.12901344277E+02 -0.32412076514E+02  0.35154431846E+02  0.51100000000E-03 0. -1.
        -11    1    3    3    0    0  0.59654204406E+00 -0.45348536926E+01 -0.46219163682E+01  0.65025280929E+01  0.51100000000E-03 0.  1.
        -12    1    3    3    0    0 -0.78920552541E+01 -0.33817380880E+01  0.22338296449E+01  0.88719041649E+01  0.00000000000E+00 0.  1.
</event>
<event>
 7    1  0.5753610E-013  0.5052886E+02  0.7816164E-02  0.1300439E+00
        -11   -1    0    0    0    0  0.00000000000E+00  0.00000000000E+00  0.45593999997E+02  0.45594000000E+02  0.51100000000E-03 0.  1.
         11   -1    0    0    0    0 -0.00000000000E+00 -0.00000000000E+00 -0.45593999997E+02  0.45594000000E+02  0.51100000000E-03 0. -1.
    9900012    2    1    2    0    0 -0.32943208211E+02  0.17078371387E+02 -0.16620456341E+02  0.50528864429E+02  0.30000013917E+02 0.  0.
        -12    1    1    2    0    0  0.32943208211E+02 -0.17078371387E+02  0.16620456341E+02  0.40659135571E+02  0.00000000000E+00 0.  1.
         11    1    3    3    0    0 -0.14693025602E+02  0.83346262163E+01 -0.59817799369E+01  0.17920175417E+02  0.51100000000E-03 0.  1.
        -11    1    3    3    0    0 -0.47984020324E+01  0.11632585110E+02  0.33150278791E+01  0.13012728711E+02  0.51100000000E-03 0. -1.
        -12    1    3    3    0    0 -0.13451780577E+02 -0.28888399400E+01 -0.13953704283E+02  0.19595960300E+02  0.00000000000E+00 0.  1.
</event>
<event>
 7    1  0.5753610E-013  0.5052885E+02  0.7816164E-02  0.1300439E+00
        -11   -1    0    0    0    0  0.00000000000E+00  0.00000000000E+00  0.45593999997E+02  0.45594000000E+02  0.51100000000E-03 0. -1.
         11   -1    0    0    0    0 -0.00000000000E+00 -0.00000000000E+00 -0.45593999997E+02  0.45594000000E+02  0.51100000000E-03 0.  1.
    9900012    2    1    2    0    0 -0.10108783800E+02  0.36765304057E+02  0.14117067875E+02  0.50528847307E+02  0.29999961873E+02 0.  0.
        -12    1    1    2    0    0  0.10108783800E+02 -0.36765304057E+02 -0.14117067875E+02  0.40659152693E+02  0.00000000000E+00 0.  1.
         11    1    3    3    0    0 -0.28105291559E+01  0.20252262890E+02  0.15336540352E+02  0.25559004216E+02  0.51100000000E-03 0. -1.
        -11    1    3    3    0    0 -0.24379306051E+01 -0.15336534551E+01  0.45718025971E+01  0.54034227859E+01  0.51100000000E-03 0.  1.
         12    1    3    3    0    0 -0.48603240387E+01  0.18046694623E+02 -0.57912750734E+01  0.19566420305E+02  0.00000000000E+00 0. -1.
</event>
<event>
 7    1  0.5753610E-013  0.5052886E+02  0.7816164E-02  0.1300439E+00
        -11   -1    0    0    0    0  0.00000000000E+00  0.00000000000E+00  0.45593999997E+02  0.45594000000E+02  0.51100000000E-03 0.  1.
         11   -1    0    0    0    0 -0.00000000000E+00 -0.00000000000E+00 -0.45593999997E+02  0.45594000000E+02  0.51100000000E-03 0. -1.
    9900012    2    1    2    0    0  0.14707120548E+02  0.31434491679E+02 -0.21183457543E+02  0.50528861600E+02  0.30000005320E+02 0.  0.
        -12    1    1    2    0    0 -0.14707120548E+02 -0.31434491679E+02  0.21183457543E+02  0.40659138400E+02  0.00000000000E+00 0.  1.
         11    1    3    3    0    0  0.11565298107E+02  0.12044529658E+02 -0.14097526087E+02  0.21853307691E+02  0.51100000000E-03 0. -1.
        -11    1    3    3    0    0 -0.59713965373E+01 -0.37632670323E+00 -0.21425891266E+01  0.63553038338E+01  0.51100000000E-03 0.  1.
         12    1    3    3    0    0  0.91132189780E+01  0.19766288724E+02 -0.49433423296E+01  0.22320250076E+02  0.00000000000E+00 0. -1.
</event>
<event>
 7    1  0.5753610E-013  0.5052886E+02  0.7816164E-02  0.1300439E+00
        -11   -1    0    0    0    0  0.00000000000E+00  0.00000000000E+00  0.45593999997E+02  0.45594000000E+02  0.51100000000E-03 0.  1.
         11   -1    0    0    0    0 -0.00000000000E+00 -0.00000000000E+00 -0.45593999997E+02  0.45594000000E+02  0.51100000000E-03 0. -1.
    9900012    2    1    2    0    0  0.19370059083E+02  0.39584821009E+01 -0.35528820122E+02  0.50528857994E+02  0.29999994358E+02 0.  0.
        -12    1    1    2    0    0 -0.19370059083E+02 -0.39584821009E+01  0.35528820122E+02  0.40659142006E+02  0.00000000000E+00 0.  1.
         11    1    3    3    0    0  0.16424613136E+02  0.38380825194E+01 -0.13688125148E+02  0.21722420777E+02  0.51100000000E-03 0. -1.
        -11    1    3    3    0    0  0.33828012593E+01 -0.86925898029E+01 -0.75016874758E+01  0.11969953095E+02  0.51100000000E-03 0.  1.
         12    1    3    3    0    0 -0.43735531190E+00  0.88129893844E+01 -0.14339007498E+02  0.16836484122E+02  0.00000000000E+00 0. -1.
</event>
<event>
 7    1  0.5753610E-013  0.5052886E+02  0.7816164E-02  0.1300439E+00
        -11   -1    0    0    0    0  0.00000000000E+00  0.00000000000E+00  0.45593999997E+02  0.45594000000E+02  0.51100000000E-03 0. -1.
         11   -1    0    0    0    0 -0.00000000000E+00 -0.00000000000E+00 -0.45593999997E+02  0.45594000000E+02  0.51100000000E-03 0.  1.
    9900012    2    1    2    0    0 -0.25369766247E+02  0.27653542932E+02  0.15646799323E+02  0.50528858283E+02  0.29999995237E+02 0.  0.
        -12    1    1    2    0    0  0.25369766247E+02 -0.27653542932E+02 -0.15646799323E+02  0.40659141717E+02  0.00000000000E+00 0.  1.
         11    1    3    3    0    0 -0.14530420715E+02  0.37718728933E+01  0.15756720529E+02  0.21763143003E+02  0.51100000000E-03 0. -1.
        -11    1    3    3    0    0  0.19897109179E+01  0.17420255047E+01  0.16502386150E+01  0.31171926703E+01  0.51100000000E-03 0.  1.
         12    1    3    3    0    0 -0.12829056449E+02  0.22139644534E+02 -0.17601598207E+01  0.25648522610E+02  0.00000000000E+00 0. -1.
</event>
<event>
 7    1  0.5753610E-013  0.5052886E+02  0.7816164E-02  0.1300439E+00
        -11   -1    0    0    0    0  0.00000000000E+00  0.00000000000E+00  0.45593999997E+02  0.45594000000E+02  0.51100000000E-03 0.  1.
         11   -1    0    0    0    0 -0.00000000000E+00 -0.00000000000E+00 -0.45593999997E+02  0.45594000000E+02  0.51100000000E-03 0. -1.
    9900012    2    1    2    0    0 -0.13368112012E+02 -0.20120373321E+02 -0.32705197518E+02  0.50528858518E+02  0.29999995951E+02 0.  0.
        -12    1    1    2    0    0  0.13368112012E+02  0.20120373321E+02  0.32705197518E+02  0.40659141482E+02  0.00000000000E+00 0.  1.
         11    1    3    3    0    0  0.23649081903E+01 -0.72400523863E+01 -0.91055420159E+01  0.11871059134E+02  0.51100000000E-03 0. -1.
        -11    1    3    3    0    0 -0.52981372458E+01 -0.14522723145E+02 -0.33489116244E+01  0.15817552122E+02  0.51100000000E-03 0.  1.
        -12    1    3    3    0    0 -0.10434882957E+02  0.16424022103E+01 -0.20250743878E+02  0.22840247261E+02  0.00000000000E+00 0.  1.
</event>
<event>
 7    1  0.5753610E-013  0.5052886E+02  0.7816164E-02  0.1300439E+00
        -11   -1    0    0    0    0  0.00000000000E+00  0.00000000000E+00  0.45593999997E+02  0.45594000000E+02  0.51100000000E-03 0. -1.
         11   -1    0    0    0    0 -0.00000000000E+00 -0.00000000000E+00 -0.45593999997E+02  0.45594000000E+02  0.51100000000E-03 0.  1.
    9900012    2    1    2    0    0 -0.20040122491E+02  0.35377158420E+02  0.12645975567E+00  0.50528857862E+02  0.29999993957E+02 0.  0.
        -12    1    1    2    0    0  0.20040122491E+02 -0.35377158420E+02 -0.12645975567E+00  0.40659142138E+02  0.00000000000E+00 0.  1.
         11    1    3    3    0    0 -0.47815396651E+01  0.16238862780E+02 -0.37938107456E+01  0.17348106127E+02  0.51100000000E-03 0. -1.
        -11    1    3    3    0    0 -0.15455932720E+02  0.92698488923E+01 -0.61854124290E+01  0.19054534419E+02  0.51100000000E-03 0.  1.
        -12    1    3    3    0    0  0.19734989379E+00  0.98684467479E+01  0.10105682930E+02  0.14126217317E+02  0.00000000000E+00 0.  1.
</event>
<event>
 7    1  0.5753610E-013  0.5052886E+02  0.7816164E-02  0.1300439E+00
        -11   -1    0    0    0    0  0.00000000000E+00  0.00000000000E+00  0.45593999997E+02  0.45594000000E+02  0.51100000000E-03 0. -1.
         11   -1    0    0    0    0 -0.00000000000E+00 -0.00000000000E+00 -0.45593999997E+02  0.45594000000E+02  0.51100000000E-03 0.  1.
    9900012    2    1    2    0    0  0.38207821869E+02 -0.61546931706E+00  0.13890619431E+02  0.50528858806E+02  0.29999996825E+02 0.  0.
        -12    1    1    2    0    0 -0.38207821869E+02  0.61546931706E+00 -0.13890619431E+02  0.40659141194E+02  0.00000000000E+00 0.  1.
         11    1    3    3    0    0  0.26164057554E+02 -0.20679350375E+01  0.15673711055E+02  0.30569584255E+02  0.51100000000E-03 0. -1.
        -11    1    3    3    0    0 -0.29066642922E+00  0.57107720797E+01  0.24784972600E+01  0.62322029531E+01  0.51100000000E-03 0.  1.
        -12    1    3    3    0    0  0.12334430744E+02 -0.42583063592E+01 -0.42615888835E+01  0.13727071598E+02  0.00000000000E+00 0.  1.
</event>
<event>
 7    1  0.5753610E-013  0.5052886E+02  0.7816164E-02  0.1300439E+00
        -11   -1    0    0    0    0  0.00000000000E+00  0.00000000000E+00  0.45593999997E+02  0.45594000000E+02  0.51100000000E-03 0. -1.
         11   -1    0    0    0    0 -0.00000000000E+00 -0.00000000000E+00 -0.45593999997E+02  0.45594000000E+02  0.51100000000E-03 0.  1.
    9900012    2    1    2    0    0 -0.15513383905E+02 -0.12500823135E+02  0.35443333742E+02  0.50528861224E+02  0.30000004178E+02 0.  0.
        -12    1    1    2    0    0  0.15513383905E+02  0.12500823135E+02 -0.35443333742E+02  0.40659138776E+02  0.00000000000E+00 0.  1.
         11    1    3    3    0    0 -0.21241886081E+01  0.52106040849E+01  0.90722511363E+01  0.10675594275E+02  0.51100000000E-03 0. -1.
        -11    1    3    3    0    0 -0.11797330517E+02 -0.17448827168E+01  0.45420018526E+01  0.12761324543E+02  0.51100000000E-03 0.  1.
         12    1    3    3    0    0 -0.15918647807E+01 -0.15966544503E+02  0.21829080753E+02  0.27091942406E+02  0.00000000000E+00 0. -1.
</event>
<event>
 7    1  0.5753610E-013  0.5052886E+02  0.7816164E-02  0.1300439E+00
        -11   -1    0    0    0    0  0.00000000000E+00  0.00000000000E+00  0.45593999997E+02  0.45594000000E+02  0.51100000000E-03 0. -1.
         11   -1    0    0    0    0 -0.00000000000E+00 -0.00000000000E+00 -0.45593999997E+02  0.45594000000E+02  0.51100000000E-03 0.  1.
    9900012    2    1    2    0    0 -0.12165726385E+02  0.67161299563E+01  0.38210656754E+02  0.50528860934E+02  0.30000003294E+02 0.  0.
        -12    1    1    2    0    0  0.12165726385E+02 -0.67161299563E+01 -0.38210656754E+02  0.40659139066E+02  0.00000000000E+00 0.  1.
         11    1    3    3    0    0  0.15721407529E+01  0.56138996442E+01  0.18119490219E+02  0.19034269668E+02  0.51100000000E-03 0. -1.
        -11    1    3    3    0    0 -0.32045727757E+01  0.87794597897E+01  0.26374222803E+01  0.97110348274E+01  0.51100000000E-03 0.  1.
         12    1    3    3    0    0 -0.10533294362E+02 -0.76772294776E+01  0.17453744255E+02  0.21783556438E+02  0.00000000000E+00 0. -1.
</event>
<event>
 7    1  0.5753610E-013  0.5052886E+02  0.7816164E-02  0.1300439E+00
        -11   -1    0    0    0    0  0.00000000000E+00  0.00000000000E+00  0.45593999997E+02  0.45594000000E+02  0.51100000000E-03 0.  1.
         11   -1    0    0    0    0 -0.00000000000E+00 -0.00000000000E+00 -0.45593999997E+02  0.45594000000E+02  0.51100000000E-03 0. -1.
    9900012    2    1    2    0    0  0.10602394062E+02 -0.36698167147E+02  0.13928373605E+02  0.50528858063E+02  0.29999994569E+02 0.  0.
        -12    1    1    2    0    0 -0.10602394062E+02  0.36698167147E+02 -0.13928373605E+02  0.40659141937E+02  0.00000000000E+00 0.  1.
         11    1    3    3    0    0  0.10614817656E+02 -0.12392956701E+02  0.13754431341E+01  0.16375334309E+02  0.51100000000E-03 0. -1.
        -11    1    3    3    0    0 -0.27452107739E+01 -0.93118099587E+01 -0.49897430480E+01  0.10915288491E+02  0.51100000000E-03 0.  1.
        -12    1    3    3    0    0  0.27327871797E+01 -0.14993400487E+02  0.17542673519E+02  0.23238235263E+02  0.00000000000E+00 0.  1.
</event>
<event>
 7    1  0.5753610E-013  0.5052884E+02  0.7816164E-02  0.1300439E+00
        -11   -1    0    0    0    0  0.00000000000E+00  0.00000000000E+00  0.45593999997E+02  0.45594000000E+02  0.51100000000E-03 0.  1.
         11   -1    0    0    0    0 -0.00000000000E+00 -0.00000000000E+00 -0.45593999997E+02  0.45594000000E+02  0.51100000000E-03 0. -1.
    9900012    2    1    2    0    0  0.72511422387E+01  0.28652784131E+02 -0.27921433779E+02  0.50528836623E+02  0.29999929400E+02 0.  0.
        -12    1    1    2    0    0 -0.72511422387E+01 -0.28652784131E+02  0.27921433779E+02  0.40659163377E+02  0.00000000000E+00 0.  1.
         11    1    3    3    0    0  0.42556685652E+00  0.22364544518E+02 -0.24434720816E+02  0.33127172235E+02  0.51100000000E-03 0. -1.
        -11    1    3    3    0    0 -0.41459049385E+01  0.16001083335E+01 -0.31836682341E+01  0.54666825520E+01  0.51100000000E-03 0.  1.
         12    1    3    3    0    0  0.10971480321E+02  0.46881312800E+01 -0.30304472825E+00  0.11934981836E+02  0.00000000000E+00 0. -1.
</event>
<event>
 7    1  0.5753610E-013  0.5052886E+02  0.7816164E-02  0.1300439E+00
        -11   -1    0    0    0    0  0.00000000000E+00  0.00000000000E+00  0.45593999997E+02  0.45594000000E+02  0.51100000000E-03 0. -1.
         11   -1    0    0    0    0 -0.00000000000E+00 -0.00000000000E+00 -0.45593999997E+02  0.45594000000E+02  0.51100000000E-03 0.  1.
    9900012    2    1    2    0    0  0.20652138145E+01 -0.23653471279E+01  0.40537708882E+02  0.50528858143E+02  0.29999994813E+02 0.  0.
        -12    1    1    2    0    0 -0.20652138145E+01  0.23653471279E+01 -0.40537708882E+02  0.40659141857E+02  0.00000000000E+00 0.  1.
         11    1    3    3    0    0  0.11686803826E+02 -0.17549694725E+00  0.17081901955E+02  0.20697911912E+02  0.51100000000E-03 0. -1.
        -11    1    3    3    0    0 -0.14088523650E+01  0.24783026598E+01 -0.14467002397E+01  0.31968407693E+01  0.51100000000E-03 0.  1.
         12    1    3    3    0    0 -0.82127376467E+01 -0.46681528404E+01  0.24902507167E+02  0.26634105462E+02  0.00000000000E+00 0. -1.
</event>
<event>
 7    1  0.5753610E-013  0.5052886E+02  0.7816164E-02  0.1300439E+00
        -11   -1    0    0    0    0  0.00000000000E+00  0.00000000000E+00  0.45593999997E+02  0.45594000000E+02  0.51100000000E-03 0. -1.
         11   -1    0    0    0    0 -0.00000000000E+00 -0.00000000000E+00 -0.45593999997E+02  0.45594000000E+02  0.51100000000E-03 0.  1.
    9900012    2    1    2    0    0  0.38969618160E+02 -0.66606851144E+01  0.94957590678E+01  0.50528864421E+02  0.30000013895E+02 0.  0.
        -12    1    1    2    0    0 -0.38969618160E+02  0.66606851144E+01 -0.94957590678E+01  0.40659135579E+02  0.00000000000E+00 0.  1.
         11    1    3    3    0    0  0.36968865000E+02 -0.97024031861E+00  0.12562051425E+02  0.39056926171E+02  0.51100000000E-03 0. -1.
        -11    1    3    3    0    0  0.44186482251E+01 -0.66225303035E+01 -0.75047930873E+00  0.79965979774E+01  0.51100000000E-03 0.  1.
        -12    1    3    3    0    0 -0.24178950645E+01  0.93208550767E+00 -0.23158130487E+01  0.34753402730E+01  0.00000000000E+00 0.  1.
</event>
<event>
 7    1  0.5753610E-013  0.5052887E+02  0.7816164E-02  0.1300439E+00
        -11   -1    0    0    0    0  0.00000000000E+00  0.00000000000E+00  0.45593999997E+02  0.45594000000E+02  0.51100000000E-03 0. -1.
         11   -1    0    0    0    0 -0.00000000000E+00 -0.00000000000E+00 -0.45593999997E+02  0.45594000000E+02  0.51100000000E-03 0.  1.
    9900012    2    1    2    0    0  0.44071781683E+01 -0.40070099138E+02 -0.53036939835E+01  0.50528865304E+02  0.30000016578E+02 0.  0.
        -12    1    1    2    0    0 -0.44071781683E+01  0.40070099138E+02  0.53036939835E+01  0.40659134696E+02  0.00000000000E+00 0.  1.
         11    1    3    3    0    0  0.47326725315E+01 -0.18052688127E+02 -0.58514779403E+01  0.19558566722E+02  0.51100000000E-03 0. -1.
        -11    1    3    3    0    0 -0.46036650096E+01 -0.24787658692E+02 -0.19645615415E+01  0.25287966649E+02  0.51100000000E-03 0.  1.
        -12    1    3    3    0    0  0.42781706464E+01  0.27702476802E+01  0.25123454983E+01  0.56823319326E+01  0.00000000000E+00 0.  1.
</event>
<event>
 7    1  0.5904825E-013  0.5052885E+02  0.7816164E-02  0.1300439E+00
        -11   -1    0    0    0    0  0.00000000000E+00  0.00000000000E+00  0.45593999997E+02  0.45594000000E+02  0.51100000000E-03 0. -1.
         11   -1    0    0    0    0 -0.00000000000E+00 -0.00000000000E+00 -0.45593999997E+02  0.45594000000E+02  0.51100000000E-03 0.  1.
    9900012    2    1    2    0    0 -0.68721977878E+01 -0.38702610474E+02  0.10394574016E+02  0.50528851842E+02  0.29999975659E+02 0.  0.
        -12    1    1    2    0    0  0.68721977878E+01  0.38702610474E+02 -0.10394574016E+02  0.40659148158E+02  0.00000000000E+00 0.  1.
         11    1    3    3    0    0 -0.54101596305E+01 -0.15823312850E+02 -0.30992380001E+01  0.17007419946E+02  0.51100000000E-03 0. -1.
        -11    1    3    3    0    0 -0.74267827029E+01 -0.15504745785E+01 -0.74242870305E-03  0.75869014458E+01  0.51100000000E-03 0.  1.
        -12    1    3    3    0    0  0.59647445457E+01 -0.21328823046E+02  0.13494554444E+02  0.25934530450E+02  0.00000000000E+00 0.  1.
</event>
<event>
 7    1  0.5753610E-013  0.5052886E+02  0.7816164E-02  0.1300439E+00
        -11   -1    0    0    0    0  0.00000000000E+00  0.00000000000E+00  0.45593999997E+02  0.45594000000E+02  0.51100000000E-03 0. -1.
         11   -1    0    0    0    0 -0.00000000000E+00 -0.00000000000E+00 -0.45593999997E+02  0.45594000000E+02  0.51100000000E-03 0.  1.
    9900012    2    1    2    0    0 -0.28467809942E+02 -0.85173135091E+01  0.27752564296E+02  0.50528860101E+02  0.30000000764E+02 0.  0.
        -12    1    1    2    0    0  0.28467809942E+02  0.85173135091E+01 -0.27752564296E+02  0.40659139899E+02  0.00000000000E+00 0.  1.
         11    1    3    3    0    0 -0.81212716443E+01 -0.53977043600E+01  0.20549242533E+02  0.22745584944E+02  0.51100000000E-03 0. -1.
        -11    1    3    3    0    0 -0.20931407327E+02 -0.37817306831E+01  0.10957320081E+02  0.23926724875E+02  0.51100000000E-03 0.  1.
        -12    1    3    3    0    0  0.58486902910E+00  0.66212153405E+00 -0.37539983181E+01  0.38565502822E+01  0.00000000000E+00 0.  1.
</event>
<event>
 7    1  0.5753610E-013  0.5052886E+02  0.7816164E-02  0.1300439E+00
        -11   -1    0    0    0    0  0.00000000000E+00  0.00000000000E+00  0.45593999997E+02  0.45594000000E+02  0.51100000000E-03 0. -1.
         11   -1    0    0    0    0 -0.00000000000E+00 -0.00000000000E+00 -0.45593999997E+02  0.45594000000E+02  0.51100000000E-03 0.  1.
    9900012    2    1    2    0    0 -0.92120327252E+01  0.35844517752E+02 -0.16836696400E+02  0.50528863936E+02  0.30000012419E+02 0.  0.
        -12    1    1    2    0    0  0.92120327252E+01 -0.35844517752E+02  0.16836696400E+02  0.40659136064E+02  0.00000000000E+00 0.  1.
         11    1    3    3    0    0 -0.53167730568E+01  0.79379575733E+01  0.65706905741E+01  0.11595396546E+02  0.51100000000E-03 0. -1.
        -11    1    3    3    0    0 -0.92942249924E+00  0.13745775046E+01  0.16348803593E+01  0.23294041188E+01  0.51100000000E-03 0.  1.
        -12    1    3    3    0    0 -0.29658371692E+01  0.26531982674E+02 -0.25042267334E+02  0.36604063271E+02  0.00000000000E+00 0.  1.
</event>
<event>
 7    1  0.5753610E-013  0.5052886E+02  0.7816164E-02  0.1300439E+00
        -11   -1    0    0    0    0  0.00000000000E+00  0.00000000000E+00  0.45593999997E+02  0.45594000000E+02  0.51100000000E-03 0.  1.
         11   -1    0    0    0    0 -0.00000000000E+00 -0.00000000000E+00 -0.45593999997E+02  0.45594000000E+02  0.51100000000E-03 0. -1.
    9900012    2    1    2    0    0  0.28992257228E+02 -0.16794592471E+02 -0.23033809711E+02  0.50528859512E+02  0.29999998972E+02 0.  0.
        -12    1    1    2    0    0 -0.28992257228E+02  0.16794592471E+02  0.23033809711E+02  0.40659140488E+02  0.00000000000E+00 0.  1.
         11    1    3    3    0    0  0.17456099559E+02 -0.15397807351E+02 -0.10278821404E+02  0.25445275647E+02  0.51100000000E-03 0. -1.
        -11    1    3    3    0    0  0.15219380179E+02 -0.27532361905E+01 -0.47686961839E+01  0.16184878934E+02  0.51100000000E-03 0.  1.
         12    1    3    3    0    0 -0.36832225096E+01  0.13564510710E+01 -0.79862921236E+01  0.88987049309E+01  0.00000000000E+00 0. -1.
</event>
<event>
 7    1  0.5753610E-013  0.5052886E+02  0.7816164E-02  0.1300439E+00
        -11   -1    0    0    0    0  0.00000000000E+00  0.00000000000E+00  0.45593999997E+02  0.45594000000E+02  0.51100000000E-03 0.  1.
         11   -1    0    0    0    0 -0.00000000000E+00 -0.00000000000E+00 -0.45593999997E+02  0.45594000000E+02  0.51100000000E-03 0. -1.
    9900012    2    1    2    0    0  0.62177346209E+01  0.37917606053E+01 -0.40001598114E+02  0.50528861741E+02  0.30000005749E+02 0.  0.
        -12    1    1    2    0    0 -0.62177346209E+01 -0.37917606053E+01  0.40001598114E+02  0.40659138259E+02  0.00000000000E+00 0.  1.
         11    1    3    3    0    0 -0.43236229505E+01 -0.23285682096E+01  0.30190755427E+01  0.57646129721E+01  0.51100000000E-03 0.  1.
        -11    1    3    3    0    0  0.19047888074E+01  0.83961493414E+00 -0.49320752721E+01  0.53533672010E+01  0.51100000000E-03 0. -1.
        -12    1    3    3    0    0  0.86365687641E+01  0.52807138808E+01 -0.38088598384E+02  0.39410881568E+02  0.00000000000E+00 0.  1.
</event>
<event>
 7    1  0.5753610E-013  0.5052886E+02  0.7816164E-02  0.1300439E+00
        -11   -1    0    0    0    0  0.00000000000E+00  0.00000000000E+00  0.45593999997E+02  0.45594000000E+02  0.51100000000E-03 0.  1.
         11   -1    0    0    0    0 -0.00000000000E+00 -0.00000000000E+00 -0.45593999997E+02  0.45594000000E+02  0.51100000000E-03 0. -1.
    9900012    2    1    2    0    0  0.19084603911E+01  0.29706045732E+02 -0.27696109741E+02  0.50528857499E+02  0.29999992855E+02 0.  0.
        -12    1    1    2    0    0 -0.19084603911E+01 -0.29706045732E+02  0.27696109741E+02  0.40659142501E+02  0.00000000000E+00 0.  1.
         11    1    3    3    0    0 -0.10305675452E+02  0.10211163774E+02 -0.93960735054E+01  0.17284704502E+02  0.51100000000E-03 0. -1.
        -11    1    3    3    0    0  0.74250938927E-01  0.37098388819E+00  0.24776378583E+01  0.25063582875E+01  0.51100000000E-03 0.  1.
         12    1    3    3    0    0  0.12139884904E+02  0.19123898070E+02 -0.20777674094E+02  0.30737794710E+02  0.00000000000E+00 0. -1.
</event>
<event>
 7    1  0.5753610E-013  0.5052886E+02  0.7816164E-02  0.1300439E+00
        -11   -1    0    0    0    0  0.00000000000E+00  0.00000000000E+00  0.45593999997E+02  0.45594000000E+02  0.51100000000E-03 0. -1.
         11   -1    0    0    0    0 -0.00000000000E+00 -0.00000000000E+00 -0.45593999997E+02  0.45594000000E+02  0.51100000000E-03 0.  1.
    9900012    2    1    2    0    0  0.32650288718E+02  0.67388189088E+01  0.23274716506E+02  0.50528862502E+02  0.30000008061E+02 0.  0.
        -12    1    1    2    0    0 -0.32650288718E+02 -0.67388189088E+01 -0.23274716506E+02  0.40659137498E+02  0.00000000000E+00 0.  1.
         11    1    3    3    0    0  0.12206760353E+02  0.26211973022E+01 -0.12741168852E+01  0.12549862458E+02  0.51100000000E-03 0.  1.
        -11    1    3    3    0    0  0.12303807692E+02  0.18858533628E+01  0.46180993598E+00  0.12456058578E+02  0.51100000000E-03 0. -1.
         12    1    3    3    0    0  0.81397206730E+01  0.22317682438E+01  0.24087023455E+02  0.25522941465E+02  0.00000000000E+00 0. -1.
</event>
<event>
 7    1  0.5753610E-013  0.5052887E+02  0.7816164E-02  0.1300439E+00
        -11   -1    0    0    0    0  0.00000000000E+00  0.00000000000E+00  0.45593999997E+02  0.45594000000E+02  0.51100000000E-03 0. -1.
         11   -1    0    0    0    0 -0.00000000000E+00 -0.00000000000E+00 -0.45593999997E+02  0.45594000000E+02  0.51100000000E-03 0.  1.
    9900012    2    1    2    0    0 -0.39175695905E+02  0.30592218013E+01 -0.10443718954E+02  0.50528865070E+02  0.30000015867E+02 0.  0.
        -12    1    1    2    0    0  0.39175695905E+02 -0.30592218013E+01  0.10443718954E+02  0.40659134930E+02  0.00000000000E+00 0.  1.
         11    1    3    3    0    0 -0.78902301493E+01 -0.46812274715E+01  0.36321539487E+00  0.91815874517E+01  0.51100000000E-03 0. -1.
        -11    1    3    3    0    0 -0.29319586986E+02  0.45604878625E+01  0.25230725630E+00  0.29673218393E+02  0.51100000000E-03 0.  1.
        -12    1    3    3    0    0 -0.19658787690E+01  0.31799614104E+01 -0.11059241605E+02  0.11674059225E+02  0.00000000000E+00 0.  1.
</event>
<event>
 7    1  0.5753610E-013  0.5052886E+02  0.7816164E-02  0.1300439E+00
        -11   -1    0    0    0    0  0.00000000000E+00  0.00000000000E+00  0.45593999997E+02  0.45594000000E+02  0.51100000000E-03 0.  1.
         11   -1    0    0    0    0 -0.00000000000E+00 -0.00000000000E+00 -0.45593999997E+02  0.45594000000E+02  0.51100000000E-03 0. -1.
    9900012    2    1    2    0    0  0.16996959557E+02 -0.28663981525E+02 -0.23294750950E+02  0.50528857205E+02  0.29999991959E+02 0.  0.
        -12    1    1    2    0    0 -0.16996959557E+02  0.28663981525E+02  0.23294750950E+02  0.40659142795E+02  0.00000000000E+00 0.  1.
         11    1    3    3    0    0  0.22284811088E+02 -0.11554992535E+02 -0.17252391916E+02  0.30459410447E+02  0.51100000000E-03 0. -1.
        -11    1    3    3    0    0 -0.12988295331E-01 -0.92998553525E+00  0.12479382579E+01  0.15564035300E+01  0.51100000000E-03 0.  1.
         12    1    3    3    0    0 -0.52748632358E+01 -0.16179003454E+02 -0.72902972924E+01  0.18513043227E+02  0.00000000000E+00 0. -1.
</event>
<event>
 7    1  0.5753610E-013  0.5052886E+02  0.7816164E-02  0.1300439E+00
        -11   -1    0    0    0    0  0.00000000000E+00  0.00000000000E+00  0.45593999997E+02  0.45594000000E+02  0.51100000000E-03 0.  1.
         11   -1    0    0    0    0 -0.00000000000E+00 -0.00000000000E+00 -0.45593999997E+02  0.45594000000E+02  0.51100000000E-03 0. -1.
    9900012    2    1    2    0    0  0.12000747841E+02  0.36898042381E+02 -0.12152455477E+02  0.50528860137E+02  0.30000000871E+02 0.  0.
        -12    1    1    2    0    0 -0.12000747841E+02 -0.36898042381E+02  0.12152455477E+02  0.40659139863E+02  0.00000000000E+00 0.  1.
         11    1    3    3    0    0  0.12267448899E+02  0.16677400552E+02  0.76849231250E+01  0.22083569353E+02  0.51100000000E-03 0.  1.
        -11    1    3    3    0    0  0.10056262410E+01  0.13733880330E+02 -0.13089955338E+02  0.18999412730E+02  0.51100000000E-03 0. -1.
        -12    1    3    3    0    0 -0.12723272995E+01  0.64867614991E+01 -0.67474232639E+01  0.94458780538E+01  0.00000000000E+00 0.  1.
</event>
<event>
 7    1  0.5753610E-013  0.5052885E+02  0.7816164E-02  0.1300439E+00
        -11   -1    0    0    0    0  0.00000000000E+00  0.00000000000E+00  0.45593999997E+02  0.45594000000E+02  0.51100000000E-03 0.  1.
         11   -1    0    0    0    0 -0.00000000000E+00 -0.00000000000E+00 -0.45593999997E+02  0.45594000000E+02  0.51100000000E-03 0. -1.
    9900012    2    1    2    0    0  0.66695946631E+01 -0.25589150987E+02 -0.30884919596E+02  0.50528850973E+02  0.29999973016E+02 0.  0.
        -12    1    1    2    0    0 -0.66695946631E+01  0.25589150987E+02  0.30884919596E+02  0.40659149027E+02  0.00000000000E+00 0.  1.
         11    1    3    3    0    0 -0.19932942109E+01 -0.17802628033E+02 -0.20805331423E+02  0.27454846613E+02  0.51100000000E-03 0. -1.
        -11    1    3    3    0    0 -0.33729595715E+00  0.42607555804E+01 -0.62229790020E+01  0.75493890215E+01  0.51100000000E-03 0.  1.
         12    1    3    3    0    0  0.90001848311E+01 -0.12047278535E+02 -0.38566091703E+01  0.15524615338E+02  0.00000000000E+00 0. -1.
</event>
<event>
 7    1  0.5753610E-013  0.5052891E+02  0.7816164E-02  0.1300439E+00
        -11   -1    0    0    0    0  0.00000000000E+00  0.00000000000E+00  0.45593999997E+02  0.45594000000E+02  0.51100000000E-03 0.  1.
         11   -1    0    0    0    0 -0.00000000000E+00 -0.00000000000E+00 -0.45593999997E+02  0.45594000000E+02  0.51100000000E-03 0. -1.
    9900012    2    1    2    0    0 -0.38553413313E+02  0.41731892829E+01 -0.12222124096E+02  0.50528911173E+02  0.30000156000E+02 0.  0.
        -12    1    1    2    0    0  0.38553413313E+02 -0.41731892829E+01  0.12222124096E+02  0.40659088827E+02  0.00000000000E+00 0.  1.
         11    1    3    3    0    0 -0.28407681982E+01 -0.31578163428E+01 -0.66649676387E+01  0.79033892665E+01  0.51100000000E-03 0. -1.
        -11    1    3    3    0    0 -0.90534677078E+01  0.67588562559E+01  0.68527073324E+01  0.13213894712E+02  0.51100000000E-03 0.  1.
         12    1    3    3    0    0 -0.26659177407E+02  0.57214936974E+00 -0.12409863790E+02  0.29411627194E+02  0.00000000000E+00 0. -1.
</event>
<event>
 7    1  0.5753610E-013  0.5052888E+02  0.7816164E-02  0.1300439E+00
        -11   -1    0    0    0    0  0.00000000000E+00  0.00000000000E+00  0.45593999997E+02  0.45594000000E+02  0.51100000000E-03 0. -1.
         11   -1    0    0    0    0 -0.00000000000E+00 -0.00000000000E+00 -0.45593999997E+02  0.45594000000E+02  0.51100000000E-03 0.  1.
    9900012    2    1    2    0    0 -0.76863857275E+01  0.33496099027E+02  0.21727738164E+02  0.50528883171E+02  0.30000070888E+02 0.  0.
        -12    1    1    2    0    0  0.76863857275E+01 -0.33496099027E+02 -0.21727738164E+02  0.40659116829E+02  0.00000000000E+00 0.  1.
         11    1    3    3    0    0 -0.47603827974E+01  0.29666729760E+02  0.24304267704E+02  0.38645485221E+02  0.51100000000E-03 0. -1.
        -11    1    3    3    0    0  0.40421290375E+00 -0.23877212440E+01  0.22752772274E+01  0.33228733851E+01  0.51100000000E-03 0.  1.
        -12    1    3    3    0    0 -0.33302158338E+01  0.62170905110E+01 -0.48518067683E+01  0.85605245655E+01  0.00000000000E+00 0.  1.
</event>
<event>
 7    1  0.5753610E-013  0.5052886E+02  0.7816164E-02  0.1300439E+00
        -11   -1    0    0    0    0  0.00000000000E+00  0.00000000000E+00  0.45593999997E+02  0.45594000000E+02  0.51100000000E-03 0. -1.
         11   -1    0    0    0    0 -0.00000000000E+00 -0.00000000000E+00 -0.45593999997E+02  0.45594000000E+02  0.51100000000E-03 0.  1.
    9900012    2    1    2    0    0  0.96827911567E+01 -0.38644353676E+02  0.81254678928E+01  0.50528859033E+02  0.29999997518E+02 0.  0.
        -12    1    1    2    0    0 -0.96827911567E+01  0.38644353676E+02 -0.81254678928E+01  0.40659140967E+02  0.00000000000E+00 0.  1.
         11    1    3    3    0    0  0.13145717485E+02 -0.25543516062E+02  0.79675103971E+01  0.29812117053E+02  0.51100000000E-03 0. -1.
        -11    1    3    3    0    0 -0.77578060596E+01 -0.14048711977E+02  0.15000158932E+01  0.16118309807E+02  0.51100000000E-03 0.  1.
        -12    1    3    3    0    0  0.42948797312E+01  0.94787436283E+00 -0.13420583976E+01  0.45984321737E+01  0.00000000000E+00 0.  1.
</event>
<event>
 7    1  0.5753610E-013  0.5052886E+02  0.7816164E-02  0.1300439E+00
        -11   -1    0    0    0    0  0.00000000000E+00  0.00000000000E+00  0.45593999997E+02  0.45594000000E+02  0.51100000000E-03 0.  1.
         11   -1    0    0    0    0 -0.00000000000E+00 -0.00000000000E+00 -0.45593999997E+02  0.45594000000E+02  0.51100000000E-03 0. -1.
    9900012    2    1    2    0    0 -0.96780870920E+01  0.36032117971E+02 -0.16161267777E+02  0.50528862387E+02  0.30000007712E+02 0.  0.
        -12    1    1    2    0    0  0.96780870920E+01 -0.36032117971E+02  0.16161267777E+02  0.40659137613E+02  0.00000000000E+00 0.  1.
         11    1    3    3    0    0  0.72482243044E+01  0.12721458495E+02 -0.64477002597E+01  0.15998284305E+02  0.51100000000E-03 0. -1.
        -11    1    3    3    0    0 -0.44646374539E+01  0.23500850471E+01 -0.87813006079E+01  0.10127543036E+02  0.51100000000E-03 0.  1.
        -12    1    3    3    0    0 -0.12461673942E+02  0.20960574429E+02 -0.93226690931E+00  0.24403035046E+02  0.00000000000E+00 0.  1.
</event>
<event>
 7    1  0.5753610E-013  0.5052886E+02  0.7816164E-02  0.1300439E+00
        -11   -1    0    0    0    0  0.00000000000E+00  0.00000000000E+00  0.45593999997E+02  0.45594000000E+02  0.51100000000E-03 0.  1.
         11   -1    0    0    0    0 -0.00000000000E+00 -0.00000000000E+00 -0.45593999997E+02  0.45594000000E+02  0.51100000000E-03 0. -1.
    9900012    2    1    2    0    0 -0.20893561214E+02  0.10842469118E+02 -0.33152155876E+02  0.50528862331E+02  0.30000007540E+02 0.  0.
        -12    1    1    2    0    0  0.20893561214E+02 -0.10842469118E+02  0.33152155876E+02  0.40659137669E+02  0.00000000000E+00 0.  1.
         11    1    3    3    0    0 -0.10597255434E+01  0.47530215470E+01  0.28265661592E+01  0.56306046360E+01  0.51100000000E-03 0. -1.
        -11    1    3    3    0    0 -0.18012824185E+01  0.84733545708E+01 -0.11149500963E+02  0.14119267970E+02  0.51100000000E-03 0.  1.
         12    1    3    3    0    0 -0.18032553253E+02 -0.23839070002E+01 -0.24829221072E+02  0.30778989724E+02  0.00000000000E+00 0. -1.
</event>
<event>
 7    1  0.5753610E-013  0.5052886E+02  0.7816164E-02  0.1300439E+00
        -11   -1    0    0    0    0  0.00000000000E+00  0.00000000000E+00  0.45593999997E+02  0.45594000000E+02  0.51100000000E-03 0. -1.
         11   -1    0    0    0    0 -0.00000000000E+00 -0.00000000000E+00 -0.45593999997E+02  0.45594000000E+02  0.51100000000E-03 0.  1.
    9900012    2    1    2    0    0 -0.17486900546E+02  0.21115450907E+02  0.30025185939E+02  0.50528858981E+02  0.29999997359E+02 0.  0.
        -12    1    1    2    0    0  0.17486900546E+02 -0.21115450907E+02 -0.30025185939E+02  0.40659141019E+02  0.00000000000E+00 0.  1.
         11    1    3    3    0    0 -0.79229033113E+01  0.83991269343E+01  0.16761983201E+02  0.20353913904E+02  0.51100000000E-03 0. -1.
        -11    1    3    3    0    0  0.59825660129E+00 -0.23308078198E+01  0.11706243433E+02  0.11951012996E+02  0.51100000000E-03 0.  1.
         12    1    3    3    0    0 -0.10162253836E+02  0.15047131793E+02  0.15569593055E+01  0.18223932081E+02  0.00000000000E+00 0. -1.
</event>
<event>
 7    1  0.5753610E-013  0.5052887E+02  0.7816164E-02  0.1300439E+00
        -11   -1    0    0    0    0  0.00000000000E+00  0.00000000000E+00  0.45593999997E+02  0.45594000000E+02  0.51100000000E-03 0. -1.
         11   -1    0    0    0    0 -0.00000000000E+00 -0.00000000000E+00 -0.45593999997E+02  0.45594000000E+02  0.51100000000E-03 0.  1.
    9900012    2    1    2    0    0 -0.19222256997E+02 -0.32404476229E+02  0.15284632623E+02  0.50528865256E+02  0.30000016432E+02 0.  0.
        -12    1    1    2    0    0  0.19222256997E+02  0.32404476229E+02 -0.15284632623E+02  0.40659134744E+02  0.00000000000E+00 0.  1.
         11    1    3    3    0    0 -0.63848798290E+01 -0.20413528911E+02  0.12653165732E+02  0.24851186216E+02  0.51100000000E-03 0. -1.
        -11    1    3    3    0    0  0.33305979739E+01 -0.17898587478E+01  0.51567935514E+01  0.63944504997E+01  0.51100000000E-03 0.  1.
         12    1    3    3    0    0 -0.16167975142E+02 -0.10201088570E+02 -0.25253266607E+01  0.19283228540E+02  0.00000000000E+00 0. -1.
</event>
<event>
 7    1  0.5753610E-013  0.5052886E+02  0.7816164E-02  0.1300439E+00
        -11   -1    0    0    0    0  0.00000000000E+00  0.00000000000E+00  0.45593999997E+02  0.45594000000E+02  0.51100000000E-03 0.  1.
         11   -1    0    0    0    0 -0.00000000000E+00 -0.00000000000E+00 -0.45593999997E+02  0.45594000000E+02  0.51100000000E-03 0. -1.
    9900012    2    1    2    0    0 -0.21921788842E+02  0.28103241215E+02  0.19565504796E+02  0.50528856247E+02  0.29999989047E+02 0.  0.
        -12    1    1    2    0    0  0.21921788842E+02 -0.28103241215E+02 -0.19565504796E+02  0.40659143753E+02  0.00000000000E+00 0.  1.
         11    1    3    3    0    0 -0.98972645852E+01  0.42161445767E+01 -0.47541020337E+01  0.11761513838E+02  0.51100000000E-03 0. -1.
        -11    1    3    3    0    0  0.80419580081E+00 -0.72346854495E+00  0.45899261026E+01  0.47156716923E+01  0.51100000000E-03 0.  1.
         12    1    3    3    0    0 -0.12828720058E+02  0.24610565183E+02  0.19729680727E+02  0.34051670716E+02  0.00000000000E+00 0. -1.
</event>
<event>
 7    1  0.5753610E-013  0.5052887E+02  0.7816164E-02  0.1300439E+00
        -11   -1    0    0    0    0  0.00000000000E+00  0.00000000000E+00  0.45593999997E+02  0.45594000000E+02  0.51100000000E-03 0. -1.
         11   -1    0    0    0    0 -0.00000000000E+00 -0.00000000000E+00 -0.45593999997E+02  0.45594000000E+02  0.51100000000E-03 0.  1.
    9900012    2    1    2    0    0  0.17036689248E+01 -0.39687581290E+02  0.86694006618E+01  0.50528866902E+02  0.30000021435E+02 0.  0.
        -12    1    1    2    0    0 -0.17036689248E+01  0.39687581290E+02 -0.86694006618E+01  0.40659133098E+02  0.00000000000E+00 0.  1.
         11    1    3    3    0    0  0.70416321028E+01 -0.52417564133E+01  0.71341972078E+01  0.11311824036E+02  0.51100000000E-03 0. -1.
        -11    1    3    3    0    0 -0.80879871237E+01 -0.20294150668E+02  0.81998726261E+01  0.23334652310E+02  0.51100000000E-03 0.  1.
        -12    1    3    3    0    0  0.27500239457E+01 -0.14151674208E+02 -0.66646691721E+01  0.15882390556E+02  0.00000000000E+00 0.  1.
</event>
<event>
 7    1  0.5753610E-013  0.5052886E+02  0.7816164E-02  0.1300439E+00
        -11   -1    0    0    0    0  0.00000000000E+00  0.00000000000E+00  0.45593999997E+02  0.45594000000E+02  0.51100000000E-03 0.  1.
         11   -1    0    0    0    0 -0.00000000000E+00 -0.00000000000E+00 -0.45593999997E+02  0.45594000000E+02  0.51100000000E-03 0. -1.
    9900012    2    1    2    0    0  0.39558630497E+02  0.73240775710E+01 -0.58854138870E+01  0.50528862581E+02  0.30000008300E+02 0.  0.
        -12    1    1    2    0    0 -0.39558630497E+02 -0.73240775710E+01  0.58854138870E+01  0.40659137419E+02  0.00000000000E+00 0.  1.
         11    1    3    3    0    0  0.10763742989E+02 -0.69280186118E+01 -0.60988106853E+01  0.14179248818E+02  0.51100000000E-03 0. -1.
        -11    1    3    3    0    0  0.66089536834E+00  0.59434234776E+01 -0.32575645620E+01  0.68097571512E+01  0.51100000000E-03 0.  1.
         12    1    3    3    0    0  0.28133992140E+02  0.83086727052E+01  0.34709613603E+01  0.29539856611E+02  0.00000000000E+00 0. -1.
</event>
<event>
 7    1  0.5753610E-013  0.5052885E+02  0.7816164E-02  0.1300439E+00
        -11   -1    0    0    0    0  0.00000000000E+00  0.00000000000E+00  0.45593999997E+02  0.45594000000E+02  0.51100000000E-03 0. -1.
         11   -1    0    0    0    0 -0.00000000000E+00 -0.00000000000E+00 -0.45593999997E+02  0.45594000000E+02  0.51100000000E-03 0.  1.
    9900012    2    1    2    0    0  0.53219845339E+01  0.16584820483E+02  0.36739437712E+02  0.50528854987E+02  0.29999985218E+02 0.  0.
        -12    1    1    2    0    0 -0.53219845339E+01 -0.16584820483E+02 -0.36739437712E+02  0.40659145013E+02  0.00000000000E+00 0.  1.
         11    1    3    3    0    0 -0.52028076304E+01  0.28029461539E+01  0.13604733942E+01  0.60643715667E+01  0.51100000000E-03 0.  1.
        -11    1    3    3    0    0 -0.17725419920E+01  0.14504202436E+02  0.19524393900E+02  0.24386794600E+02  0.51100000000E-03 0. -1.
        -12    1    3    3    0    0  0.12297334156E+02 -0.72232810715E+00  0.15854570418E+02  0.20077688820E+02  0.00000000000E+00 0.  1.
</event>
<event>
 7    1  0.5753610E-013  0.5052888E+02  0.7816164E-02  0.1300439E+00
        -11   -1    0    0    0    0  0.00000000000E+00  0.00000000000E+00  0.45593999997E+02  0.45594000000E+02  0.51100000000E-03 0. -1.
         11   -1    0    0    0    0 -0.00000000000E+00 -0.00000000000E+00 -0.45593999997E+02  0.45594000000E+02  0.51100000000E-03 0.  1.
    9900012    2    1    2    0    0 -0.28540052924E+02  0.56573133107E+01  0.28401134787E+02  0.50528877137E+02  0.30000052547E+02 0.  0.
        -12    1    1    2    0    0  0.28540052924E+02 -0.56573133107E+01 -0.28401134787E+02  0.40659122863E+02  0.00000000000E+00 0.  1.
         11    1    3    3    0    0 -0.20084825991E+02 -0.75741133894E+01  0.10953154510E+02  0.24098527397E+02  0.51100000000E-03 0. -1.
        -11    1    3    3    0    0  0.20949602179E+01 -0.60417332795E+00  0.35314844441E+01  0.41503332836E+01  0.51100000000E-03 0.  1.
        -12    1    3    3    0    0 -0.10550187151E+02  0.13835600028E+02  0.13916495833E+02  0.22280016457E+02  0.00000000000E+00 0.  1.
</event>
<event>
 7    1  0.5753610E-013  0.5052886E+02  0.7816164E-02  0.1300439E+00
        -11   -1    0    0    0    0  0.00000000000E+00  0.00000000000E+00  0.45593999997E+02  0.45594000000E+02  0.51100000000E-03 0. -1.
         11   -1    0    0    0    0 -0.00000000000E+00 -0.00000000000E+00 -0.45593999997E+02  0.45594000000E+02  0.51100000000E-03 0.  1.
    9900012    2    1    2    0    0  0.26331752904E+02 -0.30824704567E+02  0.31051087382E+01  0.50528864213E+02  0.30000013263E+02 0.  0.
        -12    1    1    2    0    0 -0.26331752904E+02  0.30824704567E+02 -0.31051087382E+01  0.40659135787E+02  0.00000000000E+00 0.  1.
         11    1    3    3    0    0  0.56993545304E+00 -0.26193161605E+01 -0.22606431681E+01  0.35065868539E+01  0.51100000000E-03 0. -1.
        -11    1    3    3    0    0  0.21805458880E+02 -0.40263481042E+01  0.35265873675E+01  0.22452757843E+02  0.51100000000E-03 0.  1.
         12    1    3    3    0    0  0.39563585707E+01 -0.24179040302E+02  0.18391645388E+01  0.24569519517E+02  0.00000000000E+00 0. -1.
</event>
<event>
 7    1  0.5753610E-013  0.5052886E+02  0.7816164E-02  0.1300439E+00
        -11   -1    0    0    0    0  0.00000000000E+00  0.00000000000E+00  0.45593999997E+02  0.45594000000E+02  0.51100000000E-03 0.  1.
         11   -1    0    0    0    0 -0.00000000000E+00 -0.00000000000E+00 -0.45593999997E+02  0.45594000000E+02  0.51100000000E-03 0. -1.
    9900012    2    1    2    0    0  0.40276822297E+02  0.54329670641E+01 -0.11942563207E+01  0.50528858425E+02  0.29999995669E+02 0.  0.
        -12    1    1    2    0    0 -0.40276822297E+02 -0.54329670641E+01  0.11942563207E+01  0.40659141575E+02  0.00000000000E+00 0.  1.
         11    1    3    3    0    0  0.35469084458E+01  0.16571940413E+01 -0.85230447379E+01  0.93791867173E+01  0.51100000000E-03 0. -1.
        -11    1    3    3    0    0  0.20178763385E+02  0.83936937006E+01 -0.13548322645E+01  0.21896852660E+02  0.51100000000E-03 0.  1.
        -12    1    3    3    0    0  0.16551150466E+02 -0.46179206778E+01  0.86836206817E+01  0.19252819047E+02  0.00000000000E+00 0.  1.
</event>
<event>
 7    1  0.5753610E-013  0.5052886E+02  0.7816164E-02  0.1300439E+00
        -11   -1    0    0    0    0  0.00000000000E+00  0.00000000000E+00  0.45593999997E+02  0.45594000000E+02  0.51100000000E-03 0. -1.
         11   -1    0    0    0    0 -0.00000000000E+00 -0.00000000000E+00 -0.45593999997E+02  0.45594000000E+02  0.51100000000E-03 0.  1.
    9900012    2    1    2    0    0 -0.66961025296E+01  0.31095613758E+02  0.25325699483E+02  0.50528855415E+02  0.29999986520E+02 0.  0.
        -12    1    1    2    0    0  0.66961025296E+01 -0.31095613758E+02 -0.25325699483E+02  0.40659144585E+02  0.00000000000E+00 0.  1.
         11    1    3    3    0    0 -0.68417107319E+01 -0.32066489936E+00 -0.18269083860E+01  0.70886829685E+01  0.51100000000E-03 0. -1.
        -11    1    3    3    0    0  0.28877464371E+01  0.53533585529E+01  0.56630704514E+00  0.61088649691E+01  0.51100000000E-03 0.  1.
         12    1    3    3    0    0 -0.27421382347E+01  0.26062920104E+02  0.26586300824E+02  0.37331307477E+02  0.00000000000E+00 0. -1.
</event>
<event>
 7    1  0.5753610E-013  0.5052885E+02  0.7816164E-02  0.1300439E+00
        -11   -1    0    0    0    0  0.00000000000E+00  0.00000000000E+00  0.45593999997E+02  0.45594000000E+02  0.51100000000E-03 0.  1.
         11   -1    0    0    0    0 -0.00000000000E+00 -0.00000000000E+00 -0.45593999997E+02  0.45594000000E+02  0.51100000000E-03 0. -1.
    9900012    2    1    2    0    0  0.37001369244E+02  0.13929153692E+02 -0.94891395195E+01  0.50528850755E+02  0.29999972354E+02 0.  0.
        -12    1    1    2    0    0 -0.37001369244E+02 -0.13929153692E+02  0.94891395195E+01  0.40659149245E+02  0.00000000000E+00 0.  1.
         11    1    3    3    0    0 -0.18111183240E+01  0.65955731414E+01 -0.41084568613E+01  0.79787939370E+01  0.51100000000E-03 0. -1.
        -11    1    3    3    0    0  0.60390439340E+01  0.40322642984E+01  0.40141850893E+01  0.82971615147E+01  0.51100000000E-03 0.  1.
         12    1    3    3    0    0  0.32773443634E+02  0.33013162523E+01 -0.93948677474E+01  0.34252895303E+02  0.00000000000E+00 0. -1.
</event>
<event>
 7    1  0.5753610E-013  0.5052886E+02  0.7816164E-02  0.1300439E+00
        -11   -1    0    0    0    0  0.00000000000E+00  0.00000000000E+00  0.45593999997E+02  0.45594000000E+02  0.51100000000E-03 0. -1.
         11   -1    0    0    0    0 -0.00000000000E+00 -0.00000000000E+00 -0.45593999997E+02  0.45594000000E+02  0.51100000000E-03 0.  1.
    9900012    2    1    2    0    0  0.38104328115E+02 -0.61364337592E+01  0.12789445729E+02  0.50528861268E+02  0.30000004310E+02 0.  0.
        -12    1    1    2    0    0 -0.38104328115E+02  0.61364337592E+01 -0.12789445729E+02  0.40659138732E+02  0.00000000000E+00 0.  1.
         11    1    3    3    0    0  0.83868983202E+01  0.24961169889E+01  0.11488692707E+02  0.14441631619E+02  0.51100000000E-03 0. -1.
        -11    1    3    3    0    0  0.14822906030E+02 -0.11279007806E+02  0.70330883142E+01  0.19909768752E+02  0.51100000000E-03 0.  1.
        -12    1    3    3    0    0  0.14894523765E+02  0.26464570583E+01 -0.57323352923E+01  0.16177460896E+02  0.00000000000E+00 0.  1.
</event>
<event>
 7    1  0.5753610E-013  0.5052886E+02  0.7816164E-02  0.1300439E+00
        -11   -1    0    0    0    0  0.00000000000E+00  0.00000000000E+00  0.45593999997E+02  0.45594000000E+02  0.51100000000E-03 0. -1.
         11   -1    0    0    0    0 -0.00000000000E+00 -0.00000000000E+00 -0.45593999997E+02  0.45594000000E+02  0.51100000000E-03 0.  1.
    9900012    2    1    2    0    0  0.30568546012E+02 -0.16361761708E+02  0.21237285965E+02  0.50528861216E+02  0.30000004153E+02 0.  0.
        -12    1    1    2    0    0 -0.30568546012E+02  0.16361761708E+02 -0.21237285965E+02  0.40659138784E+02  0.00000000000E+00 0.  1.
         11    1    3    3    0    0  0.15012444104E+02 -0.11674676254E+02  0.24869869050E+02  0.31307857327E+02  0.51100000000E-03 0. -1.
        -11    1    3    3    0    0  0.57495190044E+01 -0.67265934037E+01 -0.20041954141E+01  0.90730825588E+01  0.51100000000E-03 0.  1.
        -12    1    3    3    0    0  0.98065829035E+01  0.20395079493E+01 -0.16283876711E+01  0.10147921330E+02  0.00000000000E+00 0.  1.
</event>
<event>
 7    1  0.5753610E-013  0.5052887E+02  0.7816164E-02  0.1300439E+00
        -11   -1    0    0    0    0  0.00000000000E+00  0.00000000000E+00  0.45593999997E+02  0.45594000000E+02  0.51100000000E-03 0. -1.
         11   -1    0    0    0    0 -0.00000000000E+00 -0.00000000000E+00 -0.45593999997E+02  0.45594000000E+02  0.51100000000E-03 0.  1.
    9900012    2    1    2    0    0 -0.50100348726E+01 -0.36924466558E+02  0.16268014527E+02  0.50528868472E+02  0.30000026207E+02 0.  0.
        -12    1    1    2    0    0  0.50100348726E+01  0.36924466558E+02 -0.16268014527E+02  0.40659131528E+02  0.00000000000E+00 0.  1.
         11    1    3    3    0    0  0.46332690630E+01 -0.10076867912E+02  0.12990060030E+02  0.17080752588E+02  0.51100000000E-03 0. -1.
        -11    1    3    3    0    0  0.36787835445E+01 -0.15573977130E+01 -0.18581619227E+01  0.44058713095E+01  0.51100000000E-03 0.  1.
        -12    1    3    3    0    0 -0.13322087480E+02 -0.25290200932E+02  0.51361164197E+01  0.29042244574E+02  0.00000000000E+00 0.  1.
</event>
<event>
 7    1  0.5753610E-013  0.5052887E+02  0.7816164E-02  0.1300439E+00
        -11   -1    0    0    0    0  0.00000000000E+00  0.00000000000E+00  0.45593999997E+02  0.45594000000E+02  0.51100000000E-03 0.  1.
         11   -1    0    0    0    0 -0.00000000000E+00 -0.00000000000E+00 -0.45593999997E+02  0.45594000000E+02  0.51100000000E-03 0. -1.
    9900012    2    1    2    0    0  0.22361631300E+02  0.18939974585E+02 -0.28185095441E+02  0.50528870684E+02  0.30000032932E+02 0.  0.
        -12    1    1    2    0    0 -0.22361631300E+02 -0.18939974585E+02  0.28185095441E+02  0.40659129316E+02  0.00000000000E+00 0.  1.
         11    1    3    3    0    0  0.11043615960E+02  0.16427187580E+02 -0.23361888196E+02  0.30620120274E+02  0.51100000000E-03 0. -1.
        -11    1    3    3    0    0  0.13390787904E+02  0.49629118950E+01 -0.71247441618E+01  0.15959501082E+02  0.51100000000E-03 0.  1.
        -12    1    3    3    0    0 -0.20727725635E+01 -0.24501248901E+01  0.23015369165E+01  0.39492493281E+01  0.00000000000E+00 0.  1.
</event>
<event>
 7    1  0.5753610E-013  0.5052886E+02  0.7816164E-02  0.1300439E+00
        -11   -1    0    0    0    0  0.00000000000E+00  0.00000000000E+00  0.45593999997E+02  0.45594000000E+02  0.51100000000E-03 0. -1.
         11   -1    0    0    0    0 -0.00000000000E+00 -0.00000000000E+00 -0.45593999997E+02  0.45594000000E+02  0.51100000000E-03 0.  1.
    9900012    2    1    2    0    0  0.28902575881E+02  0.26870083611E+02 -0.97880338001E+01  0.50528857221E+02  0.29999992010E+02 0.  0.
        -12    1    1    2    0    0 -0.28902575881E+02 -0.26870083611E+02  0.97880338001E+01  0.40659142779E+02  0.00000000000E+00 0.  1.
         11    1    3    3    0    0  0.10782361530E+02  0.19476992149E+02 -0.96923125773E+01  0.24280722120E+02  0.51100000000E-03 0. -1.
        -11    1    3    3    0    0  0.50664918029E+00  0.68418133019E+01  0.42860694999E+01  0.80893445142E+01  0.51100000000E-03 0.  1.
         12    1    3    3    0    0  0.17613565171E+02  0.55127816033E+00 -0.43817907227E+01  0.18158790587E+02  0.00000000000E+00 0. -1.
</event>
<event>
 7    1  0.5753610E-013  0.5052886E+02  0.7816164E-02  0.1300439E+00
        -11   -1    0    0    0    0  0.00000000000E+00  0.00000000000E+00  0.45593999997E+02  0.45594000000E+02  0.51100000000E-03 0.  1.
         11   -1    0    0    0    0 -0.00000000000E+00 -0.00000000000E+00 -0.45593999997E+02  0.45594000000E+02  0.51100000000E-03 0. -1.
    9900012    2    1    2    0    0  0.21971910044E+02  0.26139960818E+02 -0.22070409136E+02  0.50528863979E+02  0.30000012551E+02 0.  0.
        -12    1    1    2    0    0 -0.21971910044E+02 -0.26139960818E+02  0.22070409136E+02  0.40659136021E+02  0.00000000000E+00 0.  1.
         11    1    3    3    0    0  0.10297008987E+01 -0.28154345223E+01 -0.21930005679E+01  0.37143246010E+01  0.51100000000E-03 0. -1.
        -11    1    3    3    0    0  0.10441793644E+02  0.35363293683E+00 -0.22437331934E-01  0.10447804288E+02  0.51100000000E-03 0.  1.
         12    1    3    3    0    0  0.10500415502E+02  0.28601762404E+02 -0.19854971236E+02  0.36366735090E+02  0.00000000000E+00 0. -1.
</event>
<event>
 7    1  0.5753610E-013  0.5052886E+02  0.7816164E-02  0.1300439E+00
        -11   -1    0    0    0    0  0.00000000000E+00  0.00000000000E+00  0.45593999997E+02  0.45594000000E+02  0.51100000000E-03 0. -1.
         11   -1    0    0    0    0 -0.00000000000E+00 -0.00000000000E+00 -0.45593999997E+02  0.45594000000E+02  0.51100000000E-03 0.  1.
    9900012    2    1    2    0    0 -0.10612638453E+02  0.26201038682E+02  0.29224021608E+02  0.50528856356E+02  0.29999989379E+02 0.  0.
        -12    1    1    2    0    0  0.10612638453E+02 -0.26201038682E+02 -0.29224021608E+02  0.40659143644E+02  0.00000000000E+00 0.  1.
         11    1    3    3    0    0 -0.78830035961E+01  0.20202961774E+02  0.16828738418E+02  0.27450097398E+02  0.51100000000E-03 0. -1.
        -11    1    3    3    0    0  0.41130583244E+01  0.10486578151E+02  0.66643575500E+01  0.13088133248E+02  0.51100000000E-03 0.  1.
         12    1    3    3    0    0 -0.68426931809E+01 -0.44885012436E+01  0.57309256402E+01  0.99906257099E+01  0.00000000000E+00 0. -1.
</event>
<event>
 7    1  0.5753610E-013  0.5052886E+02  0.7816164E-02  0.1300439E+00
        -11   -1    0    0    0    0  0.00000000000E+00  0.00000000000E+00  0.45593999997E+02  0.45594000000E+02  0.51100000000E-03 0.  1.
         11   -1    0    0    0    0 -0.00000000000E+00 -0.00000000000E+00 -0.45593999997E+02  0.45594000000E+02  0.51100000000E-03 0. -1.
    9900012    2    1    2    0    0 -0.68979874911E+01  0.36086282749E+02 -0.17417328058E+02  0.50528863872E+02  0.30000012224E+02 0.  0.
        -12    1    1    2    0    0  0.68979874911E+01 -0.36086282749E+02  0.17417328058E+02  0.40659136128E+02  0.00000000000E+00 0.  1.
         11    1    3    3    0    0 -0.13203879210E+01  0.17383539721E+02 -0.10465508047E+01  0.17464997748E+02  0.51100000000E-03 0.  1.
        -11    1    3    3    0    0 -0.52040883632E+01 -0.32706526700E+01 -0.65823920494E+01  0.90059752350E+01  0.51100000000E-03 0. -1.
         12    1    3    3    0    0 -0.37351120691E+00  0.21973395697E+02 -0.97883852034E+01  0.24057890888E+02  0.00000000000E+00 0. -1.
</event>
<event>
 7    1  0.5753610E-013  0.5052884E+02  0.7816164E-02  0.1300439E+00
        -11   -1    0    0    0    0  0.00000000000E+00  0.00000000000E+00  0.45593999997E+02  0.45594000000E+02  0.51100000000E-03 0.  1.
         11   -1    0    0    0    0 -0.00000000000E+00 -0.00000000000E+00 -0.45593999997E+02  0.45594000000E+02  0.51100000000E-03 0. -1.
    9900012    2    1    2    0    0  0.49061242479E+01  0.16149321869E+02 -0.36990495908E+02  0.50528838186E+02  0.29999934149E+02 0.  0.
        -12    1    1    2    0    0 -0.49061242479E+01 -0.16149321869E+02  0.36990495908E+02  0.40659161814E+02  0.00000000000E+00 0.  1.
         11    1    3    3    0    0 -0.25409758481E+01  0.38235527803E+01 -0.96453195896E+00  0.46911018200E+01  0.51100000000E-03 0.  1.
        -11    1    3    3    0    0  0.12531641742E+02  0.13798393157E+02 -0.14346797305E+02  0.23521655802E+02  0.51100000000E-03 0. -1.
         12    1    3    3    0    0 -0.50845416463E+01 -0.14726240682E+01 -0.21679166643E+02  0.22316080564E+02  0.00000000000E+00 0. -1.
</event>
<event>
 7    1  0.5753610E-013  0.5052886E+02  0.7816164E-02  0.1300439E+00
        -11   -1    0    0    0    0  0.00000000000E+00  0.00000000000E+00  0.45593999997E+02  0.45594000000E+02  0.51100000000E-03 0.  1.
         11   -1    0    0    0    0 -0.00000000000E+00 -0.00000000000E+00 -0.45593999997E+02  0.45594000000E+02  0.51100000000E-03 0. -1.
    9900012    2    1    2    0    0 -0.17031802911E+02 -0.27026368249E+02 -0.25152705942E+02  0.50528861945E+02  0.30000006369E+02 0.  0.
        -12    1    1    2    0    0  0.17031802911E+02  0.27026368249E+02  0.25152705942E+02  0.40659138055E+02  0.00000000000E+00 0.  1.
         11    1    3    3    0    0 -0.17245418692E+02 -0.80581702267E+01 -0.15733612499E+02  0.24695852604E+02  0.51100000000E-03 0. -1.
        -11    1    3    3    0    0  0.79311413990E+00 -0.10425254211E+02 -0.12886958997E+02  0.16594838591E+02  0.51100000000E-03 0.  1.
        -12    1    3    3    0    0 -0.57949835842E+00 -0.85429438115E+01  0.34678655544E+01  0.92381707506E+01  0.00000000000E+00 0.  1.
</event>
<event>
 7    1  0.5753610E-013  0.5052886E+02  0.7816164E-02  0.1300439E+00
        -11   -1    0    0    0    0  0.00000000000E+00  0.00000000000E+00  0.45593999997E+02  0.45594000000E+02  0.51100000000E-03 0. -1.
         11   -1    0    0    0    0 -0.00000000000E+00 -0.00000000000E+00 -0.45593999997E+02  0.45594000000E+02  0.51100000000E-03 0.  1.
    9900012    2    1    2    0    0 -0.38684484045E+02  0.66795419482E+01  0.10585855366E+02  0.50528856867E+02  0.29999990933E+02 0.  0.
        -12    1    1    2    0    0  0.38684484045E+02 -0.66795419482E+01 -0.10585855366E+02  0.40659143133E+02  0.00000000000E+00 0.  1.
         11    1    3    3    0    0 -0.35295837973E+01  0.18635462796E+01  0.13559559996E+02  0.14134795154E+02  0.51100000000E-03 0.  1.
        -11    1    3    3    0    0 -0.15687298778E+02  0.37704112198E+01 -0.47470857225E+01  0.16817912083E+02  0.51100000000E-03 0. -1.
        -12    1    3    3    0    0 -0.19467601470E+02  0.10455844488E+01  0.17733810927E+01  0.19576149630E+02  0.00000000000E+00 0.  1.
</event>
<event>
 7    1  0.5753610E-013  0.5052887E+02  0.7816164E-02  0.1300439E+00
        -11   -1    0    0    0    0  0.00000000000E+00  0.00000000000E+00  0.45593999997E+02  0.45594000000E+02  0.51100000000E-03 0.  1.
         11   -1    0    0    0    0 -0.00000000000E+00 -0.00000000000E+00 -0.45593999997E+02  0.45594000000E+02  0.51100000000E-03 0. -1.
    9900012    2    1    2    0    0 -0.28491939400E+02 -0.28038994262E+02 -0.74289486416E+01  0.50528867103E+02  0.30000022048E+02 0.  0.
        -12    1    1    2    0    0  0.28491939400E+02  0.28038994262E+02  0.74289486416E+01  0.40659132897E+02  0.00000000000E+00 0.  1.
         11    1    3    3    0    0  0.42812302547E+01 -0.62581475277E+01 -0.29699922190E+01  0.81433529344E+01  0.51100000000E-03 0. -1.
        -11    1    3    3    0    0 -0.35782070428E+01  0.18994967661E+01  0.15097892370E+01  0.43233224963E+01  0.51100000000E-03 0.  1.
         12    1    3    3    0    0 -0.29194962611E+02 -0.23680343501E+02 -0.59687456595E+01  0.38062191673E+02  0.00000000000E+00 0. -1.
</event>
<event>
 7    1  0.5753610E-013  0.5052887E+02  0.7816164E-02  0.1300439E+00
        -11   -1    0    0    0    0  0.00000000000E+00  0.00000000000E+00  0.45593999997E+02  0.45594000000E+02  0.51100000000E-03 0.  1.
         11   -1    0    0    0    0 -0.00000000000E+00 -0.00000000000E+00 -0.45593999997E+02  0.45594000000E+02  0.51100000000E-03 0. -1.
    9900012    2    1    2    0    0 -0.37168537818E+02  0.13680158091E+02  0.91933769441E+01  0.50528866849E+02  0.30000021275E+02 0.  0.
        -12    1    1    2    0    0  0.37168537818E+02 -0.13680158091E+02 -0.91933769441E+01  0.40659133151E+02  0.00000000000E+00 0.  1.
         11    1    3    3    0    0 -0.15884628967E+02  0.17587279498E+02 -0.27822729710E+01  0.23861577498E+02  0.51100000000E-03 0.  1.
        -11    1    3    3    0    0 -0.15602049221E+02  0.10832504238E+01  0.51097172346E+01  0.16453163278E+02  0.51100000000E-03 0. -1.
        -12    1    3    3    0    0 -0.56818596303E+01 -0.49903718305E+01  0.68659326805E+01  0.10214126073E+02  0.00000000000E+00 0.  1.
</event>
<event>
 7    1  0.5753610E-013  0.5052886E+02  0.7816164E-02  0.1300439E+00
        -11   -1    0    0    0    0  0.00000000000E+00  0.00000000000E+00  0.45593999997E+02  0.45594000000E+02  0.51100000000E-03 0.  1.
         11   -1    0    0    0    0 -0.00000000000E+00 -0.00000000000E+00 -0.45593999997E+02  0.45594000000E+02  0.51100000000E-03 0. -1.
    9900012    2    1    2    0    0  0.10118955000E+02 -0.23186562852E+02 -0.31830107059E+02  0.50528860036E+02  0.30000000566E+02 0.  0.
        -12    1    1    2    0    0 -0.10118955000E+02  0.23186562852E+02  0.31830107059E+02  0.40659139964E+02  0.00000000000E+00 0.  1.
         11    1    3    3    0    0  0.62148293133E+01 -0.67844990724E+01 -0.16664581023E+00  0.92022444079E+01  0.51100000000E-03 0. -1.
        -11    1    3    3    0    0  0.45951070014E+01  0.35851499269E+01 -0.35461549567E+01  0.68222814066E+01  0.51100000000E-03 0.  1.
         12    1    3    3    0    0 -0.69098131469E+00 -0.19987213707E+02 -0.28117306292E+02  0.34504334222E+02  0.00000000000E+00 0. -1.
</event>
<event>
 7    1  0.5753610E-013  0.5052884E+02  0.7816164E-02  0.1300439E+00
        -11   -1    0    0    0    0  0.00000000000E+00  0.00000000000E+00  0.45593999997E+02  0.45594000000E+02  0.51100000000E-03 0. -1.
         11   -1    0    0    0    0 -0.00000000000E+00 -0.00000000000E+00 -0.45593999997E+02  0.45594000000E+02  0.51100000000E-03 0.  1.
    9900012    2    1    2    0    0 -0.48716621767E+01 -0.40057710724E+02  0.49813995021E+01  0.50528835943E+02  0.29999927334E+02 0.  0.
        -12    1    1    2    0    0  0.48716621767E+01  0.40057710724E+02 -0.49813995021E+01  0.40659164057E+02  0.00000000000E+00 0.  1.
         11    1    3    3    0    0 -0.13706849374E+02 -0.17051404930E+02  0.64885489679E+01  0.22819496002E+02  0.51100000000E-03 0. -1.
        -11    1    3    3    0    0 -0.31298292467E+01 -0.62906574092E+01 -0.13352750512E+01  0.71520040183E+01  0.51100000000E-03 0.  1.
        -12    1    3    3    0    0  0.11965016444E+02 -0.16715648385E+02 -0.17187441463E+00  0.20557335923E+02  0.00000000000E+00 0.  1.
</event>
<event>
 7    1  0.5753610E-013  0.5052888E+02  0.7816164E-02  0.1300439E+00
        -11   -1    0    0    0    0  0.00000000000E+00  0.00000000000E+00  0.45593999997E+02  0.45594000000E+02  0.51100000000E-03 0.  1.
         11   -1    0    0    0    0 -0.00000000000E+00 -0.00000000000E+00 -0.45593999997E+02  0.45594000000E+02  0.51100000000E-03 0. -1.
    9900012    2    1    2    0    0 -0.29477291203E+02  0.17812333655E+02 -0.21609590762E+02  0.50528876303E+02  0.30000050011E+02 0.  0.
        -12    1    1    2    0    0  0.29477291203E+02 -0.17812333655E+02  0.21609590762E+02  0.40659123697E+02  0.00000000000E+00 0.  1.
         11    1    3    3    0    0 -0.27120261682E+02  0.22744834874E+02 -0.11747863999E+02  0.37294080173E+02  0.51100000000E-03 0. -1.
        -11    1    3    3    0    0 -0.45466694554E+01 -0.27295050387E+01 -0.41527579452E+01  0.67355623155E+01  0.51100000000E-03 0.  1.
        -12    1    3    3    0    0  0.21896399346E+01 -0.22029961801E+01 -0.57089688179E+01  0.64992338146E+01  0.00000000000E+00 0.  1.
</event>
<event>
 7    1  0.5753610E-013  0.5052884E+02  0.7816164E-02  0.1300439E+00
        -11   -1    0    0    0    0  0.00000000000E+00  0.00000000000E+00  0.45593999997E+02  0.45594000000E+02  0.51100000000E-03 0.  1.
         11   -1    0    0    0    0 -0.00000000000E+00 -0.00000000000E+00 -0.45593999997E+02  0.45594000000E+02  0.51100000000E-03 0. -1.
    9900012    2    1    2    0    0  0.24694156700E+02 -0.18418117781E+02 -0.26535618232E+02  0.50528837777E+02  0.29999932907E+02 0.  0.
        -12    1    1    2    0    0 -0.24694156700E+02  0.18418117781E+02  0.26535618232E+02  0.40659162223E+02  0.00000000000E+00 0.  1.
         11    1    3    3    0    0 -0.70483111192E+00 -0.89912691240E+01  0.13077590454E+01  0.91131740540E+01  0.51100000000E-03 0.  1.
        -11    1    3    3    0    0  0.27348470058E+01 -0.19468760364E+01  0.14275383762E+01  0.36479556635E+01  0.51100000000E-03 0. -1.
         12    1    3    3    0    0  0.22664140806E+02 -0.74799726205E+01 -0.29270915653E+02  0.37767708060E+02  0.00000000000E+00 0. -1.
</event>
<event>
 7    1  0.5753610E-013  0.5052887E+02  0.7816164E-02  0.1300439E+00
        -11   -1    0    0    0    0  0.00000000000E+00  0.00000000000E+00  0.45593999997E+02  0.45594000000E+02  0.51100000000E-03 0. -1.
         11   -1    0    0    0    0 -0.00000000000E+00 -0.00000000000E+00 -0.45593999997E+02  0.45594000000E+02  0.51100000000E-03 0.  1.
    9900012    2    1    2    0    0 -0.25888370289E+01 -0.18966553591E+02  0.35871056214E+02  0.50528869338E+02  0.30000028840E+02 0.  0.
        -12    1    1    2    0    0  0.25888370289E+01  0.18966553591E+02 -0.35871056214E+02  0.40659130662E+02  0.00000000000E+00 0.  1.
         11    1    3    3    0    0  0.53850015288E+01 -0.12707741266E+02  0.18343739930E+02  0.22955995392E+02  0.51100000000E-03 0. -1.
        -11    1    3    3    0    0  0.61543011142E+00  0.61511232491E+01  0.46972264889E+01  0.77639557184E+01  0.51100000000E-03 0.  1.
         12    1    3    3    0    0 -0.85892686690E+01 -0.12409935574E+02  0.12830089795E+02  0.19808918228E+02  0.00000000000E+00 0. -1.
</event>
<event>
 7    1  0.5753610E-013  0.5052886E+02  0.7816164E-02  0.1300439E+00
        -11   -1    0    0    0    0  0.00000000000E+00  0.00000000000E+00  0.45593999997E+02  0.45594000000E+02  0.51100000000E-03 0.  1.
         11   -1    0    0    0    0 -0.00000000000E+00 -0.00000000000E+00 -0.45593999997E+02  0.45594000000E+02  0.51100000000E-03 0. -1.
    9900012    2    1    2    0    0 -0.40213459553E+02  0.22688589445E+01  0.55583772684E+01  0.50528860707E+02  0.30000002606E+02 0.  0.
        -12    1    1    2    0    0  0.40213459553E+02 -0.22688589445E+01 -0.55583772684E+01  0.40659139293E+02  0.00000000000E+00 0.  1.
         11    1    3    3    0    0 -0.41259352366E+01 -0.40754154601E+01 -0.34125154875E+01  0.67288643144E+01  0.51100000000E-03 0. -1.
        -11    1    3    3    0    0 -0.19382139875E+02 -0.48944098587E+01  0.12184411375E+02  0.23411161330E+02  0.51100000000E-03 0.  1.
         12    1    3    3    0    0 -0.16705384442E+02  0.11238684263E+02 -0.32135186190E+01  0.20388835063E+02  0.00000000000E+00 0. -1.
</event>
<event>
 7    1  0.5753610E-013  0.5052886E+02  0.7816164E-02  0.1300439E+00
        -11   -1    0    0    0    0  0.00000000000E+00  0.00000000000E+00  0.45593999997E+02  0.45594000000E+02  0.51100000000E-03 0.  1.
         11   -1    0    0    0    0 -0.00000000000E+00 -0.00000000000E+00 -0.45593999997E+02  0.45594000000E+02  0.51100000000E-03 0. -1.
    9900012    2    1    2    0    0  0.11655216687E+01  0.15362124267E+02 -0.37627281253E+02  0.50528860840E+02  0.30000003010E+02 0.  0.
        -12    1    1    2    0    0 -0.11655216687E+01 -0.15362124267E+02  0.37627281253E+02  0.40659139160E+02  0.00000000000E+00 0.  1.
         11    1    3    3    0    0 -0.55203365142E+00 -0.79928490664E+01 -0.15956193853E+02  0.17854705259E+02  0.51100000000E-03 0. -1.
        -11    1    3    3    0    0 -0.14466727720E+01  0.18442111856E+01 -0.40861622461E+01  0.47107004966E+01  0.51100000000E-03 0.  1.
         12    1    3    3    0    0  0.31642280922E+01  0.21510762148E+02 -0.17584925154E+02  0.27963455085E+02  0.00000000000E+00 0. -1.
</event>
<event>
 7    1  0.5753610E-013  0.5052886E+02  0.7816164E-02  0.1300439E+00
        -11   -1    0    0    0    0  0.00000000000E+00  0.00000000000E+00  0.45593999997E+02  0.45594000000E+02  0.51100000000E-03 0.  1.
         11   -1    0    0    0    0 -0.00000000000E+00 -0.00000000000E+00 -0.45593999997E+02  0.45594000000E+02  0.51100000000E-03 0. -1.
    9900012    2    1    2    0    0  0.13036253737E+02  0.34757060502E+02 -0.16588198546E+02  0.50528862070E+02  0.30000006748E+02 0.  0.
        -12    1    1    2    0    0 -0.13036253737E+02 -0.34757060502E+02  0.16588198546E+02  0.40659137930E+02  0.00000000000E+00 0.  1.
         11    1    3    3    0    0  0.33683956287E+01  0.61859783017E+01 -0.76807974636E+01  0.10421471422E+02  0.51100000000E-03 0. -1.
        -11    1    3    3    0    0  0.61706561024E+01 -0.33072362494E+01 -0.94895985220E+00  0.70650784430E+01  0.51100000000E-03 0.  1.
         12    1    3    3    0    0  0.34972020056E+01  0.31878318450E+02 -0.79584412299E+01  0.33042312205E+02  0.00000000000E+00 0. -1.
</event>
<event>
 7    1  0.5753610E-013  0.5052884E+02  0.7816164E-02  0.1300439E+00
        -11   -1    0    0    0    0  0.00000000000E+00  0.00000000000E+00  0.45593999997E+02  0.45594000000E+02  0.51100000000E-03 0.  1.
         11   -1    0    0    0    0 -0.00000000000E+00 -0.00000000000E+00 -0.45593999997E+02  0.45594000000E+02  0.51100000000E-03 0. -1.
    9900012    2    1    2    0    0  0.31551588485E+02  0.19945324101E+02 -0.16119823915E+02  0.50528838518E+02  0.29999935159E+02 0.  0.
        -12    1    1    2    0    0 -0.31551588485E+02 -0.19945324101E+02  0.16119823915E+02  0.40659161482E+02  0.00000000000E+00 0.  1.
         11    1    3    3    0    0  0.96918283787E+01  0.10034043809E+02 -0.13468836275E+01  0.14015265543E+02  0.51100000000E-03 0. -1.
        -11    1    3    3    0    0 -0.48014023977E+01  0.15086150642E+01 -0.31649068031E+00  0.50427721551E+01  0.51100000000E-03 0.  1.
        -12    1    3    3    0    0  0.26661162504E+02  0.84026652271E+01 -0.14456449607E+02  0.31470800819E+02  0.00000000000E+00 0.  1.
</event>
<event>
 7    1  0.5753610E-013  0.5052888E+02  0.7816164E-02  0.1300439E+00
        -11   -1    0    0    0    0  0.00000000000E+00  0.00000000000E+00  0.45593999997E+02  0.45594000000E+02  0.51100000000E-03 0. -1.
         11   -1    0    0    0    0 -0.00000000000E+00 -0.00000000000E+00 -0.45593999997E+02  0.45594000000E+02  0.51100000000E-03 0.  1.
    9900012    2    1    2    0    0 -0.38386935029E+02  0.10425487705E+02  0.84211902343E+01  0.50528880239E+02  0.30000061974E+02 0.  0.
        -12    1    1    2    0    0  0.38386935029E+02 -0.10425487705E+02 -0.84211902343E+01  0.40659119761E+02  0.00000000000E+00 0.  1.
         11    1    3    3    0    0 -0.20088124451E+02  0.11648166997E+02 -0.44232476686E+01  0.23638478347E+02  0.51100000000E-03 0. -1.
        -11    1    3    3    0    0  0.62697839299E+00  0.31817643640E+01 -0.55052913824E+00  0.32893478026E+01  0.51100000000E-03 0.  1.
         12    1    3    3    0    0 -0.18925788970E+02 -0.44044436566E+01  0.13394967041E+02  0.23601054089E+02  0.00000000000E+00 0. -1.
</event>
<event>
 7    1  0.5753610E-013  0.5052886E+02  0.7816164E-02  0.1300439E+00
        -11   -1    0    0    0    0  0.00000000000E+00  0.00000000000E+00  0.45593999997E+02  0.45594000000E+02  0.51100000000E-03 0. -1.
         11   -1    0    0    0    0 -0.00000000000E+00 -0.00000000000E+00 -0.45593999997E+02  0.45594000000E+02  0.51100000000E-03 0.  1.
    9900012    2    1    2    0    0  0.10710621593E+02 -0.94147886265E+01  0.38076367061E+02  0.50528863409E+02  0.30000010817E+02 0.  0.
        -12    1    1    2    0    0 -0.10710621593E+02  0.94147886265E+01 -0.38076367061E+02  0.40659136591E+02  0.00000000000E+00 0.  1.
         11    1    3    3    0    0  0.69046256983E+01  0.53688237353E+00  0.27527188067E+02  0.28384999240E+02  0.51100000000E-03 0. -1.
        -11    1    3    3    0    0  0.78970677655E+01 -0.11676483648E+02  0.10706590352E+02  0.17701271901E+02  0.51100000000E-03 0.  1.
         12    1    3    3    0    0 -0.40910718710E+01  0.17248126480E+01 -0.15741135789E+00  0.44425922681E+01  0.00000000000E+00 0. -1.
</event>
<event>
 7    1  0.5753610E-013  0.5052889E+02  0.7816164E-02  0.1300439E+00
        -11   -1    0    0    0    0  0.00000000000E+00  0.00000000000E+00  0.45593999997E+02  0.45594000000E+02  0.51100000000E-03 0.  1.
         11   -1    0    0    0    0 -0.00000000000E+00 -0.00000000000E+00 -0.45593999997E+02  0.45594000000E+02  0.51100000000E-03 0. -1.
    9900012    2    1    2    0    0 -0.64179012915E+01 -0.17598527147E+02 -0.36086919115E+02  0.50528888525E+02  0.30000087161E+02 0.  0.
        -12    1    1    2    0    0  0.64179012915E+01  0.17598527147E+02  0.36086919115E+02  0.40659111475E+02  0.00000000000E+00 0.  1.
         11    1    3    3    0    0 -0.10071064617E+02 -0.16664268060E+02 -0.15925849145E+02  0.25154658489E+02  0.51100000000E-03 0. -1.
        -11    1    3    3    0    0 -0.58624104288E+00 -0.54295195878E+01 -0.14226611615E+01  0.56433435617E+01  0.51100000000E-03 0.  1.
         12    1    3    3    0    0  0.42394043681E+01  0.44952605008E+01 -0.18738408809E+02  0.19730886474E+02  0.00000000000E+00 0. -1.
</event>
<event>
 7    1  0.5753610E-013  0.5052888E+02  0.7816164E-02  0.1300439E+00
        -11   -1    0    0    0    0  0.00000000000E+00  0.00000000000E+00  0.45593999997E+02  0.45594000000E+02  0.51100000000E-03 0.  1.
         11   -1    0    0    0    0 -0.00000000000E+00 -0.00000000000E+00 -0.45593999997E+02  0.45594000000E+02  0.51100000000E-03 0. -1.
    9900012    2    1    2    0    0  0.24276356834E+02 -0.26413381043E+01 -0.32509170581E+02  0.50528876301E+02  0.30000050004E+02 0.  0.
        -12    1    1    2    0    0 -0.24276356834E+02  0.26413381043E+01  0.32509170581E+02  0.40659123699E+02  0.00000000000E+00 0.  1.
         11    1    3    3    0    0  0.14729372876E+02  0.74615338193E+01 -0.19606749014E+02  0.25633055210E+02  0.51100000000E-03 0. -1.
        -11    1    3    3    0    0  0.80285211147E+01 -0.34399029655E+01 -0.15329983828E+02  0.17643652913E+02  0.51100000000E-03 0.  1.
         12    1    3    3    0    0  0.15184628435E+01 -0.66629689581E+01  0.24275622605E+01  0.72521681773E+01  0.00000000000E+00 0. -1.
</event>
<event>
 7    1  0.5753610E-013  0.5052886E+02  0.7816164E-02  0.1300439E+00
        -11   -1    0    0    0    0  0.00000000000E+00  0.00000000000E+00  0.45593999997E+02  0.45594000000E+02  0.51100000000E-03 0.  1.
         11   -1    0    0    0    0 -0.00000000000E+00 -0.00000000000E+00 -0.45593999997E+02  0.45594000000E+02  0.51100000000E-03 0. -1.
    9900012    2    1    2    0    0  0.24640229381E+02  0.29088623749E+02  0.14137783148E+02  0.50528857758E+02  0.29999993640E+02 0.  0.
        -12    1    1    2    0    0 -0.24640229381E+02 -0.29088623749E+02 -0.14137783148E+02  0.40659142242E+02  0.00000000000E+00 0.  1.
         11    1    3    3    0    0  0.27871593333E+01  0.50961946322E+01 -0.32238897284E+01  0.66432614069E+01  0.51100000000E-03 0. -1.
        -11    1    3    3    0    0  0.17112814081E+02  0.19670054393E+02  0.23431432751E+02  0.35054122248E+02  0.51100000000E-03 0.  1.
         12    1    3    3    0    0  0.47402559670E+01  0.43223747237E+01 -0.60697598744E+01  0.88314741022E+01  0.00000000000E+00 0. -1.
</event>
<event>
 7    1  0.5753610E-013  0.5052889E+02  0.7816164E-02  0.1300439E+00
        -11   -1    0    0    0    0  0.00000000000E+00  0.00000000000E+00  0.45593999997E+02  0.45594000000E+02  0.51100000000E-03 0. -1.
         11   -1    0    0    0    0 -0.00000000000E+00 -0.00000000000E+00 -0.45593999997E+02  0.45594000000E+02  0.51100000000E-03 0.  1.
    9900012    2    1    2    0    0 -0.66295895828E+01  0.38476046292E+02  0.11349261940E+02  0.50528888563E+02  0.30000087275E+02 0.  0.
        -12    1    1    2    0    0  0.66295895828E+01 -0.38476046292E+02 -0.11349261940E+02  0.40659111437E+02  0.00000000000E+00 0.  1.
         11    1    3    3    0    0 -0.11040820795E+02  0.52104587906E+01  0.52790847806E+01  0.13301027818E+02  0.51100000000E-03 0. -1.
        -11    1    3    3    0    0 -0.19394687019E+01  0.42989570423E+01 -0.37116437527E+01  0.60015723027E+01  0.51100000000E-03 0.  1.
         12    1    3    3    0    0  0.63506999136E+01  0.28966630459E+02  0.97818209118E+01  0.31226288442E+02  0.00000000000E+00 0. -1.
</event>
<event>
 7    1  0.5753610E-013  0.5052886E+02  0.7816164E-02  0.1300439E+00
        -11   -1    0    0    0    0  0.00000000000E+00  0.00000000000E+00  0.45593999997E+02  0.45594000000E+02  0.51100000000E-03 0.  1.
         11   -1    0    0    0    0 -0.00000000000E+00 -0.00000000000E+00 -0.45593999997E+02  0.45594000000E+02  0.51100000000E-03 0. -1.
    9900012    2    1    2    0    0 -0.15358026000E+02 -0.35068085172E+00 -0.37645367273E+02  0.50528860599E+02  0.30000002278E+02 0.  0.
        -12    1    1    2    0    0  0.15358026000E+02  0.35068085172E+00  0.37645367273E+02  0.40659139401E+02  0.00000000000E+00 0.  1.
         11    1    3    3    0    0 -0.88714743862E+01  0.17445662015E+00 -0.14185339745E+02  0.16731926274E+02  0.51100000000E-03 0. -1.
        -11    1    3    3    0    0  0.26132482507E+01  0.55130975165E+01 -0.21937854929E+02  0.22770436750E+02  0.51100000000E-03 0.  1.
         12    1    3    3    0    0 -0.90997998645E+01 -0.60382349884E+01 -0.15221725989E+01  0.11026497575E+02  0.00000000000E+00 0. -1.
</event>
<event>
 7    1  0.5753610E-013  0.5052889E+02  0.7816164E-02  0.1300439E+00
        -11   -1    0    0    0    0  0.00000000000E+00  0.00000000000E+00  0.45593999997E+02  0.45594000000E+02  0.51100000000E-03 0.  1.
         11   -1    0    0    0    0 -0.00000000000E+00 -0.00000000000E+00 -0.45593999997E+02  0.45594000000E+02  0.51100000000E-03 0. -1.
    9900012    2    1    2    0    0 -0.30062042980E+02 -0.23573515967E+02 -0.13918552932E+02  0.50528890333E+02  0.30000092656E+02 0.  0.
        -12    1    1    2    0    0  0.30062042980E+02  0.23573515967E+02  0.13918552932E+02  0.40659109667E+02  0.00000000000E+00 0.  1.
         11    1    3    3    0    0 -0.20590731053E+02 -0.16524389772E+02 -0.23170418857E+01  0.26502874298E+02  0.51100000000E-03 0. -1.
        -11    1    3    3    0    0 -0.49631587477E+01 -0.10178812762E+01  0.41617544640E+01  0.65566170795E+01  0.51100000000E-03 0.  1.
         12    1    3    3    0    0 -0.45081531792E+01 -0.60312449181E+01 -0.15763265510E+02  0.17469398956E+02  0.00000000000E+00 0. -1.
</event>
<event>
 7    1  0.5753610E-013  0.5052886E+02  0.7816164E-02  0.1300439E+00
        -11   -1    0    0    0    0  0.00000000000E+00  0.00000000000E+00  0.45593999997E+02  0.45594000000E+02  0.51100000000E-03 0.  1.
         11   -1    0    0    0    0 -0.00000000000E+00 -0.00000000000E+00 -0.45593999997E+02  0.45594000000E+02  0.51100000000E-03 0. -1.
    9900012    2    1    2    0    0 -0.33571187915E+02 -0.19639248245E+02 -0.11850775281E+02  0.50528860752E+02  0.30000002741E+02 0.  0.
        -12    1    1    2    0    0  0.33571187915E+02  0.19639248245E+02  0.11850775281E+02  0.40659139248E+02  0.00000000000E+00 0.  1.
         11    1    3    3    0    0 -0.17435815577E+02  0.20958802382E+01 -0.32210443186E+01  0.17854285356E+02  0.51100000000E-03 0. -1.
        -11    1    3    3    0    0 -0.13348734524E+01  0.54051258007E+00 -0.55730704983E+01  0.57561407230E+01  0.51100000000E-03 0.  1.
         12    1    3    3    0    0 -0.14800498885E+02 -0.22275641063E+02 -0.30566604641E+01  0.26918434672E+02  0.00000000000E+00 0. -1.
</event>
<event>
 7    1  0.5753610E-013  0.5052886E+02  0.7816164E-02  0.1300439E+00
        -11   -1    0    0    0    0  0.00000000000E+00  0.00000000000E+00  0.45593999997E+02  0.45594000000E+02  0.51100000000E-03 0.  1.
         11   -1    0    0    0    0 -0.00000000000E+00 -0.00000000000E+00 -0.45593999997E+02  0.45594000000E+02  0.51100000000E-03 0. -1.
    9900012    2    1    2    0    0 -0.36067198271E+01 -0.27820591015E+02 -0.29430801185E+02  0.50528858707E+02  0.29999996525E+02 0.  0.
        -12    1    1    2    0    0  0.36067198271E+01  0.27820591015E+02  0.29430801185E+02  0.40659141293E+02  0.00000000000E+00 0.  1.
         11    1    3    3    0    0  0.33094999663E+00 -0.10541052561E+02 -0.22571846956E+02  0.24914084215E+02  0.51100000000E-03 0. -1.
        -11    1    3    3    0    0  0.60960846747E+01 -0.50682389541E+01 -0.57065415843E+01  0.97680044825E+01  0.51100000000E-03 0.  1.
        -12    1    3    3    0    0 -0.10033754498E+02 -0.12211299500E+02 -0.11524126440E+01  0.15846770009E+02  0.00000000000E+00 0.  1.
</event>
<event>
 7    1  0.5753610E-013  0.5052886E+02  0.7816164E-02  0.1300439E+00
        -11   -1    0    0    0    0  0.00000000000E+00  0.00000000000E+00  0.45593999997E+02  0.45594000000E+02  0.51100000000E-03 0.  1.
         11   -1    0    0    0    0 -0.00000000000E+00 -0.00000000000E+00 -0.45593999997E+02  0.45594000000E+02  0.51100000000E-03 0. -1.
    9900012    2    1    2    0    0  0.14808697655E+02 -0.22021454020E+02 -0.30804610929E+02  0.50528855667E+02  0.29999987286E+02 0.  0.
        -12    1    1    2    0    0 -0.14808697655E+02  0.22021454020E+02  0.30804610929E+02  0.40659144333E+02  0.00000000000E+00 0.  1.
         11    1    3    3    0    0  0.17054130021E+02 -0.17089740044E+02 -0.35109260840E+02  0.42609421054E+02  0.51100000000E-03 0. -1.
        -11    1    3    3    0    0  0.98251823139E+00 -0.20372251679E+01  0.10255434165E+01  0.24834186155E+01  0.51100000000E-03 0.  1.
        -12    1    3    3    0    0 -0.32279505979E+01 -0.28944888081E+01  0.32791064949E+01  0.54360159977E+01  0.00000000000E+00 0.  1.
</event>
<event>
 7    1  0.5753610E-013  0.5052897E+02  0.7816164E-02  0.1300438E+00
        -11   -1    0    0    0    0  0.00000000000E+00  0.00000000000E+00  0.45593999997E+02  0.45594000000E+02  0.51100000000E-03 0. -1.
         11   -1    0    0    0    0 -0.00000000000E+00 -0.00000000000E+00 -0.45593999997E+02  0.45594000000E+02  0.51100000000E-03 0.  1.
    9900012    2    1    2    0    0 -0.20818636257E+02 -0.32574835815E+02  0.12594486374E+02  0.50528971101E+02  0.30000338158E+02 0.  0.
        -12    1    1    2    0    0  0.20818636257E+02  0.32574835815E+02 -0.12594486374E+02  0.40659028899E+02  0.00000000000E+00 0.  1.
         11    1    3    3    0    0 -0.19621419300E+00 -0.73837020489E+01  0.49076594738E+01  0.88680706880E+01  0.51100000000E-03 0. -1.
        -11    1    3    3    0    0 -0.11783117416E+02  0.21326789471E+01  0.17139492165E+00  0.11975790246E+02  0.51100000000E-03 0.  1.
         12    1    3    3    0    0 -0.88393046474E+01 -0.27323812713E+02  0.75154319788E+01  0.29685110167E+02  0.00000000000E+00 0. -1.
</event>
<event>
 7    1  0.5753610E-013  0.5052886E+02  0.7816164E-02  0.1300439E+00
        -11   -1    0    0    0    0  0.00000000000E+00  0.00000000000E+00  0.45593999997E+02  0.45594000000E+02  0.51100000000E-03 0. -1.
         11   -1    0    0    0    0 -0.00000000000E+00 -0.00000000000E+00 -0.45593999997E+02  0.45594000000E+02  0.51100000000E-03 0.  1.
    9900012    2    1    2    0    0  0.12027254355E+02 -0.35180340713E+02  0.16457647710E+02  0.50528863412E+02  0.30000010826E+02 0.  0.
        -12    1    1    2    0    0 -0.12027254355E+02  0.35180340713E+02 -0.16457647710E+02  0.40659136588E+02  0.00000000000E+00 0.  1.
         11    1    3    3    0    0  0.11412149548E+02 -0.62696199946E+01  0.32160038262E+01  0.13412232218E+02  0.51100000000E-03 0. -1.
        -11    1    3    3    0    0 -0.57303961690E+00 -0.60208251483E+00  0.83168160271E+01  0.83582478335E+01  0.51100000000E-03 0.  1.
         12    1    3    3    0    0  0.11881444234E+01 -0.28308638203E+02  0.49248278564E+01  0.28758383360E+02  0.00000000000E+00 0. -1.
</event>
<event>
 7    1  0.5753610E-013  0.5052885E+02  0.7816164E-02  0.1300439E+00
        -11   -1    0    0    0    0  0.00000000000E+00  0.00000000000E+00  0.45593999997E+02  0.45594000000E+02  0.51100000000E-03 0. -1.
         11   -1    0    0    0    0 -0.00000000000E+00 -0.00000000000E+00 -0.45593999997E+02  0.45594000000E+02  0.51100000000E-03 0.  1.
    9900012    2    1    2    0    0  0.42403959075E+01  0.30428760123E+02  0.26632237938E+02  0.50528849767E+02  0.29999969352E+02 0.  0.
        -12    1    1    2    0    0 -0.42403959075E+01 -0.30428760123E+02 -0.26632237938E+02  0.40659150233E+02  0.00000000000E+00 0.  1.
         11    1    3    3    0    0  0.65093232268E+01  0.91248484087E+01  0.46309670619E+01  0.12127654495E+02  0.51100000000E-03 0. -1.
        -11    1    3    3    0    0  0.11104580467E+01  0.22669331346E+02  0.82089737244E+01  0.24135429365E+02  0.51100000000E-03 0.  1.
        -12    1    3    3    0    0 -0.33793853660E+01 -0.13654196317E+01  0.13792297151E+02  0.14265765908E+02  0.00000000000E+00 0.  1.
</event>
<event>
 7    1  0.5753610E-013  0.5052883E+02  0.7816164E-02  0.1300439E+00
        -11   -1    0    0    0    0  0.00000000000E+00  0.00000000000E+00  0.45593999997E+02  0.45594000000E+02  0.51100000000E-03 0. -1.
         11   -1    0    0    0    0 -0.00000000000E+00 -0.00000000000E+00 -0.45593999997E+02  0.45594000000E+02  0.51100000000E-03 0.  1.
    9900012    2    1    2    0    0 -0.96262649887E+01  0.50384758787E+01  0.39180570360E+02  0.50528827473E+02  0.29999901587E+02 0.  0.
        -12    1    1    2    0    0  0.96262649887E+01 -0.50384758787E+01 -0.39180570360E+02  0.40659172527E+02  0.00000000000E+00 0.  1.
         11    1    3    3    0    0 -0.15921043309E+02 -0.29817453212E+01  0.26525645258E+02  0.31080223323E+02  0.51100000000E-03 0. -1.
        -11    1    3    3    0    0  0.29993773269E+01  0.25822121730E+01 -0.12568463336E+01  0.41525590932E+01  0.51100000000E-03 0.  1.
        -12    1    3    3    0    0  0.32954009934E+01  0.54380090268E+01  0.13911771436E+02  0.15296045056E+02  0.00000000000E+00 0.  1.
</event>
<event>
 7    1  0.5753610E-013  0.5052885E+02  0.7816164E-02  0.1300439E+00
        -11   -1    0    0    0    0  0.00000000000E+00  0.00000000000E+00  0.45593999997E+02  0.45594000000E+02  0.51100000000E-03 0. -1.
         11   -1    0    0    0    0 -0.00000000000E+00 -0.00000000000E+00 -0.45593999997E+02  0.45594000000E+02  0.51100000000E-03 0.  1.
    9900012    2    1    2    0    0 -0.27637850448E+02  0.10664962987E+02  0.27849127862E+02  0.50528854220E+02  0.29999982886E+02 0.  0.
        -12    1    1    2    0    0  0.27637850448E+02 -0.10664962987E+02 -0.27849127862E+02  0.40659145780E+02  0.00000000000E+00 0.  1.
         11    1    3    3    0    0 -0.18203007462E+01  0.10863670036E+02  0.29938335035E+01  0.11414721230E+02  0.51100000000E-03 0. -1.
        -11    1    3    3    0    0  0.95638021167E+00  0.19158433840E+01 -0.47809469741E+00  0.21940131682E+01  0.51100000000E-03 0.  1.
        -12    1    3    3    0    0 -0.26773929914E+02 -0.21145504329E+01  0.25333389056E+02  0.36920119821E+02  0.00000000000E+00 0.  1.
</event>
<event>
 7    1  0.5753610E-013  0.5052886E+02  0.7816164E-02  0.1300439E+00
        -11   -1    0    0    0    0  0.00000000000E+00  0.00000000000E+00  0.45593999997E+02  0.45594000000E+02  0.51100000000E-03 0.  1.
         11   -1    0    0    0    0 -0.00000000000E+00 -0.00000000000E+00 -0.45593999997E+02  0.45594000000E+02  0.51100000000E-03 0. -1.
    9900012    2    1    2    0    0  0.25617480536E+02  0.28599307567E+02 -0.13378720162E+02  0.50528857664E+02  0.29999993355E+02 0.  0.
        -12    1    1    2    0    0 -0.25617480536E+02 -0.28599307567E+02  0.13378720162E+02  0.40659142336E+02  0.00000000000E+00 0.  1.
         11    1    3    3    0    0  0.13572708567E+02  0.10934744583E+02 -0.67044488645E+01  0.18674493080E+02  0.51100000000E-03 0. -1.
        -11    1    3    3    0    0  0.18177181649E+02  0.15342875938E+02 -0.81294437155E+01  0.25137653632E+02  0.51100000000E-03 0.  1.
        -12    1    3    3    0    0 -0.61324096811E+01  0.23216870466E+01  0.14551724178E+01  0.67167109514E+01  0.00000000000E+00 0.  1.
</event>
<event>
 7    1  0.5753610E-013  0.5052886E+02  0.7816164E-02  0.1300439E+00
        -11   -1    0    0    0    0  0.00000000000E+00  0.00000000000E+00  0.45593999997E+02  0.45594000000E+02  0.51100000000E-03 0.  1.
         11   -1    0    0    0    0 -0.00000000000E+00 -0.00000000000E+00 -0.45593999997E+02  0.45594000000E+02  0.51100000000E-03 0. -1.
    9900012    2    1    2    0    0  0.19905238860E+00 -0.34568265430E+02 -0.21404699873E+02  0.50528858674E+02  0.29999996427E+02 0.  0.
        -12    1    1    2    0    0 -0.19905238860E+00  0.34568265430E+02  0.21404699873E+02  0.40659141326E+02  0.00000000000E+00 0.  1.
         11    1    3    3    0    0  0.40159989851E+01 -0.24349163873E+02 -0.34278990313E+01  0.24915066149E+02  0.51100000000E-03 0. -1.
        -11    1    3    3    0    0  0.12142789105E+01 -0.10635798862E+02 -0.17537193452E+02  0.20546236764E+02  0.51100000000E-03 0.  1.
         12    1    3    3    0    0 -0.50312255070E+01  0.41669730533E+00 -0.43960738919E+00  0.50675557622E+01  0.00000000000E+00 0. -1.
</event>
<event>
 7    1  0.5753610E-013  0.5052886E+02  0.7816164E-02  0.1300439E+00
        -11   -1    0    0    0    0  0.00000000000E+00  0.00000000000E+00  0.45593999997E+02  0.45594000000E+02  0.51100000000E-03 0.  1.
         11   -1    0    0    0    0 -0.00000000000E+00 -0.00000000000E+00 -0.45593999997E+02  0.45594000000E+02  0.51100000000E-03 0. -1.
    9900012    2    1    2    0    0  0.30640457635E+02 -0.22236269937E+02 -0.14828238637E+02  0.50528855814E+02  0.29999987734E+02 0.  0.
        -12    1    1    2    0    0 -0.30640457635E+02  0.22236269937E+02  0.14828238637E+02  0.40659144186E+02  0.00000000000E+00 0.  1.
         11    1    3    3    0    0  0.66270838720E+01 -0.19265538772E+02 -0.28153297906E+00  0.20375438300E+02  0.51100000000E-03 0. -1.
        -11    1    3    3    0    0  0.79016257465E+00  0.24311407181E+01 -0.16945504803E+01  0.30669697874E+01  0.51100000000E-03 0.  1.
        -12    1    3    3    0    0  0.23223211188E+02 -0.54018718830E+01 -0.12852155178E+02  0.27086447727E+02  0.00000000000E+00 0.  1.
</event>
<event>
 7    1  0.5753610E-013  0.5052887E+02  0.7816164E-02  0.1300439E+00
        -11   -1    0    0    0    0  0.00000000000E+00  0.00000000000E+00  0.45593999997E+02  0.45594000000E+02  0.51100000000E-03 0.  1.
         11   -1    0    0    0    0 -0.00000000000E+00 -0.00000000000E+00 -0.45593999997E+02  0.45594000000E+02  0.51100000000E-03 0. -1.
    9900012    2    1    2    0    0 -0.26893337848E+02 -0.10211605016E+02 -0.28733890194E+02  0.50528868882E+02  0.30000027453E+02 0.  0.
        -12    1    1    2    0    0  0.26893337848E+02  0.10211605016E+02  0.28733890194E+02  0.40659131118E+02  0.00000000000E+00 0.  1.
         11    1    3    3    0    0 -0.13027574170E+02 -0.11552241603E+02 -0.12921445335E+02  0.21682613418E+02  0.51100000000E-03 0. -1.
        -11    1    3    3    0    0 -0.73424699550E+01 -0.70444919325E+01 -0.47189184251E+00  0.10186236489E+02  0.51100000000E-03 0.  1.
         12    1    3    3    0    0 -0.65232937228E+01  0.83851285203E+01 -0.15340553017E+02  0.18660018975E+02  0.00000000000E+00 0. -1.
</event>
<event>
 7    1  0.5753610E-013  0.5052886E+02  0.7816164E-02  0.1300439E+00
        -11   -1    0    0    0    0  0.00000000000E+00  0.00000000000E+00  0.45593999997E+02  0.45594000000E+02  0.51100000000E-03 0.  1.
         11   -1    0    0    0    0 -0.00000000000E+00 -0.00000000000E+00 -0.45593999997E+02  0.45594000000E+02  0.51100000000E-03 0. -1.
    9900012    2    1    2    0    0 -0.37648008578E+01 -0.24343835522E+02 -0.32347632183E+02  0.50528863742E+02  0.30000011831E+02 0.  0.
        -12    1    1    2    0    0  0.37648008578E+01  0.24343835522E+02  0.32347632183E+02  0.40659136258E+02  0.00000000000E+00 0.  1.
         11    1    3    3    0    0 -0.49558449911E+01 -0.57223135346E+01 -0.19583233022E+02  0.20995434923E+02  0.51100000000E-03 0. -1.
        -11    1    3    3    0    0  0.56915456981E+01 -0.70886199943E+01 -0.14416863530E+02  0.17043713802E+02  0.51100000000E-03 0.  1.
        -12    1    3    3    0    0 -0.45005015648E+01 -0.11532901993E+02  0.16524643694E+01  0.12489715017E+02  0.00000000000E+00 0.  1.
</event>
<event>
 7    1  0.8902991E-013  0.5052886E+02  0.7816164E-02  0.1300439E+00
        -11   -1    0    0    0    0  0.00000000000E+00  0.00000000000E+00  0.45593999997E+02  0.45594000000E+02  0.51100000000E-03 0. -1.
         11   -1    0    0    0    0 -0.00000000000E+00 -0.00000000000E+00 -0.45593999997E+02  0.45594000000E+02  0.51100000000E-03 0.  1.
    9900012    2    1    2    0    0 -0.14735682198E+02  0.83510002835E+01  0.36963312824E+02  0.50528855512E+02  0.29999986815E+02 0.  0.
        -12    1    1    2    0    0  0.14735682198E+02 -0.83510002835E+01 -0.36963312824E+02  0.40659144488E+02  0.00000000000E+00 0.  1.
         11    1    3    3    0    0 -0.74910333502E+01  0.69492264350E+01  0.29592133347E+02  0.31306575747E+02  0.51100000000E-03 0. -1.
        -11    1    3    3    0    0 -0.10180811037E+02  0.27568726636E+00  0.10610639965E+02  0.14707501405E+02  0.51100000000E-03 0.  1.
        -12    1    3    3    0    0  0.29361621893E+01  0.11260865821E+01 -0.32394604883E+01  0.45147783608E+01  0.00000000000E+00 0.  1.
</event>
<event>
 7    1  0.5753610E-013  0.5052886E+02  0.7816164E-02  0.1300439E+00
        -11   -1    0    0    0    0  0.00000000000E+00  0.00000000000E+00  0.45593999997E+02  0.45594000000E+02  0.51100000000E-03 0. -1.
         11   -1    0    0    0    0 -0.00000000000E+00 -0.00000000000E+00 -0.45593999997E+02  0.45594000000E+02  0.51100000000E-03 0.  1.
    9900012    2    1    2    0    0  0.23375408160E+02  0.27281740241E+02  0.19038454006E+02  0.50528858492E+02  0.29999995873E+02 0.  0.
        -12    1    1    2    0    0 -0.23375408160E+02 -0.27281740241E+02 -0.19038454006E+02  0.40659141508E+02  0.00000000000E+00 0.  1.
         11    1    3    3    0    0  0.14353817041E+02  0.26951937036E+01 -0.22846009264E+01  0.14782270949E+02  0.51100000000E-03 0. -1.
        -11    1    3    3    0    0 -0.17144839054E+01  0.11017709757E+02  0.61517079526E+01  0.12734712182E+02  0.51100000000E-03 0.  1.
         12    1    3    3    0    0  0.10736075024E+02  0.13568836780E+02  0.15171346980E+02  0.23011875362E+02  0.00000000000E+00 0. -1.
</event>
<event>
 7    1  0.5753610E-013  0.5052876E+02  0.7816164E-02  0.1300439E+00
        -11   -1    0    0    0    0  0.00000000000E+00  0.00000000000E+00  0.45593999997E+02  0.45594000000E+02  0.51100000000E-03 0.  1.
         11   -1    0    0    0    0 -0.00000000000E+00 -0.00000000000E+00 -0.45593999997E+02  0.45594000000E+02  0.51100000000E-03 0. -1.
    9900012    2    1    2    0    0  0.29979983896E+02  0.10784556472E+02 -0.25259999342E+02  0.50528761696E+02  0.29999701649E+02 0.  0.
        -12    1    1    2    0    0 -0.29979983896E+02 -0.10784556472E+02  0.25259999342E+02  0.40659238304E+02  0.00000000000E+00 0.  1.
         11    1    3    3    0    0  0.47059962865E+01  0.76319645208E+01 -0.49533979815E+01  0.10243506983E+02  0.51100000000E-03 0.  1.
        -11    1    3    3    0    0  0.79613400774E+01 -0.72799038902E+01 -0.16504993225E+02  0.19717878641E+02  0.51100000000E-03 0. -1.
         12    1    3    3    0    0  0.17312647532E+02  0.10432495841E+02 -0.38016081355E+01  0.20567376072E+02  0.00000000000E+00 0. -1.
</event>
<event>
 7    1  0.5753610E-013  0.5052886E+02  0.7816164E-02  0.1300439E+00
        -11   -1    0    0    0    0  0.00000000000E+00  0.00000000000E+00  0.45593999997E+02  0.45594000000E+02  0.51100000000E-03 0.  1.
         11   -1    0    0    0    0 -0.00000000000E+00 -0.00000000000E+00 -0.45593999997E+02  0.45594000000E+02  0.51100000000E-03 0. -1.
    9900012    2    1    2    0    0  0.39623773709E+02 -0.83633066221E+01 -0.36300962492E+01  0.50528856632E+02  0.29999990219E+02 0.  0.
        -12    1    1    2    0    0 -0.39623773709E+02  0.83633066221E+01  0.36300962492E+01  0.40659143368E+02  0.00000000000E+00 0.  1.
         11    1    3    3    0    0  0.11065867134E+02  0.33660158949E+00  0.32993707858E+01  0.11552167066E+02  0.51100000000E-03 0. -1.
        -11    1    3    3    0    0  0.26311925727E+02 -0.15687710678E+02 -0.33676032997E+01  0.30818216269E+02  0.51100000000E-03 0.  1.
         12    1    3    3    0    0  0.22459808484E+01  0.69878024664E+01 -0.35618637353E+01  0.81584732977E+01  0.00000000000E+00 0. -1.
</event>
<event>
 7    1  0.5753610E-013  0.5052886E+02  0.7816164E-02  0.1300439E+00
        -11   -1    0    0    0    0  0.00000000000E+00  0.00000000000E+00  0.45593999997E+02  0.45594000000E+02  0.51100000000E-03 0. -1.
         11   -1    0    0    0    0 -0.00000000000E+00 -0.00000000000E+00 -0.45593999997E+02  0.45594000000E+02  0.51100000000E-03 0.  1.
    9900012    2    1    2    0    0 -0.21281869547E+02  0.34637205480E+02  0.71509452393E+00  0.50528864064E+02  0.30000012809E+02 0.  0.
        -12    1    1    2    0    0  0.21281869547E+02 -0.34637205480E+02 -0.71509452393E+00  0.40659135936E+02  0.00000000000E+00 0.  1.
         11    1    3    3    0    0 -0.16370507331E+02  0.15274045721E+02 -0.24591199559E+01  0.22524148245E+02  0.51100000000E-03 0. -1.
        -11    1    3    3    0    0 -0.34059822458E+01  0.21067945379E+02 -0.28823179159E+01  0.21535245398E+02  0.51100000000E-03 0.  1.
        -12    1    3    3    0    0 -0.15053799701E+01 -0.17047856194E+01  0.60565323958E+01  0.64694704206E+01  0.00000000000E+00 0.  1.
</event>
<event>
 7    1  0.5753610E-013  0.5052886E+02  0.7816164E-02  0.1300439E+00
        -11   -1    0    0    0    0  0.00000000000E+00  0.00000000000E+00  0.45593999997E+02  0.45594000000E+02  0.51100000000E-03 0.  1.
         11   -1    0    0    0    0 -0.00000000000E+00 -0.00000000000E+00 -0.45593999997E+02  0.45594000000E+02  0.51100000000E-03 0. -1.
    9900012    2    1    2    0    0  0.34282093494E+02  0.24933970827E+01 -0.21718356926E+02  0.50528855999E+02  0.29999988294E+02 0.  0.
        -12    1    1    2    0    0 -0.34282093494E+02 -0.24933970827E+01  0.21718356926E+02  0.40659144001E+02  0.00000000000E+00 0.  1.
         11    1    3    3    0    0  0.24059187597E+02 -0.37328385327E+00 -0.11628793994E+02  0.26724758159E+02  0.51100000000E-03 0. -1.
        -11    1    3    3    0    0  0.87263596925E+01 -0.70548051425E+01 -0.73104217570E+01  0.13392606005E+02  0.51100000000E-03 0.  1.
        -12    1    3    3    0    0  0.14965462047E+01  0.99214860785E+01 -0.27791411749E+01  0.10411491834E+02  0.00000000000E+00 0.  1.
</event>
<event>
 7    1  0.5753610E-013  0.5052885E+02  0.7816164E-02  0.1300439E+00
        -11   -1    0    0    0    0  0.00000000000E+00  0.00000000000E+00  0.45593999997E+02  0.45594000000E+02  0.51100000000E-03 0. -1.
         11   -1    0    0    0    0 -0.00000000000E+00 -0.00000000000E+00 -0.45593999997E+02  0.45594000000E+02  0.51100000000E-03 0.  1.
    9900012    2    1    2    0    0 -0.20664170997E+02 -0.11762062307E+02  0.32981999803E+02  0.50528851168E+02  0.29999973611E+02 0.  0.
        -12    1    1    2    0    0  0.20664170997E+02  0.11762062307E+02 -0.32981999803E+02  0.40659148832E+02  0.00000000000E+00 0.  1.
         11    1    3    3    0    0 -0.12694164790E+02 -0.10882003157E+02  0.13274097735E+02  0.21348570991E+02  0.51100000000E-03 0. -1.
        -11    1    3    3    0    0  0.12876437950E+00  0.15501492313E+01  0.20617384020E+02  0.20675978018E+02  0.51100000000E-03 0.  1.
         12    1    3    3    0    0 -0.80987705865E+01 -0.24302083810E+01 -0.90948195191E+00  0.85043021588E+01  0.00000000000E+00 0. -1.
</event>
<event>
 7    1  0.5753610E-013  0.5052889E+02  0.7816164E-02  0.1300439E+00
        -11   -1    0    0    0    0  0.00000000000E+00  0.00000000000E+00  0.45593999997E+02  0.45594000000E+02  0.51100000000E-03 0.  1.
         11   -1    0    0    0    0 -0.00000000000E+00 -0.00000000000E+00 -0.45593999997E+02  0.45594000000E+02  0.51100000000E-03 0. -1.
    9900012    2    1    2    0    0 -0.18526818348E+00  0.40236005847E+02 -0.58474251569E+01  0.50528894356E+02  0.30000104885E+02 0.  0.
        -12    1    1    2    0    0  0.18526818348E+00 -0.40236005847E+02  0.58474251569E+01  0.40659105644E+02  0.00000000000E+00 0.  1.
         11    1    3    3    0    0  0.57341728928E+00 -0.88669651668E+00 -0.22334533731E+01  0.24704963735E+01  0.51100000000E-03 0. -1.
        -11    1    3    3    0    0 -0.38106703763E+01  0.12121676915E+02  0.97154725580E+01  0.15995207633E+02  0.51100000000E-03 0.  1.
         12    1    3    3    0    0  0.30519849035E+01  0.29001025448E+02 -0.13329444342E+02  0.32063190349E+02  0.00000000000E+00 0. -1.
</event>
<event>
 7    1  0.5753610E-013  0.5052883E+02  0.7816164E-02  0.1300439E+00
        -11   -1    0    0    0    0  0.00000000000E+00  0.00000000000E+00  0.45593999997E+02  0.45594000000E+02  0.51100000000E-03 0. -1.
         11   -1    0    0    0    0 -0.00000000000E+00 -0.00000000000E+00 -0.45593999997E+02  0.45594000000E+02  0.51100000000E-03 0.  1.
    9900012    2    1    2    0    0 -0.42520136219E+01 -0.39208373764E+02 -0.98889909785E+01  0.50528827165E+02  0.29999900651E+02 0.  0.
        -12    1    1    2    0    0  0.42520136219E+01  0.39208373764E+02  0.98889909785E+01  0.40659172835E+02  0.00000000000E+00 0.  1.
         11    1    3    3    0    0  0.17552445916E+01 -0.18292475465E+02 -0.75995467993E+01  0.19885890828E+02  0.51100000000E-03 0. -1.
        -11    1    3    3    0    0  0.58076663120E+01 -0.12003914921E+02  0.48782990226E+01  0.14199322626E+02  0.51100000000E-03 0.  1.
        -12    1    3    3    0    0 -0.11814924526E+02 -0.89119833773E+01 -0.71677432018E+01  0.16443613711E+02  0.00000000000E+00 0.  1.
</event>
<event>
 7    1  0.5753610E-013  0.5052886E+02  0.7816164E-02  0.1300439E+00
        -11   -1    0    0    0    0  0.00000000000E+00  0.00000000000E+00  0.45593999997E+02  0.45594000000E+02  0.51100000000E-03 0. -1.
         11   -1    0    0    0    0 -0.00000000000E+00 -0.00000000000E+00 -0.45593999997E+02  0.45594000000E+02  0.51100000000E-03 0.  1.
    9900012    2    1    2    0    0 -0.65390450516E+01  0.36016732504E+02 -0.17697499065E+02  0.50528860762E+02  0.30000002773E+02 0.  0.
        -12    1    1    2    0    0  0.65390450516E+01 -0.36016732504E+02  0.17697499065E+02  0.40659139238E+02  0.00000000000E+00 0.  1.
         11    1    3    3    0    0  0.73420171039E+01  0.56609214119E+01 -0.10848688473E+02  0.14270434059E+02  0.51100000000E-03 0. -1.
        -11    1    3    3    0    0  0.27907876228E+00  0.19635298938E+01 -0.39236643556E+01  0.43964163629E+01  0.51100000000E-03 0.  1.
         12    1    3    3    0    0 -0.14160140918E+02  0.28392281198E+02 -0.29251462363E+01  0.31862010340E+02  0.00000000000E+00 0. -1.
</event>
<event>
 7    1  0.5753610E-013  0.5052884E+02  0.7816164E-02  0.1300439E+00
        -11   -1    0    0    0    0  0.00000000000E+00  0.00000000000E+00  0.45593999997E+02  0.45594000000E+02  0.51100000000E-03 0.  1.
         11   -1    0    0    0    0 -0.00000000000E+00 -0.00000000000E+00 -0.45593999997E+02  0.45594000000E+02  0.51100000000E-03 0. -1.
    9900012    2    1    2    0    0  0.37471844777E+01  0.34830669925E+02  0.20638563289E+02  0.50528840472E+02  0.29999941099E+02 0.  0.
        -12    1    1    2    0    0 -0.37471844777E+01 -0.34830669925E+02 -0.20638563289E+02  0.40659159528E+02  0.00000000000E+00 0.  1.
         11    1    3    3    0    0  0.95916844545E+01  0.13603143414E+02  0.17401124695E+01  0.16735408961E+02  0.51100000000E-03 0. -1.
        -11    1    3    3    0    0  0.87662067598E+00 -0.28048124867E+01  0.30297876339E+01  0.42207878723E+01  0.51100000000E-03 0.  1.
         12    1    3    3    0    0 -0.67211206528E+01  0.24032338997E+02  0.15868663185E+02  0.29572643639E+02  0.00000000000E+00 0. -1.
</event>
<event>
 7    1  0.5753610E-013  0.5052885E+02  0.7816164E-02  0.1300439E+00
        -11   -1    0    0    0    0  0.00000000000E+00  0.00000000000E+00  0.45593999997E+02  0.45594000000E+02  0.51100000000E-03 0.  1.
         11   -1    0    0    0    0 -0.00000000000E+00 -0.00000000000E+00 -0.45593999997E+02  0.45594000000E+02  0.51100000000E-03 0. -1.
    9900012    2    1    2    0    0  0.79795955614E+01 -0.34072264000E+02 -0.20702003840E+02  0.50528854874E+02  0.29999984874E+02 0.  0.
        -12    1    1    2    0    0 -0.79795955614E+01  0.34072264000E+02  0.20702003840E+02  0.40659145126E+02  0.00000000000E+00 0.  1.
         11    1    3    3    0    0  0.13419459506E+02 -0.10597793910E+02 -0.45468981175E+01  0.17693767602E+02  0.51100000000E-03 0. -1.
        -11    1    3    3    0    0  0.11527407372E+01 -0.19438001970E+02 -0.15835418169E+02  0.25098310713E+02  0.51100000000E-03 0.  1.
        -12    1    3    3    0    0 -0.65926046822E+01 -0.40364681201E+01 -0.31968755265E+00  0.77367765582E+01  0.00000000000E+00 0.  1.
</event>
<event>
 7    1  0.5753610E-013  0.5052883E+02  0.7816164E-02  0.1300439E+00
        -11   -1    0    0    0    0  0.00000000000E+00  0.00000000000E+00  0.45593999997E+02  0.45594000000E+02  0.51100000000E-03 0.  1.
         11   -1    0    0    0    0 -0.00000000000E+00 -0.00000000000E+00 -0.45593999997E+02  0.45594000000E+02  0.51100000000E-03 0. -1.
    9900012    2    1    2    0    0  0.14898063973E+02 -0.24094596865E+02 -0.29166178432E+02  0.50528832860E+02  0.29999917961E+02 0.  0.
        -12    1    1    2    0    0 -0.14898063973E+02  0.24094596865E+02  0.29166178432E+02  0.40659167140E+02  0.00000000000E+00 0.  1.
         11    1    3    3    0    0 -0.45431177716E+01 -0.17002043948E+02 -0.14322895484E+02  0.22690411032E+02  0.51100000000E-03 0. -1.
        -11    1    3    3    0    0  0.97220842092E+00 -0.10769599651E+01  0.17631123841E+01  0.22833303572E+01  0.51100000000E-03 0.  1.
         12    1    3    3    0    0  0.18468973323E+02 -0.60155929521E+01 -0.16606395332E+02  0.25555091471E+02  0.00000000000E+00 0. -1.
</event>
<event>
 7    1  0.5753610E-013  0.5052885E+02  0.7816164E-02  0.1300439E+00
        -11   -1    0    0    0    0  0.00000000000E+00  0.00000000000E+00  0.45593999997E+02  0.45594000000E+02  0.51100000000E-03 0.  1.
         11   -1    0    0    0    0 -0.00000000000E+00 -0.00000000000E+00 -0.45593999997E+02  0.45594000000E+02  0.51100000000E-03 0. -1.
    9900012    2    1    2    0    0 -0.33517591405E+02  0.70308511217E+01 -0.21915848967E+02  0.50528852973E+02  0.29999979096E+02 0.  0.
        -12    1    1    2    0    0  0.33517591405E+02 -0.70308511217E+01  0.21915848967E+02  0.40659147027E+02  0.00000000000E+00 0.  1.
         11    1    3    3    0    0 -0.13262251282E+02 -0.17729275603E+01 -0.64396459398E+01  0.14849229653E+02  0.51100000000E-03 0. -1.
        -11    1    3    3    0    0 -0.15174826525E+02  0.89520180881E+01 -0.21500768988E+02  0.27797428933E+02  0.51100000000E-03 0.  1.
        -12    1    3    3    0    0 -0.50805135973E+01 -0.14823940612E+00  0.60245659612E+01  0.78821943870E+01  0.00000000000E+00 0.  1.
</event>
<event>
 7    1  0.5753610E-013  0.5052887E+02  0.7816164E-02  0.1300439E+00
        -11   -1    0    0    0    0  0.00000000000E+00  0.00000000000E+00  0.45593999997E+02  0.45594000000E+02  0.51100000000E-03 0.  1.
         11   -1    0    0    0    0 -0.00000000000E+00 -0.00000000000E+00 -0.45593999997E+02  0.45594000000E+02  0.51100000000E-03 0. -1.
    9900012    2    1    2    0    0  0.30629834519E+02  0.48388271453E+01 -0.26297608259E+02  0.50528865590E+02  0.30000017446E+02 0.  0.
        -12    1    1    2    0    0 -0.30629834519E+02 -0.48388271453E+01  0.26297608259E+02  0.40659134410E+02  0.00000000000E+00 0.  1.
         11    1    3    3    0    0  0.65741517297E+01 -0.18153962260E+01 -0.15055936272E+02  0.16528652447E+02  0.51100000000E-03 0. -1.
        -11    1    3    3    0    0  0.11027666142E+02 -0.70305491732E+01 -0.60218993458E+01  0.14397962154E+02  0.51100000000E-03 0.  1.
         12    1    3    3    0    0  0.13028016648E+02  0.13684772544E+02 -0.52197726415E+01  0.19602250988E+02  0.00000000000E+00 0. -1.
</event>
<event>
 7    1  0.5753610E-013  0.5052886E+02  0.7816164E-02  0.1300439E+00
        -11   -1    0    0    0    0  0.00000000000E+00  0.00000000000E+00  0.45593999997E+02  0.45594000000E+02  0.51100000000E-03 0. -1.
         11   -1    0    0    0    0 -0.00000000000E+00 -0.00000000000E+00 -0.45593999997E+02  0.45594000000E+02  0.51100000000E-03 0.  1.
    9900012    2    1    2    0    0  0.32066379954E+02 -0.50542324820E+01 -0.24481980391E+02  0.50528863841E+02  0.30000012131E+02 0.  0.
        -12    1    1    2    0    0 -0.32066379954E+02  0.50542324820E+01  0.24481980391E+02  0.40659136159E+02  0.00000000000E+00 0.  1.
         11    1    3    3    0    0 -0.11843812244E+01 -0.31123330392E+01 -0.40948534253E+01  0.52779921057E+01  0.51100000000E-03 0. -1.
        -11    1    3    3    0    0  0.40262936720E+01 -0.79150068925E+01 -0.10664511190E+02  0.13877686191E+02  0.51100000000E-03 0.  1.
        -12    1    3    3    0    0  0.29224467507E+02  0.59731074497E+01 -0.97226157752E+01  0.31373185544E+02  0.00000000000E+00 0.  1.
</event>
<event>
 7    1  0.5753610E-013  0.5052884E+02  0.7816164E-02  0.1300439E+00
        -11   -1    0    0    0    0  0.00000000000E+00  0.00000000000E+00  0.45593999997E+02  0.45594000000E+02  0.51100000000E-03 0.  1.
         11   -1    0    0    0    0 -0.00000000000E+00 -0.00000000000E+00 -0.45593999997E+02  0.45594000000E+02  0.51100000000E-03 0. -1.
    9900012    2    1    2    0    0 -0.36689983641E+02 -0.17442914158E+02  0.16605368952E+01  0.50528836990E+02  0.29999930514E+02 0.  0.
        -12    1    1    2    0    0  0.36689983641E+02  0.17442914158E+02 -0.16605368952E+01  0.40659163010E+02  0.00000000000E+00 0.  1.
         11    1    3    3    0    0  0.98782799810E+00  0.43102222747E+01 -0.73775650544E+00  0.44830910245E+01  0.51100000000E-03 0. -1.
        -11    1    3    3    0    0 -0.88680562023E+01 -0.82771999443E+01 -0.54303826634E+01  0.13290730449E+02  0.51100000000E-03 0.  1.
         12    1    3    3    0    0 -0.28809755437E+02 -0.13475936488E+02  0.78286760641E+01  0.32755015517E+02  0.00000000000E+00 0. -1.
</event>
<event>
 7    1  0.5753610E-013  0.5052885E+02  0.7816164E-02  0.1300439E+00
        -11   -1    0    0    0    0  0.00000000000E+00  0.00000000000E+00  0.45593999997E+02  0.45594000000E+02  0.51100000000E-03 0.  1.
         11   -1    0    0    0    0 -0.00000000000E+00 -0.00000000000E+00 -0.45593999997E+02  0.45594000000E+02  0.51100000000E-03 0. -1.
    9900012    2    1    2    0    0 -0.27900437458E+02  0.29570504471E+02 -0.56304170112E+00  0.50528853908E+02  0.29999981939E+02 0.  0.
        -12    1    1    2    0    0  0.27900437458E+02 -0.29570504471E+02  0.56304170112E+00  0.40659146092E+02  0.00000000000E+00 0.  1.
         11    1    3    3    0    0  0.39234746111E+01  0.73903705534E+00 -0.62349928426E+00  0.40408638200E+01  0.51100000000E-03 0. -1.
        -11    1    3    3    0    0 -0.10985460914E+02  0.21941892115E+02 -0.17477948750E+00  0.24538898289E+02  0.51100000000E-03 0.  1.
         12    1    3    3    0    0 -0.20838451155E+02  0.68895753001E+01  0.23523707064E+00  0.21949091799E+02  0.00000000000E+00 0. -1.
</event>
<event>
 7    1  0.5753610E-013  0.5052886E+02  0.7816164E-02  0.1300439E+00
        -11   -1    0    0    0    0  0.00000000000E+00  0.00000000000E+00  0.45593999997E+02  0.45594000000E+02  0.51100000000E-03 0.  1.
         11   -1    0    0    0    0 -0.00000000000E+00 -0.00000000000E+00 -0.45593999997E+02  0.45594000000E+02  0.51100000000E-03 0. -1.
    9900012    2    1    2    0    0  0.37508362423E+02 -0.60923342653E+01 -0.14462764199E+02  0.50528864043E+02  0.30000012747E+02 0.  0.
        -12    1    1    2    0    0 -0.37508362423E+02  0.60923342653E+01  0.14462764199E+02  0.40659135957E+02  0.00000000000E+00 0.  1.
         11    1    3    3    0    0  0.10877697060E+02  0.14210521469E+01  0.16806330135E+01  0.11098117413E+02  0.51100000000E-03 0. -1.
        -11    1    3    3    0    0  0.27393933424E+02 -0.41136614438E+01 -0.20050177751E+02  0.34195897810E+02  0.51100000000E-03 0.  1.
        -12    1    3    3    0    0 -0.76326806111E+00 -0.33997249684E+01  0.39067805385E+01  0.52348488201E+01  0.00000000000E+00 0.  1.
</event>
<event>
 7    1  0.5753610E-013  0.5052896E+02  0.7816164E-02  0.1300438E+00
        -11   -1    0    0    0    0  0.00000000000E+00  0.00000000000E+00  0.45593999997E+02  0.45594000000E+02  0.51100000000E-03 0.  1.
         11   -1    0    0    0    0 -0.00000000000E+00 -0.00000000000E+00 -0.45593999997E+02  0.45594000000E+02  0.51100000000E-03 0. -1.
    9900012    2    1    2    0    0 -0.30496683321E+02  0.25434792025E+02  0.87281931291E+01  0.50528958026E+02  0.30000298416E+02 0.  0.
        -12    1    1    2    0    0  0.30496683321E+02 -0.25434792025E+02 -0.87281931291E+01  0.40659041974E+02  0.00000000000E+00 0.  1.
         11    1    3    3    0    0 -0.74094940494E+01  0.11647502431E+02  0.58565460061E+01  0.14995467526E+02  0.51100000000E-03 0. -1.
        -11    1    3    3    0    0 -0.51644668611E+01  0.10495818757E+02  0.10556659687E+02  0.15756807842E+02  0.51100000000E-03 0.  1.
         12    1    3    3    0    0 -0.17922722410E+02  0.32914708370E+01 -0.76850125645E+01  0.19776682659E+02  0.00000000000E+00 0. -1.
</event>
<event>
 7    1  0.5753610E-013  0.5052887E+02  0.7816164E-02  0.1300439E+00
        -11   -1    0    0    0    0  0.00000000000E+00  0.00000000000E+00  0.45593999997E+02  0.45594000000E+02  0.51100000000E-03 0.  1.
         11   -1    0    0    0    0 -0.00000000000E+00 -0.00000000000E+00 -0.45593999997E+02  0.45594000000E+02  0.51100000000E-03 0. -1.
    9900012    2    1    2    0    0 -0.14925740319E+02  0.36538319920E+02  0.97641228665E+01  0.50528872587E+02  0.30000038715E+02 0.  0.
        -12    1    1    2    0    0  0.14925740319E+02 -0.36538319920E+02 -0.97641228665E+01  0.40659127413E+02  0.00000000000E+00 0.  1.
         11    1    3    3    0    0 -0.32160765860E+01 -0.36698130978E+01  0.38842032795E+01  0.62368030398E+01  0.51100000000E-03 0. -1.
        -11    1    3    3    0    0 -0.51163054180E+01  0.75192107455E+01  0.60877043783E+01  0.10944188240E+02  0.51100000000E-03 0.  1.
         12    1    3    3    0    0 -0.65933583152E+01  0.32688922272E+02 -0.20778479129E+00  0.33347881308E+02  0.00000000000E+00 0. -1.
</event>
<event>
 7    1  0.5753610E-013  0.5052886E+02  0.7816164E-02  0.1300439E+00
        -11   -1    0    0    0    0  0.00000000000E+00  0.00000000000E+00  0.45593999997E+02  0.45594000000E+02  0.51100000000E-03 0. -1.
         11   -1    0    0    0    0 -0.00000000000E+00 -0.00000000000E+00 -0.45593999997E+02  0.45594000000E+02  0.51100000000E-03 0.  1.
    9900012    2    1    2    0    0  0.27580649299E+02 -0.14922124425E+02  0.25880560445E+02  0.50528862994E+02  0.30000009558E+02 0.  0.
        -12    1    1    2    0    0 -0.27580649299E+02  0.14922124425E+02 -0.25880560445E+02  0.40659137006E+02  0.00000000000E+00 0.  1.
         11    1    3    3    0    0  0.27412121517E+02 -0.92029922778E+01  0.29718815036E+02  0.41464773487E+02  0.51100000000E-03 0. -1.
        -11    1    3    3    0    0  0.28245453915E+01 -0.30893827953E+01 -0.32075827441E+01  0.52736069294E+01  0.51100000000E-03 0.  1.
        -12    1    3    3    0    0 -0.26560176098E+01 -0.26297493514E+01 -0.63067184665E+00  0.37904825779E+01  0.00000000000E+00 0.  1.
</event>
<event>
 7    1  0.5753610E-013  0.5052886E+02  0.7816164E-02  0.1300439E+00
        -11   -1    0    0    0    0  0.00000000000E+00  0.00000000000E+00  0.45593999997E+02  0.45594000000E+02  0.51100000000E-03 0.  1.
         11   -1    0    0    0    0 -0.00000000000E+00 -0.00000000000E+00 -0.45593999997E+02  0.45594000000E+02  0.51100000000E-03 0. -1.
    9900012    2    1    2    0    0  0.11250689890E+02  0.32954579391E+02 -0.20990072335E+02  0.50528862497E+02  0.30000008047E+02 0.  0.
        -12    1    1    2    0    0 -0.11250689890E+02 -0.32954579391E+02  0.20990072335E+02  0.40659137503E+02  0.00000000000E+00 0.  1.
         11    1    3    3    0    0  0.10640954325E+02  0.40998020201E+01 -0.10726466495E+02  0.15655522006E+02  0.51100000000E-03 0. -1.
        -11    1    3    3    0    0  0.86381889566E+01  0.15217977067E+02 -0.50743496074E+01  0.18219609180E+02  0.51100000000E-03 0.  1.
        -12    1    3    3    0    0 -0.80284533909E+01  0.13636800303E+02 -0.51892562329E+01  0.16653731312E+02  0.00000000000E+00 0.  1.
</event>
<event>
 7    1  0.5753610E-013  0.5052886E+02  0.7816164E-02  0.1300439E+00
        -11   -1    0    0    0    0  0.00000000000E+00  0.00000000000E+00  0.45593999997E+02  0.45594000000E+02  0.51100000000E-03 0. -1.
         11   -1    0    0    0    0 -0.00000000000E+00 -0.00000000000E+00 -0.45593999997E+02  0.45594000000E+02  0.51100000000E-03 0.  1.
    9900012    2    1    2    0    0  0.19251313350E+02 -0.35013792079E+02  0.75224468978E+01  0.50528857009E+02  0.29999991364E+02 0.  0.
        -12    1    1    2    0    0 -0.19251313350E+02  0.35013792079E+02 -0.75224468978E+01  0.40659142991E+02  0.00000000000E+00 0.  1.
         11    1    3    3    0    0 -0.36467960004E+01 -0.89717239958E+01  0.12801206746E+01  0.97688106609E+01  0.51100000000E-03 0. -1.
        -11    1    3    3    0    0 -0.24073219463E+01 -0.94076386699E+01  0.36200637223E+01  0.10363576888E+02  0.51100000000E-03 0.  1.
        -12    1    3    3    0    0  0.25305431296E+02 -0.16634429414E+02  0.26222625009E+01  0.30396469460E+02  0.00000000000E+00 0.  1.
</event>
<event>
 7    1  0.5753610E-013  0.5052886E+02  0.7816164E-02  0.1300439E+00
        -11   -1    0    0    0    0  0.00000000000E+00  0.00000000000E+00  0.45593999997E+02  0.45594000000E+02  0.51100000000E-03 0. -1.
         11   -1    0    0    0    0 -0.00000000000E+00 -0.00000000000E+00 -0.45593999997E+02  0.45594000000E+02  0.51100000000E-03 0.  1.
    9900012    2    1    2    0    0  0.36228914290E+01  0.28669373070E+02  0.28602572327E+02  0.50528862795E+02  0.30000008951E+02 0.  0.
        -12    1    1    2    0    0 -0.36228914290E+01 -0.28669373070E+02 -0.28602572327E+02  0.40659137205E+02  0.00000000000E+00 0.  1.
         11    1    3    3    0    0  0.64218277504E+01  0.13303098295E+02 -0.47717214136E+00  0.14779715472E+02  0.51100000000E-03 0. -1.
        -11    1    3    3    0    0 -0.43940615107E+01  0.78843532890E+01  0.46578040908E+01  0.10157063678E+02  0.51100000000E-03 0.  1.
        -12    1    3    3    0    0  0.15951251892E+01  0.74819214860E+01  0.24421940378E+02  0.25592083645E+02  0.00000000000E+00 0.  1.
</event>
<event>
 7    1  0.5753610E-013  0.5052888E+02  0.7816164E-02  0.1300439E+00
        -11   -1    0    0    0    0  0.00000000000E+00  0.00000000000E+00  0.45593999997E+02  0.45594000000E+02  0.51100000000E-03 0.  1.
         11   -1    0    0    0    0 -0.00000000000E+00 -0.00000000000E+00 -0.45593999997E+02  0.45594000000E+02  0.51100000000E-03 0. -1.
    9900012    2    1    2    0    0  0.18962122894E+02 -0.23762507326E+02 -0.26998979056E+02  0.50528883813E+02  0.30000072837E+02 0.  0.
        -12    1    1    2    0    0 -0.18962122894E+02  0.23762507326E+02  0.26998979056E+02  0.40659116187E+02  0.00000000000E+00 0.  1.
         11    1    3    3    0    0  0.10931552632E+02 -0.11652891918E+02 -0.17293334466E+02  0.23544599173E+02  0.51100000000E-03 0. -1.
        -11    1    3    3    0    0  0.13921732083E+02 -0.31410127335E+01 -0.39524492812E+01  0.14808863588E+02  0.51100000000E-03 0.  1.
         12    1    3    3    0    0 -0.58911618215E+01 -0.89686026739E+01 -0.57531953092E+01  0.12175421052E+02  0.00000000000E+00 0. -1.
</event>
<event>
 7    1  0.5753610E-013  0.5052887E+02  0.7816164E-02  0.1300439E+00
        -11   -1    0    0    0    0  0.00000000000E+00  0.00000000000E+00  0.45593999997E+02  0.45594000000E+02  0.51100000000E-03 0.  1.
         11   -1    0    0    0    0 -0.00000000000E+00 -0.00000000000E+00 -0.45593999997E+02  0.45594000000E+02  0.51100000000E-03 0. -1.
    9900012    2    1    2    0    0 -0.16102301028E+02 -0.18724863635E+02 -0.32299541678E+02  0.50528868072E+02  0.30000024992E+02 0.  0.
        -12    1    1    2    0    0  0.16102301028E+02  0.18724863635E+02  0.32299541678E+02  0.40659131928E+02  0.00000000000E+00 0.  1.
         11    1    3    3    0    0  0.47559030915E+01 -0.98411283452E+01 -0.23831247009E+02  0.26218214195E+02  0.51100000000E-03 0.  1.
        -11    1    3    3    0    0 -0.33406457794E+01 -0.22281222273E+01 -0.20031422693E+01  0.44874293415E+01  0.51100000000E-03 0. -1.
        -12    1    3    3    0    0 -0.17517558340E+02 -0.66556130628E+01 -0.64651523994E+01  0.19823224535E+02  0.00000000000E+00 0.  1.
</event>
<event>
 7    1  0.5753610E-013  0.5052886E+02  0.7816164E-02  0.1300439E+00
        -11   -1    0    0    0    0  0.00000000000E+00  0.00000000000E+00  0.45593999997E+02  0.45594000000E+02  0.51100000000E-03 0. -1.
         11   -1    0    0    0    0 -0.00000000000E+00 -0.00000000000E+00 -0.45593999997E+02  0.45594000000E+02  0.51100000000E-03 0.  1.
    9900012    2    1    2    0    0 -0.28897329070E+02 -0.23604519664E+02  0.16153525404E+02  0.50528863771E+02  0.30000011918E+02 0.  0.
        -12    1    1    2    0    0  0.28897329070E+02  0.23604519664E+02 -0.16153525404E+02  0.40659136229E+02  0.00000000000E+00 0.  1.
         11    1    3    3    0    0 -0.13604145860E+01 -0.68353876373E+01  0.11145526823E+02  0.13145190011E+02  0.51100000000E-03 0. -1.
        -11    1    3    3    0    0 -0.14754977293E+02 -0.16459540087E+02  0.91789068660E+01  0.23934873017E+02  0.51100000000E-03 0.  1.
        -12    1    3    3    0    0 -0.12781937190E+02 -0.30959193936E+00 -0.41709082852E+01  0.13448800743E+02  0.00000000000E+00 0.  1.
</event>
<event>
 7    1  0.5753610E-013  0.5052885E+02  0.7816164E-02  0.1300439E+00
        -11   -1    0    0    0    0  0.00000000000E+00  0.00000000000E+00  0.45593999997E+02  0.45594000000E+02  0.51100000000E-03 0.  1.
         11   -1    0    0    0    0 -0.00000000000E+00 -0.00000000000E+00 -0.45593999997E+02  0.45594000000E+02  0.51100000000E-03 0. -1.
    9900012    2    1    2    0    0 -0.22787478242E+02 -0.30966094059E+02 -0.13228685786E+02  0.50528852523E+02  0.29999977730E+02 0.  0.
        -12    1    1    2    0    0  0.22787478242E+02  0.30966094059E+02  0.13228685786E+02  0.40659147477E+02  0.00000000000E+00 0.  1.
         11    1    3    3    0    0  0.24852415916E+01 -0.79690641975E+01 -0.10298080662E+02  0.13256427707E+02  0.51100000000E-03 0. -1.
        -11    1    3    3    0    0 -0.51139558974E+00 -0.60357835624E+01  0.28710765511E+01  0.67033789602E+01  0.51100000000E-03 0.  1.
         12    1    3    3    0    0 -0.24761324244E+02 -0.16961246299E+02 -0.58016816747E+01  0.30569045857E+02  0.00000000000E+00 0. -1.
</event>
<event>
 7    1  0.5753610E-013  0.5052887E+02  0.7816164E-02  0.1300439E+00
        -11   -1    0    0    0    0  0.00000000000E+00  0.00000000000E+00  0.45593999997E+02  0.45594000000E+02  0.51100000000E-03 0. -1.
         11   -1    0    0    0    0 -0.00000000000E+00 -0.00000000000E+00 -0.45593999997E+02  0.45594000000E+02  0.51100000000E-03 0.  1.
    9900012    2    1    2    0    0  0.30249116160E+02  0.25457816523E+02  0.94897562117E+01  0.50528869125E+02  0.30000028192E+02 0.  0.
        -12    1    1    2    0    0 -0.30249116160E+02 -0.25457816523E+02 -0.94897562117E+01  0.40659130875E+02  0.00000000000E+00 0.  1.
         11    1    3    3    0    0  0.12992726224E+02  0.10076875345E+02 -0.88278191730E+01  0.18662388461E+02  0.51100000000E-03 0. -1.
        -11    1    3    3    0    0  0.29352694658E+01 -0.19196129674E+01  0.35318936360E+01  0.49774485129E+01  0.51100000000E-03 0.  1.
        -12    1    3    3    0    0  0.14321120470E+02  0.17300554145E+02  0.14785681749E+02  0.26889032151E+02  0.00000000000E+00 0.  1.
</event>
<event>
 7    1  0.5753610E-013  0.5052887E+02  0.7816164E-02  0.1300439E+00
        -11   -1    0    0    0    0  0.00000000000E+00  0.00000000000E+00  0.45593999997E+02  0.45594000000E+02  0.51100000000E-03 0.  1.
         11   -1    0    0    0    0 -0.00000000000E+00 -0.00000000000E+00 -0.45593999997E+02  0.45594000000E+02  0.51100000000E-03 0. -1.
    9900012    2    1    2    0    0 -0.21046634956E+02 -0.25339700402E+02 -0.23834915703E+02  0.50528874751E+02  0.30000045293E+02 0.  0.
        -12    1    1    2    0    0  0.21046634956E+02  0.25339700402E+02  0.23834915703E+02  0.40659125249E+02  0.00000000000E+00 0.  1.
         11    1    3    3    0    0 -0.21889624664E+01 -0.46891456757E+01  0.29986721509E+01  0.59809429672E+01  0.51100000000E-03 0. -1.
        -11    1    3    3    0    0 -0.12815092792E+02 -0.75105778798E+00 -0.35291893605E+01  0.13313371807E+02  0.51100000000E-03 0.  1.
         12    1    3    3    0    0 -0.60425796980E+01 -0.19899496938E+02 -0.23304398494E+02  0.31234559977E+02  0.00000000000E+00 0. -1.
</event>
<event>
 7    1  0.5753610E-013  0.5052886E+02  0.7816164E-02  0.1300439E+00
        -11   -1    0    0    0    0  0.00000000000E+00  0.00000000000E+00  0.45593999997E+02  0.45594000000E+02  0.51100000000E-03 0.  1.
         11   -1    0    0    0    0 -0.00000000000E+00 -0.00000000000E+00 -0.45593999997E+02  0.45594000000E+02  0.51100000000E-03 0. -1.
    9900012    2    1    2    0    0 -0.12356898551E+02  0.28879186456E+02 -0.25815997342E+02  0.50528855015E+02  0.29999985305E+02 0.  0.
        -12    1    1    2    0    0  0.12356898551E+02 -0.28879186456E+02  0.25815997342E+02  0.40659144985E+02  0.00000000000E+00 0.  1.
         11    1    3    3    0    0 -0.10530857162E+02  0.16606817331E+02 -0.18773089955E+02  0.27186655571E+02  0.51100000000E-03 0. -1.
        -11    1    3    3    0    0 -0.83258977501E+01  0.79830173867E+01 -0.97439778110E+01  0.15099478262E+02  0.51100000000E-03 0.  1.
        -12    1    3    3    0    0  0.64998563617E+01  0.42893517383E+01  0.27010704239E+01  0.82427211825E+01  0.00000000000E+00 0.  1.
</event>
<event>
 7    1  0.5753610E-013  0.5052891E+02  0.7816164E-02  0.1300439E+00
        -11   -1    0    0    0    0  0.00000000000E+00  0.00000000000E+00  0.45593999997E+02  0.45594000000E+02  0.51100000000E-03 0.  1.
         11   -1    0    0    0    0 -0.00000000000E+00 -0.00000000000E+00 -0.45593999997E+02  0.45594000000E+02  0.51100000000E-03 0. -1.
    9900012    2    1    2    0    0  0.28027144588E+02 -0.47054299601E+01 -0.29077477861E+02  0.50528909705E+02  0.30000151539E+02 0.  0.
        -12    1    1    2    0    0 -0.28027144588E+02  0.47054299601E+01  0.29077477861E+02  0.40659090295E+02  0.00000000000E+00 0.  1.
         11    1    3    3    0    0  0.19902315298E+02 -0.36839353220E+00 -0.77018230206E+01  0.21343756608E+02  0.51100000000E-03 0. -1.
        -11    1    3    3    0    0  0.85875766208E+01  0.52885907963E+01 -0.12709279747E+02  0.16224717464E+02  0.51100000000E-03 0.  1.
        -12    1    3    3    0    0 -0.46274733097E+00 -0.96256272242E+01 -0.86663750930E+01  0.12960435633E+02  0.00000000000E+00 0.  1.
</event>
<event>
 7    1  0.5753610E-013  0.5052886E+02  0.7816164E-02  0.1300439E+00
        -11   -1    0    0    0    0  0.00000000000E+00  0.00000000000E+00  0.45593999997E+02  0.45594000000E+02  0.51100000000E-03 0.  1.
         11   -1    0    0    0    0 -0.00000000000E+00 -0.00000000000E+00 -0.45593999997E+02  0.45594000000E+02  0.51100000000E-03 0. -1.
    9900012    2    1    2    0    0 -0.30517809222E+02  0.28025040244E+01 -0.26720306043E+02  0.50528862484E+02  0.30000008005E+02 0.  0.
        -12    1    1    2    0    0  0.30517809222E+02 -0.28025040244E+01  0.26720306043E+02  0.40659137516E+02  0.00000000000E+00 0.  1.
         11    1    3    3    0    0 -0.11265374932E+02  0.72429232525E+00 -0.48568214092E+01  0.12289100300E+02  0.51100000000E-03 0. -1.
        -11    1    3    3    0    0  0.14784628067E+01  0.92745768274E+01 -0.57129563772E+01  0.10992793022E+02  0.51100000000E-03 0.  1.
         12    1    3    3    0    0 -0.20730897098E+02 -0.71963651283E+01 -0.16150528257E+02  0.27246969162E+02  0.00000000000E+00 0. -1.
</event>
<event>
 7    1  0.5753610E-013  0.5052886E+02  0.7816164E-02  0.1300439E+00
        -11   -1    0    0    0    0  0.00000000000E+00  0.00000000000E+00  0.45593999997E+02  0.45594000000E+02  0.51100000000E-03 0.  1.
         11   -1    0    0    0    0 -0.00000000000E+00 -0.00000000000E+00 -0.45593999997E+02  0.45594000000E+02  0.51100000000E-03 0. -1.
    9900012    2    1    2    0    0  0.37719613096E+02  0.12957515227E+02  0.79056468334E+01  0.50528860009E+02  0.30000000484E+02 0.  0.
        -12    1    1    2    0    0 -0.37719613096E+02 -0.12957515227E+02 -0.79056468334E+01  0.40659139991E+02  0.00000000000E+00 0.  1.
         11    1    3    3    0    0  0.33899853302E+01 -0.25963309903E+01  0.56274693691E+01  0.70640885407E+01  0.51100000000E-03 0. -1.
        -11    1    3    3    0    0  0.14995899257E+02  0.18511240552E+02  0.54310172110E+00  0.23829351251E+02  0.51100000000E-03 0.  1.
         12    1    3    3    0    0  0.19333728508E+02 -0.29573943352E+01  0.17350757433E+01  0.19635420217E+02  0.00000000000E+00 0. -1.
</event>
<event>
 7    1  0.5753610E-013  0.5052886E+02  0.7816164E-02  0.1300439E+00
        -11   -1    0    0    0    0  0.00000000000E+00  0.00000000000E+00  0.45593999997E+02  0.45594000000E+02  0.51100000000E-03 0.  1.
         11   -1    0    0    0    0 -0.00000000000E+00 -0.00000000000E+00 -0.45593999997E+02  0.45594000000E+02  0.51100000000E-03 0. -1.
    9900012    2    1    2    0    0  0.10092033581E+02  0.33679849545E+02 -0.20420184834E+02  0.50528863808E+02  0.30000012032E+02 0.  0.
        -12    1    1    2    0    0 -0.10092033581E+02 -0.33679849545E+02  0.20420184834E+02  0.40659136192E+02  0.00000000000E+00 0.  1.
         11    1    3    3    0    0  0.12435409904E+02  0.81204412020E+01 -0.33359464277E+01  0.15222007871E+02  0.51100000000E-03 0. -1.
        -11    1    3    3    0    0  0.15700346742E+01  0.16839157156E+02 -0.14394191253E+01  0.16973336451E+02  0.51100000000E-03 0.  1.
         12    1    3    3    0    0 -0.39134109980E+01  0.87202511879E+01 -0.15644819281E+02  0.18333519486E+02  0.00000000000E+00 0. -1.
</event>
<event>
 7    1  0.5753610E-013  0.5052886E+02  0.7816164E-02  0.1300439E+00
        -11   -1    0    0    0    0  0.00000000000E+00  0.00000000000E+00  0.45593999997E+02  0.45594000000E+02  0.51100000000E-03 0.  1.
         11   -1    0    0    0    0 -0.00000000000E+00 -0.00000000000E+00 -0.45593999997E+02  0.45594000000E+02  0.51100000000E-03 0. -1.
    9900012    2    1    2    0    0 -0.20807254209E+02  0.32733953115E+02  0.12194744943E+02  0.50528864268E+02  0.30000013428E+02 0.  0.
        -12    1    1    2    0    0  0.20807254209E+02 -0.32733953115E+02 -0.12194744943E+02  0.40659135732E+02  0.00000000000E+00 0.  1.
         11    1    3    3    0    0 -0.45905221340E+00  0.51462501517E+00 -0.43563721933E+01  0.44106175065E+01  0.51100000000E-03 0.  1.
        -11    1    3    3    0    0 -0.71686662946E-01  0.15478227670E+02  0.86981662981E+00  0.15502814325E+02  0.51100000000E-03 0. -1.
         12    1    3    3    0    0 -0.20276515333E+02  0.16741100430E+02  0.15681300507E+02  0.30615432436E+02  0.00000000000E+00 0. -1.
</event>
<event>
 7    1  0.5753610E-013  0.5052888E+02  0.7816164E-02  0.1300439E+00
        -11   -1    0    0    0    0  0.00000000000E+00  0.00000000000E+00  0.45593999997E+02  0.45594000000E+02  0.51100000000E-03 0. -1.
         11   -1    0    0    0    0 -0.00000000000E+00 -0.00000000000E+00 -0.45593999997E+02  0.45594000000E+02  0.51100000000E-03 0.  1.
    9900012    2    1    2    0    0  0.27980825232E+02 -0.21398475027E+02  0.20306229876E+02  0.50528876965E+02  0.30000052024E+02 0.  0.
        -12    1    1    2    0    0 -0.27980825232E+02  0.21398475027E+02 -0.20306229876E+02  0.40659123035E+02  0.00000000000E+00 0.  1.
         11    1    3    3    0    0  0.18172981897E+02 -0.62694033775E+01  0.12271603399E+02  0.22806905533E+02  0.51100000000E-03 0. -1.
        -11    1    3    3    0    0  0.89146767282E+01 -0.19717473461E+02  0.79297121878E+01  0.23046269904E+02  0.51100000000E-03 0.  1.
         12    1    3    3    0    0  0.89316660743E+00  0.45884018117E+01  0.10491428882E+00  0.46757015283E+01  0.00000000000E+00 0. -1.
</event>
<event>
 7    1  0.5753610E-013  0.5052887E+02  0.7816164E-02  0.1300439E+00
        -11   -1    0    0    0    0  0.00000000000E+00  0.00000000000E+00  0.45593999997E+02  0.45594000000E+02  0.51100000000E-03 0.  1.
         11   -1    0    0    0    0 -0.00000000000E+00 -0.00000000000E+00 -0.45593999997E+02  0.45594000000E+02  0.51100000000E-03 0. -1.
    9900012    2    1    2    0    0 -0.23210883017E+02  0.32682310549E+02 -0.68033958356E+01  0.50528871773E+02  0.30000036242E+02 0.  0.
        -12    1    1    2    0    0  0.23210883017E+02 -0.32682310549E+02  0.68033958356E+01  0.40659128227E+02  0.00000000000E+00 0.  1.
         11    1    3    3    0    0 -0.21980846736E+01  0.60651442155E+01 -0.10753022813E+02  0.12539738851E+02  0.51100000000E-03 0. -1.
        -11    1    3    3    0    0 -0.24178217331E+01 -0.14686884986E+01  0.32356078610E+01  0.42979141837E+01  0.51100000000E-03 0.  1.
        -12    1    3    3    0    0 -0.18594976610E+02  0.28085854832E+02  0.71401911616E+00  0.33691218738E+02  0.00000000000E+00 0.  1.
</event>
<event>
 7    1  0.5753610E-013  0.5052895E+02  0.7816164E-02  0.1300438E+00
        -11   -1    0    0    0    0  0.00000000000E+00  0.00000000000E+00  0.45593999997E+02  0.45594000000E+02  0.51100000000E-03 0. -1.
         11   -1    0    0    0    0 -0.00000000000E+00 -0.00000000000E+00 -0.45593999997E+02  0.45594000000E+02  0.51100000000E-03 0.  1.
    9900012    2    1    2    0    0 -0.15657985245E+02  0.35607315364E+02  0.11836609604E+02  0.50528945211E+02  0.30000259464E+02 0.  0.
        -12    1    1    2    0    0  0.15657985245E+02 -0.35607315364E+02 -0.11836609604E+02  0.40659054789E+02  0.00000000000E+00 0.  1.
         11    1    3    3    0    0 -0.59713892239E+01  0.16334605389E+02  0.15824574422E+02  0.23513697676E+02  0.51100000000E-03 0. -1.
        -11    1    3    3    0    0 -0.10207117260E+02  0.12581009584E+02  0.38944647089E+01  0.16662349790E+02  0.51100000000E-03 0.  1.
        -12    1    3    3    0    0  0.52052123865E+00  0.66917003909E+01 -0.78824295267E+01  0.10352897745E+02  0.00000000000E+00 0.  1.
</event>
<event>
 7    1  0.5753610E-013  0.5052886E+02  0.7816164E-02  0.1300439E+00
        -11   -1    0    0    0    0  0.00000000000E+00  0.00000000000E+00  0.45593999997E+02  0.45594000000E+02  0.51100000000E-03 0. -1.
         11   -1    0    0    0    0 -0.00000000000E+00 -0.00000000000E+00 -0.45593999997E+02  0.45594000000E+02  0.51100000000E-03 0.  1.
    9900012    2    1    2    0    0  0.35998760943E+02 -0.17367630033E+02  0.74578913943E+01  0.50528861957E+02  0.30000006403E+02 0.  0.
        -12    1    1    2    0    0 -0.35998760943E+02  0.17367630033E+02 -0.74578913943E+01  0.40659138043E+02  0.00000000000E+00 0.  1.
         11    1    3    3    0    0  0.11779043182E+02 -0.27568702836E+01 -0.56790727836E+01  0.13364058515E+02  0.51100000000E-03 0.  1.
        -11    1    3    3    0    0  0.18016124664E+02  0.79146683495E+00  0.84256684531E+01  0.19904749604E+02  0.51100000000E-03 0. -1.
        -12    1    3    3    0    0  0.62035930967E+01 -0.15402226585E+02  0.47112957248E+01  0.17260053838E+02  0.00000000000E+00 0.  1.
</event>
<event>
 7    1  0.5753610E-013  0.5052885E+02  0.7816164E-02  0.1300439E+00
        -11   -1    0    0    0    0  0.00000000000E+00  0.00000000000E+00  0.45593999997E+02  0.45594000000E+02  0.51100000000E-03 0. -1.
         11   -1    0    0    0    0 -0.00000000000E+00 -0.00000000000E+00 -0.45593999997E+02  0.45594000000E+02  0.51100000000E-03 0.  1.
    9900012    2    1    2    0    0 -0.30374246165E+02 -0.98104698879E+01  0.25185827827E+02  0.50528854991E+02  0.29999985231E+02 0.  0.
        -12    1    1    2    0    0  0.30374246165E+02  0.98104698879E+01 -0.25185827827E+02  0.40659145009E+02  0.00000000000E+00 0.  1.
         11    1    3    3    0    0 -0.49315723068E+01  0.38027191619E+00 -0.30125996438E+01  0.57914392876E+01  0.51100000000E-03 0.  1.
        -11    1    3    3    0    0 -0.19580546987E+02 -0.10613721928E+01  0.27619291685E+02  0.33872549427E+02  0.51100000000E-03 0. -1.
         12    1    3    3    0    0 -0.58621268714E+01 -0.91293696113E+01  0.57913578593E+00  0.10864866277E+02  0.00000000000E+00 0. -1.
</event>
<event>
 7    1  0.5753610E-013  0.5052887E+02  0.7816164E-02  0.1300439E+00
        -11   -1    0    0    0    0  0.00000000000E+00  0.00000000000E+00  0.45593999997E+02  0.45594000000E+02  0.51100000000E-03 0.  1.
         11   -1    0    0    0    0 -0.00000000000E+00 -0.00000000000E+00 -0.45593999997E+02  0.45594000000E+02  0.51100000000E-03 0. -1.
    9900012    2    1    2    0    0 -0.32501615089E+02 -0.80136676128E+01  0.23077941943E+02  0.50528865032E+02  0.30000015751E+02 0.  0.
        -12    1    1    2    0    0  0.32501615089E+02  0.80136676128E+01 -0.23077941943E+02  0.40659134968E+02  0.00000000000E+00 0.  1.
         11    1    3    3    0    0 -0.29110790916E+02 -0.16075785256E+02  0.14018151426E+02  0.36088468920E+02  0.51100000000E-03 0. -1.
        -11    1    3    3    0    0 -0.14989660099E+01  0.21324778120E+01  0.76178025421E+01  0.80514145682E+01  0.51100000000E-03 0.  1.
        -12    1    3    3    0    0 -0.18918581640E+01  0.59296398316E+01  0.14419879752E+01  0.63889815437E+01  0.00000000000E+00 0.  1.
</event>
<event>
 7    1  0.5753610E-013  0.5052886E+02  0.7816164E-02  0.1300439E+00
        -11   -1    0    0    0    0  0.00000000000E+00  0.00000000000E+00  0.45593999997E+02  0.45594000000E+02  0.51100000000E-03 0. -1.
         11   -1    0    0    0    0 -0.00000000000E+00 -0.00000000000E+00 -0.45593999997E+02  0.45594000000E+02  0.51100000000E-03 0.  1.
    9900012    2    1    2    0    0 -0.10191428091E+02 -0.95811228606E+01  0.38177256395E+02  0.50528855547E+02  0.29999986920E+02 0.  0.
        -12    1    1    2    0    0  0.10191428091E+02  0.95811228606E+01 -0.38177256395E+02  0.40659144453E+02  0.00000000000E+00 0.  1.
         11    1    3    3    0    0 -0.11557456167E+01 -0.63696451637E+01  0.89175025788E+01  0.11019527211E+02  0.51100000000E-03 0. -1.
        -11    1    3    3    0    0  0.83767493697E+01  0.96775221637E+00  0.11764864645E+02  0.14474754393E+02  0.51100000000E-03 0.  1.
         12    1    3    3    0    0 -0.17412431844E+02 -0.41792299132E+01  0.17494889172E+02  0.25034573943E+02  0.00000000000E+00 0. -1.
</event>
<event>
 7    1  0.5753610E-013  0.5052886E+02  0.7816164E-02  0.1300439E+00
        -11   -1    0    0    0    0  0.00000000000E+00  0.00000000000E+00  0.45593999997E+02  0.45594000000E+02  0.51100000000E-03 0.  1.
         11   -1    0    0    0    0 -0.00000000000E+00 -0.00000000000E+00 -0.45593999997E+02  0.45594000000E+02  0.51100000000E-03 0. -1.
    9900012    2    1    2    0    0  0.10255639695E+02  0.27431032039E+02 -0.28205066459E+02  0.50528862795E+02  0.30000008953E+02 0.  0.
        -12    1    1    2    0    0 -0.10255639695E+02 -0.27431032039E+02  0.28205066459E+02  0.40659137205E+02  0.00000000000E+00 0.  1.
         11    1    3    3    0    0  0.20486511367E+01 -0.79853842226E+00  0.14172537745E+01  0.26159594061E+01  0.51100000000E-03 0.  1.
        -11    1    3    3    0    0  0.15982421277E+02  0.17930056813E+02 -0.23595366103E+02  0.33669957365E+02  0.51100000000E-03 0. -1.
         12    1    3    3    0    0 -0.77754327184E+01  0.10299513648E+02 -0.60269541305E+01  0.14242946024E+02  0.00000000000E+00 0. -1.
</event>
<event>
 7    1  0.5753610E-013  0.5052893E+02  0.7816164E-02  0.1300439E+00
        -11   -1    0    0    0    0  0.00000000000E+00  0.00000000000E+00  0.45593999997E+02  0.45594000000E+02  0.51100000000E-03 0.  1.
         11   -1    0    0    0    0 -0.00000000000E+00 -0.00000000000E+00 -0.45593999997E+02  0.45594000000E+02  0.51100000000E-03 0. -1.
    9900012    2    1    2    0    0  0.35939481275E+02 -0.18988785167E+02 -0.96936659707E+00  0.50528930311E+02  0.30000214172E+02 0.  0.
        -12    1    1    2    0    0 -0.35939481275E+02  0.18988785167E+02  0.96936659707E+00  0.40659069689E+02  0.00000000000E+00 0.  1.
         11    1    3    3    0    0  0.13415793328E+02 -0.67421012304E+01  0.66406341289E+01  0.16417596094E+02  0.51100000000E-03 0. -1.
        -11    1    3    3    0    0  0.14107074361E+00  0.25513473253E+01  0.41033674908E+01  0.48339320594E+01  0.51100000000E-03 0.  1.
         12    1    3    3    0    0  0.22382617203E+02 -0.14798031262E+02 -0.11713368217E+02  0.29277402157E+02  0.00000000000E+00 0. -1.
</event>
<event>
 7    1  0.5990211E-013  0.5052886E+02  0.7816164E-02  0.1300439E+00
        -11   -1    0    0    0    0  0.00000000000E+00  0.00000000000E+00  0.45593999997E+02  0.45594000000E+02  0.51100000000E-03 0. -1.
         11   -1    0    0    0    0 -0.00000000000E+00 -0.00000000000E+00 -0.45593999997E+02  0.45594000000E+02  0.51100000000E-03 0.  1.
    9900012    2    1    2    0    0  0.21870583166E+02 -0.22105608566E+02  0.26195146774E+02  0.50528855240E+02  0.29999985987E+02 0.  0.
        -12    1    1    2    0    0 -0.21870583166E+02  0.22105608566E+02 -0.26195146774E+02  0.40659144760E+02  0.00000000000E+00 0.  1.
         11    1    3    3    0    0  0.17832235966E+02 -0.21738194441E+02  0.23583587828E+02  0.36697729524E+02  0.51100000000E-03 0. -1.
        -11    1    3    3    0    0 -0.29334967866E+01 -0.24106924192E+01  0.49139135213E+01  0.62099426481E+01  0.51100000000E-03 0.  1.
        -12    1    3    3    0    0  0.69718439867E+01  0.20432782949E+01 -0.23023545749E+01  0.76211830678E+01  0.00000000000E+00 0.  1.
</event>
<event>
 7    1  0.5753610E-013  0.5052888E+02  0.7816164E-02  0.1300439E+00
        -11   -1    0    0    0    0  0.00000000000E+00  0.00000000000E+00  0.45593999997E+02  0.45594000000E+02  0.51100000000E-03 0.  1.
         11   -1    0    0    0    0 -0.00000000000E+00 -0.00000000000E+00 -0.45593999997E+02  0.45594000000E+02  0.51100000000E-03 0. -1.
    9900012    2    1    2    0    0  0.36234377057E+02 -0.18396114809E+02 -0.13479505970E+01  0.50528879355E+02  0.30000059288E+02 0.  0.
        -12    1    1    2    0    0 -0.36234377057E+02  0.18396114809E+02  0.13479505970E+01  0.40659120645E+02  0.00000000000E+00 0.  1.
         11    1    3    3    0    0  0.56975681645E+01  0.42820535543E+01 -0.33953818267E+01  0.78947377184E+01  0.51100000000E-03 0. -1.
        -11    1    3    3    0    0 -0.13485226580E+01 -0.13510030263E+01  0.37799731153E+01  0.42346097281E+01  0.51100000000E-03 0.  1.
         12    1    3    3    0    0  0.31885331551E+02 -0.21327165337E+02 -0.17325418856E+01  0.38399531909E+02  0.00000000000E+00 0. -1.
</event>
<event>
 7    1  0.5753610E-013  0.5052886E+02  0.7816164E-02  0.1300439E+00
        -11   -1    0    0    0    0  0.00000000000E+00  0.00000000000E+00  0.45593999997E+02  0.45594000000E+02  0.51100000000E-03 0.  1.
         11   -1    0    0    0    0 -0.00000000000E+00 -0.00000000000E+00 -0.45593999997E+02  0.45594000000E+02  0.51100000000E-03 0. -1.
    9900012    2    1    2    0    0 -0.18340398031E+02  0.25796886918E+02 -0.25520889174E+02  0.50528863772E+02  0.30000011921E+02 0.  0.
        -12    1    1    2    0    0  0.18340398031E+02 -0.25796886918E+02  0.25520889174E+02  0.40659136228E+02  0.00000000000E+00 0.  1.
         11    1    3    3    0    0 -0.62777602457E+01  0.68720033979E-01 -0.17182791665E+01  0.65090306268E+01  0.51100000000E-03 0. -1.
        -11    1    3    3    0    0  0.19080469086E+01  0.45823606586E+01  0.40178263567E+01  0.63860473773E+01  0.51100000000E-03 0.  1.
         12    1    3    3    0    0 -0.13970684694E+02  0.21145806225E+02 -0.27820436365E+02  0.37633785768E+02  0.00000000000E+00 0. -1.
</event>
<event>
 7    1  0.5753610E-013  0.5052886E+02  0.7816164E-02  0.1300439E+00
        -11   -1    0    0    0    0  0.00000000000E+00  0.00000000000E+00  0.45593999997E+02  0.45594000000E+02  0.51100000000E-03 0.  1.
         11   -1    0    0    0    0 -0.00000000000E+00 -0.00000000000E+00 -0.45593999997E+02  0.45594000000E+02  0.51100000000E-03 0. -1.
    9900012    2    1    2    0    0 -0.20273745191E+02  0.22047448706E+02 -0.27496374206E+02  0.50528864090E+02  0.30000012887E+02 0.  0.
        -12    1    1    2    0    0  0.20273745191E+02 -0.22047448706E+02  0.27496374206E+02  0.40659135910E+02  0.00000000000E+00 0.  1.
         11    1    3    3    0    0 -0.13543608736E+02  0.88475645230E+01 -0.20434705499E+02  0.26063114255E+02  0.51100000000E-03 0. -1.
        -11    1    3    3    0    0  0.25230775159E+01  0.96897791476E+01 -0.99908251678E+01  0.14144763267E+02  0.51100000000E-03 0.  1.
        -12    1    3    3    0    0 -0.92532139713E+01  0.35101050348E+01  0.29291564612E+01  0.10320986568E+02  0.00000000000E+00 0.  1.
</event>
<event>
 7    1  0.5753610E-013  0.5052876E+02  0.7816164E-02  0.1300439E+00
        -11   -1    0    0    0    0  0.00000000000E+00  0.00000000000E+00  0.45593999997E+02  0.45594000000E+02  0.51100000000E-03 0.  1.
         11   -1    0    0    0    0 -0.00000000000E+00 -0.00000000000E+00 -0.45593999997E+02  0.45594000000E+02  0.51100000000E-03 0. -1.
    9900012    2    1    2    0    0  0.30324278826E+02 -0.10231759807E+02 -0.25078341754E+02  0.50528757260E+02  0.29999688166E+02 0.  0.
        -12    1    1    2    0    0 -0.30324278826E+02  0.10231759807E+02  0.25078341754E+02  0.40659242740E+02  0.00000000000E+00 0.  1.
         11    1    3    3    0    0  0.11964215259E+02 -0.85352286013E+01 -0.55829098513E+01  0.15721369429E+02  0.51100000000E-03 0. -1.
        -11    1    3    3    0    0 -0.99398587732E+00 -0.77802925441E+01 -0.90921395907E+01  0.12007829221E+02  0.51100000000E-03 0.  1.
         12    1    3    3    0    0  0.19354049444E+02  0.60837613383E+01 -0.10403292312E+02  0.22799558611E+02  0.00000000000E+00 0. -1.
</event>
<event>
 7    1  0.5753610E-013  0.5052882E+02  0.7816164E-02  0.1300439E+00
        -11   -1    0    0    0    0  0.00000000000E+00  0.00000000000E+00  0.45593999997E+02  0.45594000000E+02  0.51100000000E-03 0.  1.
         11   -1    0    0    0    0 -0.00000000000E+00 -0.00000000000E+00 -0.45593999997E+02  0.45594000000E+02  0.51100000000E-03 0. -1.
    9900012    2    1    2    0    0 -0.40151518345E+02 -0.29873114718E+01 -0.56657039815E+01  0.50528823215E+02  0.29999888644E+02 0.  0.
        -12    1    1    2    0    0  0.40151518345E+02  0.29873114718E+01  0.56657039815E+01  0.40659176785E+02  0.00000000000E+00 0.  1.
         11    1    3    3    0    0 -0.14224917373E+02  0.78726136637E+01 -0.84520252375E+01  0.18323838327E+02  0.51100000000E-03 0. -1.
        -11    1    3    3    0    0  0.16152182589E+01  0.55305084075E-01  0.19963657668E+01  0.25685531359E+01  0.51100000000E-03 0.  1.
         12    1    3    3    0    0 -0.27541819231E+02 -0.10915230220E+02  0.78995548920E+00  0.29636431752E+02  0.00000000000E+00 0. -1.
</event>
<event>
 7    1  0.5753610E-013  0.5052889E+02  0.7816164E-02  0.1300439E+00
        -11   -1    0    0    0    0  0.00000000000E+00  0.00000000000E+00  0.45593999997E+02  0.45594000000E+02  0.51100000000E-03 0.  1.
         11   -1    0    0    0    0 -0.00000000000E+00 -0.00000000000E+00 -0.45593999997E+02  0.45594000000E+02  0.51100000000E-03 0. -1.
    9900012    2    1    2    0    0  0.14759218594E+01 -0.38856173588E+02 -0.11882031643E+02  0.50528889739E+02  0.30000090852E+02 0.  0.
        -12    1    1    2    0    0 -0.14759218594E+01  0.38856173588E+02  0.11882031643E+02  0.40659110261E+02  0.00000000000E+00 0.  1.
         11    1    3    3    0    0  0.12349558759E+02 -0.21170196876E+02 -0.40000418630E+01  0.24833227186E+02  0.51100000000E-03 0. -1.
        -11    1    3    3    0    0 -0.10444538615E+01  0.20480866866E+01 -0.14961511448E+01  0.27429931560E+01  0.51100000000E-03 0.  1.
        -12    1    3    3    0    0 -0.98291830377E+01 -0.19734063398E+02 -0.63858386351E+01  0.22952669397E+02  0.00000000000E+00 0.  1.
</event>
<event>
 7    1  0.5753610E-013  0.5052886E+02  0.7816164E-02  0.1300439E+00
        -11   -1    0    0    0    0  0.00000000000E+00  0.00000000000E+00  0.45593999997E+02  0.45594000000E+02  0.51100000000E-03 0.  1.
         11   -1    0    0    0    0 -0.00000000000E+00 -0.00000000000E+00 -0.45593999997E+02  0.45594000000E+02  0.51100000000E-03 0. -1.
    9900012    2    1    2    0    0 -0.33256106469E+01 -0.17680445064E+02 -0.36462414898E+02  0.50528861740E+02  0.30000005745E+02 0.  0.
        -12    1    1    2    0    0  0.33256106469E+01  0.17680445064E+02  0.36462414898E+02  0.40659138260E+02  0.00000000000E+00 0.  1.
         11    1    3    3    0    0 -0.13311118624E+02 -0.82399471845E+01 -0.21530620244E+02  0.26620484913E+02  0.51100000000E-03 0. -1.
        -11    1    3    3    0    0 -0.21605313339E+01 -0.31286993102E+01 -0.73140141378E+01  0.82432674400E+01  0.51100000000E-03 0.  1.
        -12    1    3    3    0    0  0.12146039311E+02 -0.63117985690E+01 -0.76177805164E+01  0.15665109387E+02  0.00000000000E+00 0.  1.
</event>
<event>
 7    1  0.5753610E-013  0.5052886E+02  0.7816164E-02  0.1300439E+00
        -11   -1    0    0    0    0  0.00000000000E+00  0.00000000000E+00  0.45593999997E+02  0.45594000000E+02  0.51100000000E-03 0.  1.
         11   -1    0    0    0    0 -0.00000000000E+00 -0.00000000000E+00 -0.45593999997E+02  0.45594000000E+02  0.51100000000E-03 0. -1.
    9900012    2    1    2    0    0 -0.15024836754E+02  0.21144876590E+02 -0.31309971682E+02  0.50528857704E+02  0.29999993478E+02 0.  0.
        -12    1    1    2    0    0  0.15024836754E+02 -0.21144876590E+02  0.31309971682E+02  0.40659142296E+02  0.00000000000E+00 0.  1.
         11    1    3    3    0    0 -0.18720255500E+01 -0.88622980185E+00 -0.18750350436E+02  0.18864398338E+02  0.51100000000E-03 0.  1.
        -11    1    3    3    0    0 -0.36489999792E+01  0.13232681207E+02 -0.12717290205E+02  0.18712255962E+02  0.51100000000E-03 0. -1.
        -12    1    3    3    0    0 -0.95038112246E+01  0.87984251854E+01  0.15766895862E+00  0.12952203405E+02  0.00000000000E+00 0.  1.
</event>
<event>
 7    1  0.5753610E-013  0.5052887E+02  0.7816164E-02  0.1300439E+00
        -11   -1    0    0    0    0  0.00000000000E+00  0.00000000000E+00  0.45593999997E+02  0.45594000000E+02  0.51100000000E-03 0.  1.
         11   -1    0    0    0    0 -0.00000000000E+00 -0.00000000000E+00 -0.45593999997E+02  0.45594000000E+02  0.51100000000E-03 0. -1.
    9900012    2    1    2    0    0  0.77963970397E+00  0.27994941714E+01 -0.40555148634E+02  0.50528867122E+02  0.30000022103E+02 0.  0.
        -12    1    1    2    0    0 -0.77963970397E+00 -0.27994941714E+01  0.40555148634E+02  0.40659132878E+02  0.00000000000E+00 0.  1.
         11    1    3    3    0    0 -0.43272533929E+01  0.43819993229E+01 -0.96238993958E+01  0.11425693845E+02  0.51100000000E-03 0. -1.
        -11    1    3    3    0    0 -0.29937547379E+01 -0.10565368316E+02 -0.19917896743E+02  0.22744497928E+02  0.51100000000E-03 0.  1.
         12    1    3    3    0    0  0.81006478348E+01  0.89828631644E+01 -0.11013352496E+02  0.16358675349E+02  0.00000000000E+00 0. -1.
</event>
<event>
 7    1  0.5753610E-013  0.5052885E+02  0.7816164E-02  0.1300439E+00
        -11   -1    0    0    0    0  0.00000000000E+00  0.00000000000E+00  0.45593999997E+02  0.45594000000E+02  0.51100000000E-03 0.  1.
         11   -1    0    0    0    0 -0.00000000000E+00 -0.00000000000E+00 -0.45593999997E+02  0.45594000000E+02  0.51100000000E-03 0. -1.
    9900012    2    1    2    0    0 -0.21084715081E+02 -0.16676096604E+02  0.30504250799E+02  0.50528846974E+02  0.29999960861E+02 0.  0.
        -12    1    1    2    0    0  0.21084715081E+02  0.16676096604E+02 -0.30504250799E+02  0.40659153026E+02  0.00000000000E+00 0.  1.
         11    1    3    3    0    0  0.31577614871E+00  0.39369849371E+01  0.34982221798E+01  0.52760898070E+01  0.51100000000E-03 0. -1.
        -11    1    3    3    0    0 -0.34393034842E+01 -0.68762483205E+01  0.20238537025E+02  0.21649710867E+02  0.51100000000E-03 0.  1.
         12    1    3    3    0    0 -0.17961187746E+02 -0.13736833220E+02  0.67674915943E+01  0.23603046300E+02  0.00000000000E+00 0. -1.
</event>
<event>
 7    1  0.5753610E-013  0.5052886E+02  0.7816164E-02  0.1300439E+00
        -11   -1    0    0    0    0  0.00000000000E+00  0.00000000000E+00  0.45593999997E+02  0.45594000000E+02  0.51100000000E-03 0.  1.
         11   -1    0    0    0    0 -0.00000000000E+00 -0.00000000000E+00 -0.45593999997E+02  0.45594000000E+02  0.51100000000E-03 0. -1.
    9900012    2    1    2    0    0 -0.17665265607E+02 -0.17885655072E+02 -0.31956336376E+02  0.50528859566E+02  0.29999999136E+02 0.  0.
        -12    1    1    2    0    0  0.17665265607E+02  0.17885655072E+02  0.31956336376E+02  0.40659140434E+02  0.00000000000E+00 0.  1.
         11    1    3    3    0    0 -0.12186331637E+02 -0.42157357481E+01 -0.84289851005E+01  0.15405417772E+02  0.51100000000E-03 0. -1.
        -11    1    3    3    0    0 -0.43623768570E+01 -0.14406412849E+02 -0.40330989856E+01  0.15583354925E+02  0.51100000000E-03 0.  1.
        -12    1    3    3    0    0 -0.11165571131E+01  0.73649352525E+00 -0.19494252289E+02  0.19540086868E+02  0.00000000000E+00 0.  1.
</event>
<event>
 7    1  0.5753610E-013  0.5052886E+02  0.7816164E-02  0.1300439E+00
        -11   -1    0    0    0    0  0.00000000000E+00  0.00000000000E+00  0.45593999997E+02  0.45594000000E+02  0.51100000000E-03 0. -1.
         11   -1    0    0    0    0 -0.00000000000E+00 -0.00000000000E+00 -0.45593999997E+02  0.45594000000E+02  0.51100000000E-03 0.  1.
    9900012    2    1    2    0    0  0.71352614864E+01 -0.32212551350E+02  0.23761431185E+02  0.50528855482E+02  0.29999986723E+02 0.  0.
        -12    1    1    2    0    0 -0.71352614864E+01  0.32212551350E+02 -0.23761431185E+02  0.40659144518E+02  0.00000000000E+00 0.  1.
         11    1    3    3    0    0  0.94903779989E+01 -0.20125264752E+02  0.19719775521E+02  0.29731516993E+02  0.51100000000E-03 0. -1.
        -11    1    3    3    0    0  0.22305999015E+01 -0.18746199045E+01 -0.54108361746E+01  0.61454799712E+01  0.51100000000E-03 0.  1.
         12    1    3    3    0    0 -0.45857164140E+01 -0.10212666694E+02  0.94524918392E+01  0.14651858517E+02  0.00000000000E+00 0. -1.
</event>
<event>
 7    1  0.5753610E-013  0.5052885E+02  0.7816164E-02  0.1300439E+00
        -11   -1    0    0    0    0  0.00000000000E+00  0.00000000000E+00  0.45593999997E+02  0.45594000000E+02  0.51100000000E-03 0. -1.
         11   -1    0    0    0    0 -0.00000000000E+00 -0.00000000000E+00 -0.45593999997E+02  0.45594000000E+02  0.51100000000E-03 0.  1.
    9900012    2    1    2    0    0 -0.31578311599E+01 -0.32161366785E+02  0.24674697230E+02  0.50528854724E+02  0.29999984420E+02 0.  0.
        -12    1    1    2    0    0  0.31578311599E+01  0.32161366785E+02 -0.24674697230E+02  0.40659145276E+02  0.00000000000E+00 0.  1.
         11    1    3    3    0    0  0.17657179972E+01 -0.28067096542E+01  0.70285244585E+01  0.77714564564E+01  0.51100000000E-03 0. -1.
        -11    1    3    3    0    0  0.83572767654E+01 -0.26137453875E+01  0.17406819464E+01  0.89278056534E+01  0.51100000000E-03 0.  1.
        -12    1    3    3    0    0 -0.13280825923E+02 -0.26740911744E+02  0.15905490825E+02  0.33829592615E+02  0.00000000000E+00 0.  1.
</event>
<event>
 7    1  0.5753610E-013  0.5052886E+02  0.7816164E-02  0.1300439E+00
        -11   -1    0    0    0    0  0.00000000000E+00  0.00000000000E+00  0.45593999997E+02  0.45594000000E+02  0.51100000000E-03 0.  1.
         11   -1    0    0    0    0 -0.00000000000E+00 -0.00000000000E+00 -0.45593999997E+02  0.45594000000E+02  0.51100000000E-03 0. -1.
    9900012    2    1    2    0    0  0.26287184371E+02  0.71673850057E+01 -0.30179098277E+02  0.50528862740E+02  0.30000008783E+02 0.  0.
        -12    1    1    2    0    0 -0.26287184371E+02 -0.71673850057E+01  0.30179098277E+02  0.40659137260E+02  0.00000000000E+00 0.  1.
         11    1    3    3    0    0  0.14474807180E+02  0.22021229594E+01 -0.15726885233E+02  0.21487305737E+02  0.51100000000E-03 0. -1.
        -11    1    3    3    0    0  0.23089981520E+01  0.55185859232E+01 -0.17933931505E+02  0.18905347459E+02  0.51100000000E-03 0.  1.
        -12    1    3    3    0    0  0.95033790390E+01 -0.55332387691E+00  0.34817184615E+01  0.10136209544E+02  0.00000000000E+00 0.  1.
</event>
<event>
 7    1  0.5753610E-013  0.5052886E+02  0.7816164E-02  0.1300439E+00
        -11   -1    0    0    0    0  0.00000000000E+00  0.00000000000E+00  0.45593999997E+02  0.45594000000E+02  0.51100000000E-03 0. -1.
         11   -1    0    0    0    0 -0.00000000000E+00 -0.00000000000E+00 -0.45593999997E+02  0.45594000000E+02  0.51100000000E-03 0.  1.
    9900012    2    1    2    0    0  0.39226816850E+02  0.84117007108E+00  0.10663711853E+02  0.50528862309E+02  0.30000007475E+02 0.  0.
        -12    1    1    2    0    0 -0.39226816850E+02 -0.84117007108E+00 -0.10663711853E+02  0.40659137691E+02  0.00000000000E+00 0.  1.
         11    1    3    3    0    0  0.30501572148E+02  0.66176295914E+01  0.42700257178E+01  0.31501937159E+02  0.51100000000E-03 0. -1.
        -11    1    3    3    0    0  0.10193864065E+02 -0.16878614242E+01  0.92166407339E+01  0.13845945524E+02  0.51100000000E-03 0.  1.
        -12    1    3    3    0    0 -0.14686193624E+01 -0.40885980961E+01 -0.28229545987E+01  0.51809796264E+01  0.00000000000E+00 0.  1.
</event>
<event>
 7    1  0.6024040E-013  0.5052886E+02  0.7816164E-02  0.1300439E+00
        -11   -1    0    0    0    0  0.00000000000E+00  0.00000000000E+00  0.45593999997E+02  0.45594000000E+02  0.51100000000E-03 0.  1.
         11   -1    0    0    0    0 -0.00000000000E+00 -0.00000000000E+00 -0.45593999997E+02  0.45594000000E+02  0.51100000000E-03 0. -1.
    9900012    2    1    2    0    0 -0.87475520127E+01 -0.34707030246E+02 -0.19289065829E+02  0.50528859881E+02  0.30000000093E+02 0.  0.
        -12    1    1    2    0    0  0.87475520127E+01  0.34707030246E+02  0.19289065829E+02  0.40659140119E+02  0.00000000000E+00 0.  1.
         11    1    3    3    0    0 -0.99262983677E+01 -0.28144759962E+02 -0.12632643458E+02  0.32407446576E+02  0.51100000000E-03 0. -1.
        -11    1    3    3    0    0  0.42606532000E+01 -0.10278624473E+02 -0.72150303489E+01  0.13261219776E+02  0.51100000000E-03 0.  1.
        -12    1    3    3    0    0 -0.30819068449E+01  0.37163541893E+01  0.55860797769E+00  0.48601935284E+01  0.00000000000E+00 0.  1.
</event>
<event>
 7    1  0.5753610E-013  0.5052884E+02  0.7816164E-02  0.1300439E+00
        -11   -1    0    0    0    0  0.00000000000E+00  0.00000000000E+00  0.45593999997E+02  0.45594000000E+02  0.51100000000E-03 0.  1.
         11   -1    0    0    0    0 -0.00000000000E+00 -0.00000000000E+00 -0.45593999997E+02  0.45594000000E+02  0.51100000000E-03 0. -1.
    9900012    2    1    2    0    0 -0.20630235834E+02 -0.17855190335E+02 -0.30145526177E+02  0.50528841118E+02  0.29999943062E+02 0.  0.
        -12    1    1    2    0    0  0.20630235834E+02  0.17855190335E+02  0.30145526177E+02  0.40659158882E+02  0.00000000000E+00 0.  1.
         11    1    3    3    0    0 -0.22962200424E+02 -0.13954681030E+02 -0.25074150521E+02  0.36751990362E+02  0.51100000000E-03 0. -1.
        -11    1    3    3    0    0 -0.12933608700E+01 -0.55081460017E+01  0.17189091454E+01  0.59132988786E+01  0.51100000000E-03 0.  1.
        -12    1    3    3    0    0  0.36253254595E+01  0.16076366969E+01 -0.67902848014E+01  0.78635518769E+01  0.00000000000E+00 0.  1.
</event>
<event>
 7    1  0.5753610E-013  0.5052885E+02  0.7816164E-02  0.1300439E+00
        -11   -1    0    0    0    0  0.00000000000E+00  0.00000000000E+00  0.45593999997E+02  0.45594000000E+02  0.51100000000E-03 0.  1.
         11   -1    0    0    0    0 -0.00000000000E+00 -0.00000000000E+00 -0.45593999997E+02  0.45594000000E+02  0.51100000000E-03 0. -1.
    9900012    2    1    2    0    0  0.12184573375E+02  0.22385821682E+02 -0.31679290432E+02  0.50528852407E+02  0.29999977377E+02 0.  0.
        -12    1    1    2    0    0 -0.12184573375E+02 -0.22385821682E+02  0.31679290432E+02  0.40659147593E+02  0.00000000000E+00 0.  1.
         11    1    3    3    0    0  0.13199794399E+01 -0.49482059997E+01 -0.11058771478E+01  0.52392798040E+01  0.51100000000E-03 0.  1.
        -11    1    3    3    0    0  0.10223449342E+02  0.56068275841E+01 -0.10008611864E+02  0.15366448637E+02  0.51100000000E-03 0. -1.
         12    1    3    3    0    0  0.64114459316E+00  0.21727200098E+02 -0.20564801420E+02  0.29923123966E+02  0.00000000000E+00 0. -1.
</event>
<event>
 7    1  0.5753610E-013  0.5052880E+02  0.7816164E-02  0.1300439E+00
        -11   -1    0    0    0    0  0.00000000000E+00  0.00000000000E+00  0.45593999997E+02  0.45594000000E+02  0.51100000000E-03 0. -1.
         11   -1    0    0    0    0 -0.00000000000E+00 -0.00000000000E+00 -0.45593999997E+02  0.45594000000E+02  0.51100000000E-03 0.  1.
    9900012    2    1    2    0    0 -0.16293804364E+02  0.20568396514E+02  0.31058385094E+02  0.50528803248E+02  0.29999827954E+02 0.  0.
        -12    1    1    2    0    0  0.16293804364E+02 -0.20568396514E+02 -0.31058385094E+02  0.40659196752E+02  0.00000000000E+00 0.  1.
         11    1    3    3    0    0  0.34023256755E+01 -0.77932236991E+00 -0.43077685125E+00  0.35169208571E+01  0.51100000000E-03 0. -1.
        -11    1    3    3    0    0 -0.36847219644E+01 -0.86579789676E+00  0.14042238370E+02  0.14543426029E+02  0.51100000000E-03 0.  1.
         12    1    3    3    0    0 -0.16011408075E+02  0.22213516781E+02  0.17446923575E+02  0.32468456363E+02  0.00000000000E+00 0. -1.
</event>
<event>
 7    1  0.5753610E-013  0.5052885E+02  0.7816164E-02  0.1300439E+00
        -11   -1    0    0    0    0  0.00000000000E+00  0.00000000000E+00  0.45593999997E+02  0.45594000000E+02  0.51100000000E-03 0.  1.
         11   -1    0    0    0    0 -0.00000000000E+00 -0.00000000000E+00 -0.45593999997E+02  0.45594000000E+02  0.51100000000E-03 0. -1.
    9900012    2    1    2    0    0  0.30002533123E+02  0.18241977077E+02 -0.20499866371E+02  0.50528852903E+02  0.29999978883E+02 0.  0.
        -12    1    1    2    0    0 -0.30002533123E+02 -0.18241977077E+02  0.20499866371E+02  0.40659147097E+02  0.00000000000E+00 0.  1.
         11    1    3    3    0    0  0.13889912985E+02 -0.42078250151E+01 -0.97554577587E+01  0.17487264807E+02  0.51100000000E-03 0. -1.
        -11    1    3    3    0    0  0.13962133859E+02  0.69955848326E+01 -0.46993192921E+01  0.16308371811E+02  0.51100000000E-03 0.  1.
        -12    1    3    3    0    0  0.21504862781E+01  0.15454217260E+02 -0.60450893202E+01  0.16733216285E+02  0.00000000000E+00 0.  1.
</event>
<event>
 7    1  0.5865154E-013  0.5052885E+02  0.7816164E-02  0.1300439E+00
        -11   -1    0    0    0    0  0.00000000000E+00  0.00000000000E+00  0.45593999997E+02  0.45594000000E+02  0.51100000000E-03 0.  1.
         11   -1    0    0    0    0 -0.00000000000E+00 -0.00000000000E+00 -0.45593999997E+02  0.45594000000E+02  0.51100000000E-03 0. -1.
    9900012    2    1    2    0    0 -0.19494059422E+02 -0.34982761425E+02 -0.70252672653E+01  0.50528851831E+02  0.29999975627E+02 0.  0.
        -12    1    1    2    0    0  0.19494059422E+02  0.34982761425E+02  0.70252672653E+01  0.40659148169E+02  0.00000000000E+00 0.  1.
         11    1    3    3    0    0 -0.19812950275E+02 -0.15640103798E+02 -0.82659152376E+01  0.26561084322E+02  0.51100000000E-03 0. -1.
        -11    1    3    3    0    0  0.31066958424E+01  0.97240376679E+00 -0.82586128064E+00  0.33584483409E+01  0.51100000000E-03 0.  1.
        -12    1    3    3    0    0 -0.27878049896E+01 -0.20315061394E+02  0.20665092529E+01  0.20609319169E+02  0.00000000000E+00 0.  1.
</event>
<event>
 7    1  0.5753610E-013  0.5052886E+02  0.7816164E-02  0.1300439E+00
        -11   -1    0    0    0    0  0.00000000000E+00  0.00000000000E+00  0.45593999997E+02  0.45594000000E+02  0.51100000000E-03 0. -1.
         11   -1    0    0    0    0 -0.00000000000E+00 -0.00000000000E+00 -0.45593999997E+02  0.45594000000E+02  0.51100000000E-03 0.  1.
    9900012    2    1    2    0    0  0.14873876542E+01  0.75991672775E+01  0.39914983718E+02  0.50528860922E+02  0.30000003258E+02 0.  0.
        -12    1    1    2    0    0 -0.14873876542E+01 -0.75991672775E+01 -0.39914983718E+02  0.40659139078E+02  0.00000000000E+00 0.  1.
         11    1    3    3    0    0 -0.65065808517E+01 -0.29413304116E+01  0.65861310564E+01  0.97141207283E+01  0.51100000000E-03 0.  1.
        -11    1    3    3    0    0  0.11713944403E+02  0.38343939911E+00  0.23216885886E+02  0.26007447198E+02  0.51100000000E-03 0. -1.
         12    1    3    3    0    0 -0.37199758974E+01  0.10157058290E+02  0.10111966776E+02  0.14807292996E+02  0.00000000000E+00 0. -1.
</event>
<event>
 7    1  0.5753610E-013  0.5052886E+02  0.7816164E-02  0.1300439E+00
        -11   -1    0    0    0    0  0.00000000000E+00  0.00000000000E+00  0.45593999997E+02  0.45594000000E+02  0.51100000000E-03 0. -1.
         11   -1    0    0    0    0 -0.00000000000E+00 -0.00000000000E+00 -0.45593999997E+02  0.45594000000E+02  0.51100000000E-03 0.  1.
    9900012    2    1    2    0    0 -0.35332714704E+02  0.20088819380E+02 -0.10972313707E+01  0.50528864383E+02  0.30000013779E+02 0.  0.
        -12    1    1    2    0    0  0.35332714704E+02 -0.20088819380E+02  0.10972313707E+01  0.40659135617E+02  0.00000000000E+00 0.  1.
         11    1    3    3    0    0 -0.77254221105E+01  0.17061019106E+02 -0.40578032187E+01  0.19163149192E+02  0.51100000000E-03 0. -1.
        -11    1    3    3    0    0  0.14664080866E+01 -0.10805881372E+01 -0.20491670352E+00  0.18330342373E+01  0.51100000000E-03 0.  1.
         12    1    3    3    0    0 -0.29073700680E+02  0.41083884110E+01  0.31654885515E+01  0.29532680954E+02  0.00000000000E+00 0. -1.
</event>
<event>
 7    1  0.5753610E-013  0.5052886E+02  0.7816164E-02  0.1300439E+00
        -11   -1    0    0    0    0  0.00000000000E+00  0.00000000000E+00  0.45593999997E+02  0.45594000000E+02  0.51100000000E-03 0. -1.
         11   -1    0    0    0    0 -0.00000000000E+00 -0.00000000000E+00 -0.45593999997E+02  0.45594000000E+02  0.51100000000E-03 0.  1.
    9900012    2    1    2    0    0 -0.24995440850E+02 -0.32067337599E+02 -0.28187416494E+00  0.50528860105E+02  0.30000000774E+02 0.  0.
        -12    1    1    2    0    0  0.24995440850E+02  0.32067337599E+02  0.28187416494E+00  0.40659139895E+02  0.00000000000E+00 0.  1.
         11    1    3    3    0    0 -0.69888709601E+01 -0.35219359101E+01 -0.73516622837E+01  0.10737564363E+02  0.51100000000E-03 0. -1.
        -11    1    3    3    0    0  0.32407078652E+00 -0.15801428578E+02 -0.15041405950E+01  0.15876164719E+02  0.51100000000E-03 0.  1.
         12    1    3    3    0    0 -0.18330640677E+02 -0.12743973110E+02  0.85739287137E+01  0.23915131023E+02  0.00000000000E+00 0. -1.
</event>
<event>
 7    1  0.5753610E-013  0.5052886E+02  0.7816164E-02  0.1300439E+00
        -11   -1    0    0    0    0  0.00000000000E+00  0.00000000000E+00  0.45593999997E+02  0.45594000000E+02  0.51100000000E-03 0.  1.
         11   -1    0    0    0    0 -0.00000000000E+00 -0.00000000000E+00 -0.45593999997E+02  0.45594000000E+02  0.51100000000E-03 0. -1.
    9900012    2    1    2    0    0 -0.13395457909E+02 -0.10395765292E+02 -0.36954770851E+02  0.50528864283E+02  0.30000013476E+02 0.  0.
        -12    1    1    2    0    0  0.13395457909E+02  0.10395765292E+02  0.36954770851E+02  0.40659135717E+02  0.00000000000E+00 0.  1.
         11    1    3    3    0    0 -0.14081490451E+02 -0.86174599872E+01 -0.97581979781E+01  0.19177367338E+02  0.51100000000E-03 0. -1.
        -11    1    3    3    0    0  0.35107849512E+01 -0.56546332985E+01 -0.42228847948E+01  0.78824643968E+01  0.51100000000E-03 0.  1.
         12    1    3    3    0    0 -0.28247524084E+01  0.38763279939E+01 -0.22973688078E+02  0.23469032549E+02  0.00000000000E+00 0. -1.
</event>
<event>
 7    1  0.5753610E-013  0.5052886E+02  0.7816164E-02  0.1300439E+00
        -11   -1    0    0    0    0  0.00000000000E+00  0.00000000000E+00  0.45593999997E+02  0.45594000000E+02  0.51100000000E-03 0.  1.
         11   -1    0    0    0    0 -0.00000000000E+00 -0.00000000000E+00 -0.45593999997E+02  0.45594000000E+02  0.51100000000E-03 0. -1.
    9900012    2    1    2    0    0  0.21514126466E+02 -0.22898511489E+02 -0.25806320597E+02  0.50528860206E+02  0.30000001082E+02 0.  0.
        -12    1    1    2    0    0 -0.21514126466E+02  0.22898511489E+02  0.25806320597E+02  0.40659139794E+02  0.00000000000E+00 0.  1.
         11    1    3    3    0    0  0.96968016335E+01 -0.11158849600E+02  0.15205750226E+01  0.14861360469E+02  0.51100000000E-03 0. -1.
        -11    1    3    3    0    0 -0.23536039167E+00 -0.96785232702E+01 -0.70025608334E+01  0.11948433608E+02  0.51100000000E-03 0.  1.
        -12    1    3    3    0    0  0.12052685225E+02 -0.20611386187E+01 -0.20324334786E+02  0.23719066129E+02  0.00000000000E+00 0.  1.
</event>
<event>
 7    1  0.5753610E-013  0.5052888E+02  0.7816164E-02  0.1300439E+00
        -11   -1    0    0    0    0  0.00000000000E+00  0.00000000000E+00  0.45593999997E+02  0.45594000000E+02  0.51100000000E-03 0.  1.
         11   -1    0    0    0    0 -0.00000000000E+00 -0.00000000000E+00 -0.45593999997E+02  0.45594000000E+02  0.51100000000E-03 0. -1.
    9900012    2    1    2    0    0  0.32118248753E+02  0.17205377744E+02 -0.18043205283E+02  0.50528878230E+02  0.30000055867E+02 0.  0.
        -12    1    1    2    0    0 -0.32118248753E+02 -0.17205377744E+02  0.18043205283E+02  0.40659121770E+02  0.00000000000E+00 0.  1.
         11    1    3    3    0    0  0.76290617646E+01 -0.19345469967E+01 -0.38438459215E+01  0.87590072052E+01  0.51100000000E-03 0. -1.
        -11    1    3    3    0    0  0.10088477921E+02 -0.49069678788E+01 -0.32718120846E+01  0.11685909255E+02  0.51100000000E-03 0.  1.
        -12    1    3    3    0    0  0.14400709067E+02  0.24046892619E+02 -0.10927547277E+02  0.30083961770E+02  0.00000000000E+00 0.  1.
</event>
<event>
 7    1  0.5753610E-013  0.5052886E+02  0.7816164E-02  0.1300439E+00
        -11   -1    0    0    0    0  0.00000000000E+00  0.00000000000E+00  0.45593999997E+02  0.45594000000E+02  0.51100000000E-03 0.  1.
         11   -1    0    0    0    0 -0.00000000000E+00 -0.00000000000E+00 -0.45593999997E+02  0.45594000000E+02  0.51100000000E-03 0. -1.
    9900012    2    1    2    0    0  0.35347876186E+02  0.16514300520E+02  0.11444256048E+02  0.50528862417E+02  0.30000007801E+02 0.  0.
        -12    1    1    2    0    0 -0.35347876186E+02 -0.16514300520E+02 -0.11444256048E+02  0.40659137583E+02  0.00000000000E+00 0.  1.
         11    1    3    3    0    0  0.57638456028E+01  0.58915834028E+01  0.89876166061E+01  0.12194667837E+02  0.51100000000E-03 0.  1.
        -11    1    3    3    0    0  0.13962871708E+02  0.16446968745E+02  0.18016948678E+01  0.21649726832E+02  0.51100000000E-03 0. -1.
        -12    1    3    3    0    0  0.15621158875E+02 -0.58242516282E+01  0.65494457387E+00  0.16684467748E+02  0.00000000000E+00 0.  1.
</event>
<event>
 7    1  0.5753610E-013  0.5052887E+02  0.7816164E-02  0.1300439E+00
        -11   -1    0    0    0    0  0.00000000000E+00  0.00000000000E+00  0.45593999997E+02  0.45594000000E+02  0.51100000000E-03 0.  1.
         11   -1    0    0    0    0 -0.00000000000E+00 -0.00000000000E+00 -0.45593999997E+02  0.45594000000E+02  0.51100000000E-03 0. -1.
    9900012    2    1    2    0    0 -0.34573888054E+02  0.20291947646E+02  0.67858855800E+01  0.50528866739E+02  0.30000020941E+02 0.  0.
        -12    1    1    2    0    0  0.34573888054E+02 -0.20291947646E+02 -0.67858855800E+01  0.40659133261E+02  0.00000000000E+00 0.  1.
         11    1    3    3    0    0 -0.87428836782E+01  0.48152746297E+01 -0.11124869217E+01  0.10043033017E+02  0.51100000000E-03 0. -1.
        -11    1    3    3    0    0 -0.24390291978E+02  0.14702584031E+02  0.15696403337E+02  0.32518139521E+02  0.51100000000E-03 0.  1.
        -12    1    3    3    0    0 -0.14407123977E+01  0.77408898511E+00 -0.77980308354E+01  0.79676942009E+01  0.00000000000E+00 0.  1.
</event>
<event>
 7    1  0.5753610E-013  0.5052887E+02  0.7816164E-02  0.1300439E+00
        -11   -1    0    0    0    0  0.00000000000E+00  0.00000000000E+00  0.45593999997E+02  0.45594000000E+02  0.51100000000E-03 0.  1.
         11   -1    0    0    0    0 -0.00000000000E+00 -0.00000000000E+00 -0.45593999997E+02  0.45594000000E+02  0.51100000000E-03 0. -1.
    9900012    2    1    2    0    0  0.36249412434E+02 -0.15820076862E+02 -0.94271144056E+01  0.50528865482E+02  0.30000017120E+02 0.  0.
        -12    1    1    2    0    0 -0.36249412434E+02  0.15820076862E+02  0.94271144056E+01  0.40659134518E+02  0.00000000000E+00 0.  1.
         11    1    3    3    0    0  0.10340843203E+02 -0.11136817259E+02 -0.59480820417E+00  0.15209060913E+02  0.51100000000E-03 0. -1.
        -11    1    3    3    0    0  0.66793210200E+01 -0.78412430079E+01 -0.11738995450E+02  0.15617376081E+02  0.51100000000E-03 0.  1.
         12    1    3    3    0    0  0.19229248211E+02  0.31579834046E+01  0.29066892490E+01  0.19702428488E+02  0.00000000000E+00 0. -1.
</event>
<event>
 7    1  0.5753610E-013  0.5052886E+02  0.7816164E-02  0.1300439E+00
        -11   -1    0    0    0    0  0.00000000000E+00  0.00000000000E+00  0.45593999997E+02  0.45594000000E+02  0.51100000000E-03 0. -1.
         11   -1    0    0    0    0 -0.00000000000E+00 -0.00000000000E+00 -0.45593999997E+02  0.45594000000E+02  0.51100000000E-03 0.  1.
    9900012    2    1    2    0    0 -0.14967724989E+02  0.29034771386E+02  0.24209809093E+02  0.50528860842E+02  0.30000003014E+02 0.  0.
        -12    1    1    2    0    0  0.14967724989E+02 -0.29034771386E+02 -0.24209809093E+02  0.40659139158E+02  0.00000000000E+00 0.  1.
         11    1    3    3    0    0 -0.13528460811E+02  0.88986037848E+01  0.21028186293E+01  0.16328693998E+02  0.51100000000E-03 0. -1.
        -11    1    3    3    0    0 -0.79824750885E+01  0.17095133603E+02  0.15516568415E+02  0.24428004362E+02  0.51100000000E-03 0.  1.
        -12    1    3    3    0    0  0.65432109104E+01  0.30410339983E+01  0.65904220479E+01  0.97721624816E+01  0.00000000000E+00 0.  1.
</event>
<event>
 7    1  0.5753610E-013  0.5052885E+02  0.7816164E-02  0.1300439E+00
        -11   -1    0    0    0    0  0.00000000000E+00  0.00000000000E+00  0.45593999997E+02  0.45594000000E+02  0.51100000000E-03 0.  1.
         11   -1    0    0    0    0 -0.00000000000E+00 -0.00000000000E+00 -0.45593999997E+02  0.45594000000E+02  0.51100000000E-03 0. -1.
    9900012    2    1    2    0    0 -0.54452211581E+01 -0.47291880394E+01 -0.40014379982E+02  0.50528852711E+02  0.29999978299E+02 0.  0.
        -12    1    1    2    0    0  0.54452211581E+01  0.47291880394E+01  0.40014379982E+02  0.40659147289E+02  0.00000000000E+00 0.  1.
         11    1    3    3    0    0  0.19484769811E+01 -0.49994353995E+01 -0.23539723070E+02  0.24143518371E+02  0.51100000000E-03 0. -1.
        -11    1    3    3    0    0  0.50162869453E+00 -0.86600426491E+01 -0.64370869946E+01  0.10802039588E+02  0.51100000000E-03 0.  1.
         12    1    3    3    0    0 -0.78953268338E+01  0.89302900092E+01 -0.10037569917E+02  0.15583294751E+02  0.00000000000E+00 0. -1.
</event>
<event>
 7    1  0.7186308E-013  0.5052886E+02  0.7816164E-02  0.1300439E+00
        -11   -1    0    0    0    0  0.00000000000E+00  0.00000000000E+00  0.45593999997E+02  0.45594000000E+02  0.51100000000E-03 0.  1.
         11   -1    0    0    0    0 -0.00000000000E+00 -0.00000000000E+00 -0.45593999997E+02  0.45594000000E+02  0.51100000000E-03 0. -1.
    9900012    2    1    2    0    0  0.35908959251E+02 -0.18828722881E+02 -0.30317583304E+01  0.50528859350E+02  0.29999998481E+02 0.  0.
        -12    1    1    2    0    0 -0.35908959251E+02  0.18828722881E+02  0.30317583304E+01  0.40659140650E+02  0.00000000000E+00 0.  1.
         11    1    3    3    0    0  0.11746109312E+02 -0.40167791930E+01 -0.59243492999E+01  0.13755126824E+02  0.51100000000E-03 0. -1.
        -11    1    3    3    0    0  0.19504706193E+02 -0.20865696798E+02 -0.11997672553E+00  0.28562655010E+02  0.51100000000E-03 0.  1.
        -12    1    3    3    0    0  0.46581437457E+01  0.60537531094E+01  0.30125676951E+01  0.82110775165E+01  0.00000000000E+00 0.  1.
</event>
<event>
 7    1  0.5753610E-013  0.5052886E+02  0.7816164E-02  0.1300439E+00
        -11   -1    0    0    0    0  0.00000000000E+00  0.00000000000E+00  0.45593999997E+02  0.45594000000E+02  0.51100000000E-03 0.  1.
         11   -1    0    0    0    0 -0.00000000000E+00 -0.00000000000E+00 -0.45593999997E+02  0.45594000000E+02  0.51100000000E-03 0. -1.
    9900012    2    1    2    0    0 -0.71412075069E+01  0.39989264956E+02 -0.17399602615E+01  0.50528860584E+02  0.30000002230E+02 0.  0.
        -12    1    1    2    0    0  0.71412075069E+01 -0.39989264956E+02  0.17399602615E+01  0.40659139416E+02  0.00000000000E+00 0.  1.
         11    1    3    3    0    0 -0.64171881000E+01  0.30824553292E+01  0.13751992636E+01  0.72507246012E+01  0.51100000000E-03 0. -1.
        -11    1    3    3    0    0  0.36791735293E+01 -0.12228063599E+01  0.23108578339E+01  0.45134950363E+01  0.51100000000E-03 0.  1.
        -12    1    3    3    0    0 -0.44031929363E+01  0.38129615986E+02 -0.54260173590E+01  0.38764640946E+02  0.00000000000E+00 0.  1.
</event>
<event>
 7    1  0.5753610E-013  0.5052886E+02  0.7816164E-02  0.1300439E+00
        -11   -1    0    0    0    0  0.00000000000E+00  0.00000000000E+00  0.45593999997E+02  0.45594000000E+02  0.51100000000E-03 0. -1.
         11   -1    0    0    0    0 -0.00000000000E+00 -0.00000000000E+00 -0.45593999997E+02  0.45594000000E+02  0.51100000000E-03 0.  1.
    9900012    2    1    2    0    0  0.23446022788E+02 -0.22329112762E+02  0.24593914214E+02  0.50528857392E+02  0.29999992528E+02 0.  0.
        -12    1    1    2    0    0 -0.23446022788E+02  0.22329112762E+02 -0.24593914214E+02  0.40659142608E+02  0.00000000000E+00 0.  1.
         11    1    3    3    0    0  0.40894555798E+01 -0.13713731031E+02  0.28371082113E+01  0.14589011241E+02  0.51100000000E-03 0. -1.
        -11    1    3    3    0    0 -0.30936755581E+01 -0.31654470449E+01  0.77448617657E+01  0.89204129660E+01  0.51100000000E-03 0.  1.
         12    1    3    3    0    0  0.22450242766E+02 -0.54499346858E+01  0.14011944237E+02  0.27019433185E+02  0.00000000000E+00 0. -1.
</event>
<event>
 7    1  0.5753610E-013  0.5052884E+02  0.7816164E-02  0.1300439E+00
        -11   -1    0    0    0    0  0.00000000000E+00  0.00000000000E+00  0.45593999997E+02  0.45594000000E+02  0.51100000000E-03 0. -1.
         11   -1    0    0    0    0 -0.00000000000E+00 -0.00000000000E+00 -0.45593999997E+02  0.45594000000E+02  0.51100000000E-03 0.  1.
    9900012    2    1    2    0    0 -0.37928413863E+02 -0.46439826073E+01  0.13893731173E+02  0.50528844591E+02  0.29999953620E+02 0.  0.
        -12    1    1    2    0    0  0.37928413863E+02  0.46439826073E+01 -0.13893731173E+02  0.40659155409E+02  0.00000000000E+00 0.  1.
         11    1    3    3    0    0 -0.78059981589E+01 -0.39384716633E+01  0.11745838111E+02  0.14642741529E+02  0.51100000000E-03 0. -1.
        -11    1    3    3    0    0 -0.34541703947E+01  0.60174066383E+01 -0.35586391340E+01  0.77977168782E+01  0.51100000000E-03 0.  1.
         12    1    3    3    0    0 -0.26668245310E+02 -0.67229175823E+01  0.57065321964E+01  0.28088386184E+02  0.00000000000E+00 0. -1.
</event>
<event>
 7    1  0.5753610E-013  0.5052886E+02  0.7816164E-02  0.1300439E+00
        -11   -1    0    0    0    0  0.00000000000E+00  0.00000000000E+00  0.45593999997E+02  0.45594000000E+02  0.51100000000E-03 0.  1.
         11   -1    0    0    0    0 -0.00000000000E+00 -0.00000000000E+00 -0.45593999997E+02  0.45594000000E+02  0.51100000000E-03 0. -1.
    9900012    2    1    2    0    0  0.23966292404E+02  0.16544405448E+02 -0.28373666521E+02  0.50528862343E+02  0.30000007577E+02 0.  0.
        -12    1    1    2    0    0 -0.23966292404E+02 -0.16544405448E+02  0.28373666521E+02  0.40659137657E+02  0.00000000000E+00 0.  1.
         11    1    3    3    0    0  0.45294970176E+01  0.27212109011E+01  0.55980310701E+01  0.76980052042E+01  0.51100000000E-03 0. -1.
        -11    1    3    3    0    0 -0.18381954972E-01 -0.29860874536E+00 -0.57511215491E+01  0.57588978470E+01  0.51100000000E-03 0.  1.
         12    1    3    3    0    0  0.19455177341E+02  0.14121803292E+02 -0.28220576042E+02  0.37071959292E+02  0.00000000000E+00 0. -1.
</event>
<event>
 7    1  0.5753610E-013  0.5052884E+02  0.7816164E-02  0.1300439E+00
        -11   -1    0    0    0    0  0.00000000000E+00  0.00000000000E+00  0.45593999997E+02  0.45594000000E+02  0.51100000000E-03 0. -1.
         11   -1    0    0    0    0 -0.00000000000E+00 -0.00000000000E+00 -0.45593999997E+02  0.45594000000E+02  0.51100000000E-03 0.  1.
    9900012    2    1    2    0    0  0.31283708635E+02  0.24380009411E+02  0.89505371768E+01  0.50528838663E+02  0.29999935601E+02 0.  0.
        -12    1    1    2    0    0 -0.31283708635E+02 -0.24380009411E+02 -0.89505371768E+01  0.40659161337E+02  0.00000000000E+00 0.  1.
         11    1    3    3    0    0  0.14624923073E+02  0.17437943924E+02 -0.31701563900E+01  0.22978689148E+02  0.51100000000E-03 0. -1.
        -11    1    3    3    0    0  0.18968995254E+02  0.69310296557E+01  0.13998719752E+02  0.24572873417E+02  0.51100000000E-03 0.  1.
         12    1    3    3    0    0 -0.23102096920E+01  0.11035831787E-01 -0.18780261851E+01  0.29772760978E+01  0.00000000000E+00 0. -1.
</event>
<event>
 7    1  0.5753610E-013  0.5052886E+02  0.7816164E-02  0.1300439E+00
        -11   -1    0    0    0    0  0.00000000000E+00  0.00000000000E+00  0.45593999997E+02  0.45594000000E+02  0.51100000000E-03 0. -1.
         11   -1    0    0    0    0 -0.00000000000E+00 -0.00000000000E+00 -0.45593999997E+02  0.45594000000E+02  0.51100000000E-03 0.  1.
    9900012    2    1    2    0    0 -0.24669348156E+02 -0.15233407556E+02  0.28504946036E+02  0.50528863355E+02  0.30000010654E+02 0.  0.
        -12    1    1    2    0    0  0.24669348156E+02  0.15233407556E+02 -0.28504946036E+02  0.40659136645E+02  0.00000000000E+00 0.  1.
         11    1    3    3    0    0 -0.21344312206E+01 -0.48443414239E+01  0.13113355511E+01  0.54537181496E+01  0.51100000000E-03 0. -1.
        -11    1    3    3    0    0 -0.13578302605E+02  0.22222513334E+01 -0.35692098854E-01  0.13758996214E+02  0.51100000000E-03 0.  1.
        -12    1    3    3    0    0 -0.89566143305E+01 -0.12611317465E+02  0.27229302584E+02  0.31316148992E+02  0.00000000000E+00 0.  1.
</event>
<event>
 7    1  0.5753610E-013  0.5052886E+02  0.7816164E-02  0.1300439E+00
        -11   -1    0    0    0    0  0.00000000000E+00  0.00000000000E+00  0.45593999997E+02  0.45594000000E+02  0.51100000000E-03 0.  1.
         11   -1    0    0    0    0 -0.00000000000E+00 -0.00000000000E+00 -0.45593999997E+02  0.45594000000E+02  0.51100000000E-03 0. -1.
    9900012    2    1    2    0    0 -0.34942441124E+02  0.86795627193E+01 -0.18890645367E+02  0.50528862244E+02  0.30000007276E+02 0.  0.
        -12    1    1    2    0    0  0.34942441124E+02 -0.86795627193E+01  0.18890645367E+02  0.40659137756E+02  0.00000000000E+00 0.  1.
         11    1    3    3    0    0 -0.15210038805E+02  0.71876965796E+01 -0.14092109008E+01  0.16881769404E+02  0.51100000000E-03 0. -1.
        -11    1    3    3    0    0 -0.32975241716E+01 -0.20182767666E+01  0.45287767295E+01  0.59545718315E+01  0.51100000000E-03 0.  1.
         12    1    3    3    0    0 -0.16434878147E+02  0.35101429063E+01 -0.22010211196E+02  0.27692521009E+02  0.00000000000E+00 0. -1.
</event>
<event>
 7    1  0.5753610E-013  0.5052886E+02  0.7816164E-02  0.1300439E+00
        -11   -1    0    0    0    0  0.00000000000E+00  0.00000000000E+00  0.45593999997E+02  0.45594000000E+02  0.51100000000E-03 0. -1.
         11   -1    0    0    0    0 -0.00000000000E+00 -0.00000000000E+00 -0.45593999997E+02  0.45594000000E+02  0.51100000000E-03 0.  1.
    9900012    2    1    2    0    0  0.15949628564E+02 -0.74530859346E+01  0.36650054198E+02  0.50528860634E+02  0.30000002382E+02 0.  0.
        -12    1    1    2    0    0 -0.15949628564E+02  0.74530859346E+01 -0.36650054198E+02  0.40659139366E+02  0.00000000000E+00 0.  1.
         11    1    3    3    0    0  0.10166347319E+01  0.89320709733E+00  0.16341368182E+02  0.16397307079E+02  0.51100000000E-03 0. -1.
        -11    1    3    3    0    0  0.83013810376E+01 -0.14791428574E+02  0.17717649114E+02  0.24527828619E+02  0.51100000000E-03 0.  1.
        -12    1    3    3    0    0  0.66316127945E+01  0.64451355422E+01  0.25910369021E+01  0.96037249358E+01  0.00000000000E+00 0.  1.
</event>
<event>
 7    1  0.5753610E-013  0.5052885E+02  0.7816164E-02  0.1300439E+00
        -11   -1    0    0    0    0  0.00000000000E+00  0.00000000000E+00  0.45593999997E+02  0.45594000000E+02  0.51100000000E-03 0. -1.
         11   -1    0    0    0    0 -0.00000000000E+00 -0.00000000000E+00 -0.45593999997E+02  0.45594000000E+02  0.51100000000E-03 0.  1.
    9900012    2    1    2    0    0 -0.76849810066E+01 -0.37097989609E+02 -0.14759623586E+02  0.50528852758E+02  0.29999978443E+02 0.  0.
        -12    1    1    2    0    0  0.76849810066E+01  0.37097989609E+02  0.14759623586E+02  0.40659147242E+02  0.00000000000E+00 0.  1.
         11    1    3    3    0    0  0.83062626549E+01 -0.16239330708E+02 -0.46206189982E+01  0.18816481640E+02  0.51100000000E-03 0. -1.
        -11    1    3    3    0    0 -0.36783008270E+01 -0.22578936028E+01  0.35082090818E+01  0.55619701292E+01  0.51100000000E-03 0.  1.
        -12    1    3    3    0    0 -0.12312942834E+02 -0.18600765298E+02 -0.13647213669E+02  0.26150400988E+02  0.00000000000E+00 0.  1.
</event>
<event>
 7    1  0.5753610E-013  0.5052886E+02  0.7816164E-02  0.1300439E+00
        -11   -1    0    0    0    0  0.00000000000E+00  0.00000000000E+00  0.45593999997E+02  0.45594000000E+02  0.51100000000E-03 0.  1.
         11   -1    0    0    0    0 -0.00000000000E+00 -0.00000000000E+00 -0.45593999997E+02  0.45594000000E+02  0.51100000000E-03 0. -1.
    9900012    2    1    2    0    0 -0.18607490573E+02 -0.36812404904E+00 -0.36149570481E+02  0.50528859986E+02  0.30000000413E+02 0.  0.
        -12    1    1    2    0    0  0.18607490573E+02  0.36812404904E+00  0.36149570481E+02  0.40659140014E+02  0.00000000000E+00 0.  1.
         11    1    3    3    0    0 -0.67156259644E+01 -0.47310547303E+01 -0.10874532020E+02  0.13628571380E+02  0.51100000000E-03 0. -1.
        -11    1    3    3    0    0  0.45339214050E+01 -0.24954463873E+01 -0.16025493342E+02  0.16840431500E+02  0.51100000000E-03 0.  1.
        -12    1    3    3    0    0 -0.16425786014E+02  0.68583770686E+01 -0.92495451181E+01  0.20059857105E+02  0.00000000000E+00 0.  1.
</event>
<event>
 7    1  0.5753610E-013  0.5052882E+02  0.7816164E-02  0.1300439E+00
        -11   -1    0    0    0    0  0.00000000000E+00  0.00000000000E+00  0.45593999997E+02  0.45594000000E+02  0.51100000000E-03 0.  1.
         11   -1    0    0    0    0 -0.00000000000E+00 -0.00000000000E+00 -0.45593999997E+02  0.45594000000E+02  0.51100000000E-03 0. -1.
    9900012    2    1    2    0    0 -0.37267851790E+02  0.15075626598E+02  0.60828825038E+01  0.50528822022E+02  0.29999885016E+02 0.  0.
        -12    1    1    2    0    0  0.37267851790E+02 -0.15075626598E+02 -0.60828825038E+01  0.40659177978E+02  0.00000000000E+00 0.  1.
         11    1    3    3    0    0  0.18419230715E+01  0.61279119247E+01 -0.41452819809E+01  0.76241293353E+01  0.51100000000E-03 0. -1.
        -11    1    3    3    0    0 -0.20790632177E+02  0.10331934889E+02  0.43880843706E+01  0.23627410979E+02  0.51100000000E-03 0.  1.
        -12    1    3    3    0    0 -0.18319142684E+02 -0.13842202155E+01  0.58400801141E+01  0.19277281707E+02  0.00000000000E+00 0.  1.
</event>
<event>
 7    1  0.5753610E-013  0.5052885E+02  0.7816164E-02  0.1300439E+00
        -11   -1    0    0    0    0  0.00000000000E+00  0.00000000000E+00  0.45593999997E+02  0.45594000000E+02  0.51100000000E-03 0.  1.
         11   -1    0    0    0    0 -0.00000000000E+00 -0.00000000000E+00 -0.45593999997E+02  0.45594000000E+02  0.51100000000E-03 0. -1.
    9900012    2    1    2    0    0 -0.92276181939E+01 -0.38228043956E+02 -0.10326369665E+02  0.50528853517E+02  0.29999980751E+02 0.  0.
        -12    1    1    2    0    0  0.92276181939E+01  0.38228043956E+02  0.10326369665E+02  0.40659146483E+02  0.00000000000E+00 0.  1.
         11    1    3    3    0    0  0.12535240545E+01 -0.19080855452E+02 -0.11074286709E+02  0.22097289284E+02  0.51100000000E-03 0. -1.
        -11    1    3    3    0    0 -0.50450640811E+01 -0.18834745630E+02  0.64590748348E+01  0.20540690410E+02  0.51100000000E-03 0.  1.
        -12    1    3    3    0    0 -0.54360781672E+01 -0.31244287435E+00 -0.57111577905E+01  0.78908738235E+01  0.00000000000E+00 0.  1.
</event>
<event>
 7    1  0.5753610E-013  0.5052886E+02  0.7816164E-02  0.1300439E+00
        -11   -1    0    0    0    0  0.00000000000E+00  0.00000000000E+00  0.45593999997E+02  0.45594000000E+02  0.51100000000E-03 0.  1.
         11   -1    0    0    0    0 -0.00000000000E+00 -0.00000000000E+00 -0.45593999997E+02  0.45594000000E+02  0.51100000000E-03 0. -1.
    9900012    2    1    2    0    0 -0.31520489314E+02 -0.41083390048E+01 -0.25352437960E+02  0.50528858267E+02  0.29999995188E+02 0.  0.
        -12    1    1    2    0    0  0.31520489314E+02  0.41083390048E+01  0.25352437960E+02  0.40659141733E+02  0.00000000000E+00 0.  1.
         11    1    3    3    0    0 -0.14754962880E+02  0.29790437222E+01 -0.11219865528E+02  0.18774158139E+02  0.51100000000E-03 0. -1.
        -11    1    3    3    0    0  0.21015744974E+01  0.41777264615E+01  0.13574368639E+01  0.48695635180E+01  0.51100000000E-03 0.  1.
        -12    1    3    3    0    0 -0.18867100931E+02 -0.11265109189E+02 -0.15490009296E+02  0.26885136610E+02  0.00000000000E+00 0.  1.
</event>
<event>
 7    1  0.5753610E-013  0.5052885E+02  0.7816164E-02  0.1300439E+00
        -11   -1    0    0    0    0  0.00000000000E+00  0.00000000000E+00  0.45593999997E+02  0.45594000000E+02  0.51100000000E-03 0. -1.
         11   -1    0    0    0    0 -0.00000000000E+00 -0.00000000000E+00 -0.45593999997E+02  0.45594000000E+02  0.51100000000E-03 0.  1.
    9900012    2    1    2    0    0 -0.71290097098E+01 -0.38619271004E+02  0.10530683092E+02  0.50528853935E+02  0.29999982022E+02 0.  0.
        -12    1    1    2    0    0  0.71290097098E+01  0.38619271004E+02 -0.10530683092E+02  0.40659146065E+02  0.00000000000E+00 0.  1.
         11    1    3    3    0    0  0.69447399716E-01 -0.28658967735E+01  0.10474353888E+02  0.10859570751E+02  0.51100000000E-03 0. -1.
        -11    1    3    3    0    0  0.30098292007E+01 -0.29769053816E+01 -0.30232925133E+01  0.52020510715E+01  0.51100000000E-03 0.  1.
        -12    1    3    3    0    0 -0.10208286310E+02 -0.32776468849E+02  0.30796217166E+01  0.34467232113E+02  0.00000000000E+00 0.  1.
</event>
<event>
 7    1  0.5753610E-013  0.5052887E+02  0.7816164E-02  0.1300439E+00
        -11   -1    0    0    0    0  0.00000000000E+00  0.00000000000E+00  0.45593999997E+02  0.45594000000E+02  0.51100000000E-03 0. -1.
         11   -1    0    0    0    0 -0.00000000000E+00 -0.00000000000E+00 -0.45593999997E+02  0.45594000000E+02  0.51100000000E-03 0.  1.
    9900012    2    1    2    0    0 -0.36644789766E+02 -0.15962562375E+02 -0.74512494799E+01  0.50528866545E+02  0.30000020349E+02 0.  0.
        -12    1    1    2    0    0  0.36644789766E+02  0.15962562375E+02  0.74512494799E+01  0.40659133455E+02  0.00000000000E+00 0.  1.
         11    1    3    3    0    0 -0.58082259571E+01 -0.80381271967E+01  0.42484218648E+01  0.10788700858E+02  0.51100000000E-03 0. -1.
        -11    1    3    3    0    0 -0.20885372143E+01 -0.52436257284E+01 -0.91555512496E+01  0.10755543567E+02  0.51100000000E-03 0.  1.
         12    1    3    3    0    0 -0.28748026594E+02 -0.26808094497E+01 -0.25441200951E+01  0.28984622120E+02  0.00000000000E+00 0. -1.
</event>
<event>
 7    1  0.5753610E-013  0.5052886E+02  0.7816164E-02  0.1300439E+00
        -11   -1    0    0    0    0  0.00000000000E+00  0.00000000000E+00  0.45593999997E+02  0.45594000000E+02  0.51100000000E-03 0.  1.
         11   -1    0    0    0    0 -0.00000000000E+00 -0.00000000000E+00 -0.45593999997E+02  0.45594000000E+02  0.51100000000E-03 0. -1.
    9900012    2    1    2    0    0 -0.28004044900E+01 -0.36695471645E+02 -0.17284852115E+02  0.50528855675E+02  0.29999987311E+02 0.  0.
        -12    1    1    2    0    0  0.28004044900E+01  0.36695471645E+02  0.17284852115E+02  0.40659144325E+02  0.00000000000E+00 0.  1.
         11    1    3    3    0    0 -0.53015866238E+01 -0.95274465020E+01 -0.50112068251E+01  0.11999635481E+02  0.51100000000E-03 0. -1.
        -11    1    3    3    0    0 -0.80548212439E+01 -0.14320494835E+02  0.20819156832E+01  0.16561735741E+02  0.51100000000E-03 0.  1.
        -12    1    3    3    0    0  0.10556003378E+02 -0.12847530308E+02 -0.14355560973E+02  0.21967484453E+02  0.00000000000E+00 0.  1.
</event>
<event>
 7    1  0.5753610E-013  0.5052886E+02  0.7816164E-02  0.1300439E+00
        -11   -1    0    0    0    0  0.00000000000E+00  0.00000000000E+00  0.45593999997E+02  0.45594000000E+02  0.51100000000E-03 0. -1.
         11   -1    0    0    0    0 -0.00000000000E+00 -0.00000000000E+00 -0.45593999997E+02  0.45594000000E+02  0.51100000000E-03 0.  1.
    9900012    2    1    2    0    0  0.35372886482E+02 -0.15224448752E+02  0.13043800304E+02  0.50528860016E+02  0.30000000504E+02 0.  0.
        -12    1    1    2    0    0 -0.35372886482E+02  0.15224448752E+02 -0.13043800304E+02  0.40659139984E+02  0.00000000000E+00 0.  1.
         11    1    3    3    0    0 -0.13249781492E+01  0.33516829038E+01 -0.89209075488E+00  0.37128387468E+01  0.51100000000E-03 0. -1.
        -11    1    3    3    0    0  0.13262610569E+02 -0.73348054977E+01 -0.34525937127E+01  0.15544021822E+02  0.51100000000E-03 0.  1.
         12    1    3    3    0    0  0.23435254062E+02 -0.11241326158E+02  0.17388484772E+02  0.31271999447E+02  0.00000000000E+00 0. -1.
</event>
<event>
 7    1  0.5753610E-013  0.5052886E+02  0.7816164E-02  0.1300439E+00
        -11   -1    0    0    0    0  0.00000000000E+00  0.00000000000E+00  0.45593999997E+02  0.45594000000E+02  0.51100000000E-03 0.  1.
         11   -1    0    0    0    0 -0.00000000000E+00 -0.00000000000E+00 -0.45593999997E+02  0.45594000000E+02  0.51100000000E-03 0. -1.
    9900012    2    1    2    0    0  0.16536351539E+02  0.20166076052E+02 -0.31193660580E+02  0.50528855814E+02  0.29999987731E+02 0.  0.
        -12    1    1    2    0    0 -0.16536351539E+02 -0.20166076052E+02  0.31193660580E+02  0.40659144186E+02  0.00000000000E+00 0.  1.
         11    1    3    3    0    0 -0.30909900395E+01  0.37950754448E+01 -0.14772791544E+00  0.48967990416E+01  0.51100000000E-03 0. -1.
        -11    1    3    3    0    0  0.14811889391E+02  0.20596446280E+02 -0.18026306921E+02  0.31121590708E+02  0.51100000000E-03 0.  1.
         12    1    3    3    0    0  0.48154521875E+01 -0.42254456723E+01 -0.13019625744E+02  0.14510466064E+02  0.00000000000E+00 0. -1.
</event>
<event>
 7    1  0.5753610E-013  0.5052886E+02  0.7816164E-02  0.1300439E+00
        -11   -1    0    0    0    0  0.00000000000E+00  0.00000000000E+00  0.45593999997E+02  0.45594000000E+02  0.51100000000E-03 0. -1.
         11   -1    0    0    0    0 -0.00000000000E+00 -0.00000000000E+00 -0.45593999997E+02  0.45594000000E+02  0.51100000000E-03 0.  1.
    9900012    2    1    2    0    0 -0.19520074926E+02  0.24381511049E+02 -0.26032175427E+02  0.50528861254E+02  0.30000004266E+02 0.  0.
        -12    1    1    2    0    0  0.19520074926E+02 -0.24381511049E+02  0.26032175427E+02  0.40659138746E+02  0.00000000000E+00 0.  1.
         11    1    3    3    0    0 -0.15263599414E+01  0.87988895387E+01 -0.26133594056E+01  0.93048309726E+01  0.51100000000E-03 0. -1.
        -11    1    3    3    0    0 -0.21566774331E+02  0.11436902138E+02 -0.93723481277E+01  0.26148984593E+02  0.51100000000E-03 0.  1.
        -12    1    3    3    0    0  0.35730593467E+01  0.41457193722E+01 -0.14046467893E+02  0.15075045688E+02  0.00000000000E+00 0.  1.
</event>
<event>
 7    1  0.5753610E-013  0.5052886E+02  0.7816164E-02  0.1300439E+00
        -11   -1    0    0    0    0  0.00000000000E+00  0.00000000000E+00  0.45593999997E+02  0.45594000000E+02  0.51100000000E-03 0.  1.
         11   -1    0    0    0    0 -0.00000000000E+00 -0.00000000000E+00 -0.45593999997E+02  0.45594000000E+02  0.51100000000E-03 0. -1.
    9900012    2    1    2    0    0 -0.14974793581E+02  0.34183357097E+02 -0.16137511740E+02  0.50528860433E+02  0.30000001771E+02 0.  0.
        -12    1    1    2    0    0  0.14974793581E+02 -0.34183357097E+02  0.16137511740E+02  0.40659139567E+02  0.00000000000E+00 0.  1.
         11    1    3    3    0    0  0.14130812343E+01  0.18353263543E+02 -0.11148034111E+02  0.21520170679E+02  0.51100000000E-03 0. -1.
        -11    1    3    3    0    0 -0.75876528172E+01  0.89859824891E+00 -0.83885055166E+01  0.11346672603E+02  0.51100000000E-03 0.  1.
         12    1    3    3    0    0 -0.88002219984E+01  0.14931495305E+02  0.33990278878E+01  0.17662017151E+02  0.00000000000E+00 0. -1.
</event>
<event>
 7    1  0.5753610E-013  0.5052885E+02  0.7816164E-02  0.1300439E+00
        -11   -1    0    0    0    0  0.00000000000E+00  0.00000000000E+00  0.45593999997E+02  0.45594000000E+02  0.51100000000E-03 0.  1.
         11   -1    0    0    0    0 -0.00000000000E+00 -0.00000000000E+00 -0.45593999997E+02  0.45594000000E+02  0.51100000000E-03 0. -1.
    9900012    2    1    2    0    0  0.15825427927E+02 -0.29386213686E+02 -0.23220085696E+02  0.50528854613E+02  0.29999984081E+02 0.  0.
        -12    1    1    2    0    0 -0.15825427927E+02  0.29386213686E+02  0.23220085696E+02  0.40659145387E+02  0.00000000000E+00 0.  1.
         11    1    3    3    0    0  0.55401984137E+01 -0.20996647445E+02 -0.73863531507E+01  0.22937114368E+02  0.51100000000E-03 0. -1.
        -11    1    3    3    0    0 -0.41516895811E+01 -0.68253421597E+01 -0.44848669960E+01  0.91616512817E+01  0.51100000000E-03 0.  1.
         12    1    3    3    0    0  0.14436919095E+02 -0.15642240811E+01 -0.11348865550E+02  0.18430088963E+02  0.00000000000E+00 0. -1.
</event>
<event>
 7    1  0.5753610E-013  0.5052888E+02  0.7816164E-02  0.1300439E+00
        -11   -1    0    0    0    0  0.00000000000E+00  0.00000000000E+00  0.45593999997E+02  0.45594000000E+02  0.51100000000E-03 0. -1.
         11   -1    0    0    0    0 -0.00000000000E+00 -0.00000000000E+00 -0.45593999997E+02  0.45594000000E+02  0.51100000000E-03 0.  1.
    9900012    2    1    2    0    0  0.14869619826E+02  0.21797282155E+02  0.30934398954E+02  0.50528878738E+02  0.30000057413E+02 0.  0.
        -12    1    1    2    0    0 -0.14869619826E+02 -0.21797282155E+02 -0.30934398954E+02  0.40659121262E+02  0.00000000000E+00 0.  1.
         11    1    3    3    0    0  0.15268652547E+02  0.22023710168E+01  0.15233467769E+02  0.21680422718E+02  0.51100000000E-03 0. -1.
        -11    1    3    3    0    0 -0.88259335371E+00 -0.67427596390E+00 -0.17666109623E+01  0.20867519394E+01  0.51100000000E-03 0.  1.
         12    1    3    3    0    0  0.48356063349E+00  0.20269187102E+02  0.17467542147E+02  0.26761704081E+02  0.00000000000E+00 0. -1.
</event>
<event>
 7    1  0.5753610E-013  0.5052886E+02  0.7816164E-02  0.1300439E+00
        -11   -1    0    0    0    0  0.00000000000E+00  0.00000000000E+00  0.45593999997E+02  0.45594000000E+02  0.51100000000E-03 0.  1.
         11   -1    0    0    0    0 -0.00000000000E+00 -0.00000000000E+00 -0.45593999997E+02  0.45594000000E+02  0.51100000000E-03 0. -1.
    9900012    2    1    2    0    0  0.32178431706E+02  0.18016437072E+02 -0.17120801603E+02  0.50528864257E+02  0.30000013395E+02 0.  0.
        -12    1    1    2    0    0 -0.32178431706E+02 -0.18016437072E+02  0.17120801603E+02  0.40659135743E+02  0.00000000000E+00 0.  1.
         11    1    3    3    0    0  0.21621936872E+02  0.10795814836E+02 -0.95286398711E+01  0.25977928134E+02  0.51100000000E-03 0. -1.
        -11    1    3    3    0    0  0.14312206136E+02  0.87487270756E+01 -0.99058154817E+00  0.16803592533E+02  0.51100000000E-03 0.  1.
         12    1    3    3    0    0 -0.37557113023E+01 -0.15281048395E+01 -0.66015801835E+01  0.77473435903E+01  0.00000000000E+00 0. -1.
</event>
<event>
 7    1  0.5753610E-013  0.5052886E+02  0.7816164E-02  0.1300439E+00
        -11   -1    0    0    0    0  0.00000000000E+00  0.00000000000E+00  0.45593999997E+02  0.45594000000E+02  0.51100000000E-03 0. -1.
         11   -1    0    0    0    0 -0.00000000000E+00 -0.00000000000E+00 -0.45593999997E+02  0.45594000000E+02  0.51100000000E-03 0.  1.
    9900012    2    1    2    0    0  0.21530940662E+02  0.28587725243E+02  0.19295751858E+02  0.50528862280E+02  0.30000007388E+02 0.  0.
        -12    1    1    2    0    0 -0.21530940662E+02 -0.28587725243E+02 -0.19295751858E+02  0.40659137720E+02  0.00000000000E+00 0.  1.
         11    1    3    3    0    0  0.32047272473E+01 -0.80934516368E+00 -0.13231851234E+01  0.35603560855E+01  0.51100000000E-03 0. -1.
        -11    1    3    3    0    0  0.20250119607E+01 -0.33558411805E+01 -0.15226179908E+01  0.42048435496E+01  0.51100000000E-03 0.  1.
         12    1    3    3    0    0  0.16301201454E+02  0.32752911587E+02  0.22141554972E+02  0.42763662645E+02  0.00000000000E+00 0. -1.
</event>
<event>
 7    1  0.5753610E-013  0.5052885E+02  0.7816164E-02  0.1300439E+00
        -11   -1    0    0    0    0  0.00000000000E+00  0.00000000000E+00  0.45593999997E+02  0.45594000000E+02  0.51100000000E-03 0.  1.
         11   -1    0    0    0    0 -0.00000000000E+00 -0.00000000000E+00 -0.45593999997E+02  0.45594000000E+02  0.51100000000E-03 0. -1.
    9900012    2    1    2    0    0 -0.34471609111E+02 -0.21260169221E+02 -0.35887967300E+01  0.50528854756E+02  0.29999984517E+02 0.  0.
        -12    1    1    2    0    0  0.34471609111E+02  0.21260169221E+02  0.35887967300E+01  0.40659145244E+02  0.00000000000E+00 0.  1.
         11    1    3    3    0    0 -0.47734229588E+01 -0.11048324229E+01  0.51767316514E+01  0.71277466480E+01  0.51100000000E-03 0. -1.
        -11    1    3    3    0    0  0.32927217608E+01 -0.54006108922E+01 -0.19945800391E+01  0.66322669123E+01  0.51100000000E-03 0.  1.
         12    1    3    3    0    0 -0.32990907913E+02 -0.14754725906E+02 -0.67709483422E+01  0.36768841196E+02  0.00000000000E+00 0. -1.
</event>
<event>
 7    1  0.5753610E-013  0.5052886E+02  0.7816164E-02  0.1300439E+00
        -11   -1    0    0    0    0  0.00000000000E+00  0.00000000000E+00  0.45593999997E+02  0.45594000000E+02  0.51100000000E-03 0. -1.
         11   -1    0    0    0    0 -0.00000000000E+00 -0.00000000000E+00 -0.45593999997E+02  0.45594000000E+02  0.51100000000E-03 0.  1.
    9900012    2    1    2    0    0  0.67716909032E+01  0.30739923475E+02  0.25736486553E+02  0.50528862859E+02  0.30000009147E+02 0.  0.
        -12    1    1    2    0    0 -0.67716909032E+01 -0.30739923475E+02 -0.25736486553E+02  0.40659137141E+02  0.00000000000E+00 0.  1.
         11    1    3    3    0    0  0.17519132149E+01  0.13395178578E+02  0.10324676541E+02  0.17002910192E+02  0.51100000000E-03 0. -1.
        -11    1    3    3    0    0  0.34653932604E+01  0.15024891207E+02 -0.23047737561E+01  0.15590647470E+02  0.51100000000E-03 0.  1.
         12    1    3    3    0    0  0.15543844280E+01  0.23198536898E+01  0.17716583768E+02  0.17935305197E+02  0.00000000000E+00 0. -1.
</event>
<event>
 7    1  0.5753610E-013  0.5052886E+02  0.7816164E-02  0.1300439E+00
        -11   -1    0    0    0    0  0.00000000000E+00  0.00000000000E+00  0.45593999997E+02  0.45594000000E+02  0.51100000000E-03 0.  1.
         11   -1    0    0    0    0 -0.00000000000E+00 -0.00000000000E+00 -0.45593999997E+02  0.45594000000E+02  0.51100000000E-03 0. -1.
    9900012    2    1    2    0    0 -0.73901898209E+01  0.27712272235E+02 -0.28819794136E+02  0.50528862379E+02  0.30000007689E+02 0.  0.
        -12    1    1    2    0    0  0.73901898209E+01 -0.27712272235E+02  0.28819794136E+02  0.40659137621E+02  0.00000000000E+00 0.  1.
         11    1    3    3    0    0 -0.10773773995E+02  0.67908040781E+01 -0.57536498999E+01  0.13974752719E+02  0.51100000000E-03 0. -1.
        -11    1    3    3    0    0  0.28876214956E+01  0.69184546325E+01  0.20691113120E+01  0.77771842132E+01  0.51100000000E-03 0.  1.
        -12    1    3    3    0    0  0.49596267845E+00  0.14003013524E+02 -0.25135255548E+02  0.28776925447E+02  0.00000000000E+00 0.  1.
</event>
<event>
 7    1  0.5753610E-013  0.5052886E+02  0.7816164E-02  0.1300439E+00
        -11   -1    0    0    0    0  0.00000000000E+00  0.00000000000E+00  0.45593999997E+02  0.45594000000E+02  0.51100000000E-03 0.  1.
         11   -1    0    0    0    0 -0.00000000000E+00 -0.00000000000E+00 -0.45593999997E+02  0.45594000000E+02  0.51100000000E-03 0. -1.
    9900012    2    1    2    0    0  0.37330492614E+02  0.15219470111E+02 -0.52884767626E+01  0.50528856677E+02  0.29999990355E+02 0.  0.
        -12    1    1    2    0    0 -0.37330492614E+02 -0.15219470111E+02  0.52884767626E+01  0.40659143323E+02  0.00000000000E+00 0.  1.
         11    1    3    3    0    0  0.12290232615E+02  0.68614088756E+01 -0.11911760948E+02  0.18439598657E+02  0.51100000000E-03 0. -1.
        -11    1    3    3    0    0  0.20594260970E+02  0.11062149738E+02  0.10473308203E+02  0.25616106783E+02  0.51100000000E-03 0.  1.
         12    1    3    3    0    0  0.44459990292E+01 -0.27040885021E+01 -0.38500240186E+01  0.64731512371E+01  0.00000000000E+00 0. -1.
</event>
<event>
 7    1  0.5753610E-013  0.5052886E+02  0.7816164E-02  0.1300439E+00
        -11   -1    0    0    0    0  0.00000000000E+00  0.00000000000E+00  0.45593999997E+02  0.45594000000E+02  0.51100000000E-03 0.  1.
         11   -1    0    0    0    0 -0.00000000000E+00 -0.00000000000E+00 -0.45593999997E+02  0.45594000000E+02  0.51100000000E-03 0. -1.
    9900012    2    1    2    0    0  0.22539511390E+02 -0.20531268572E+02 -0.26899871746E+02  0.50528860034E+02  0.30000000558E+02 0.  0.
        -12    1    1    2    0    0 -0.22539511390E+02  0.20531268572E+02  0.26899871746E+02  0.40659139966E+02  0.00000000000E+00 0.  1.
         11    1    3    3    0    0  0.23426267938E+01 -0.52649549670E+01 -0.66390697528E+01  0.87911830003E+01  0.51100000000E-03 0. -1.
        -11    1    3    3    0    0  0.21837667840E+02 -0.35454250285E+01 -0.20115983377E+02  0.29901614719E+02  0.51100000000E-03 0.  1.
        -12    1    3    3    0    0 -0.16407832441E+01 -0.11720888577E+02 -0.14481861610E+00  0.11836062314E+02  0.00000000000E+00 0.  1.
</event>
<event>
 7    1  0.5753610E-013  0.5052887E+02  0.7816164E-02  0.1300439E+00
        -11   -1    0    0    0    0  0.00000000000E+00  0.00000000000E+00  0.45593999997E+02  0.45594000000E+02  0.51100000000E-03 0.  1.
         11   -1    0    0    0    0 -0.00000000000E+00 -0.00000000000E+00 -0.45593999997E+02  0.45594000000E+02  0.51100000000E-03 0. -1.
    9900012    2    1    2    0    0  0.28869279180E+02  0.25943107398E+02 -0.12111360882E+02  0.50528866165E+02  0.30000019194E+02 0.  0.
        -12    1    1    2    0    0 -0.28869279180E+02 -0.25943107398E+02  0.12111360882E+02  0.40659133835E+02  0.00000000000E+00 0.  1.
         11    1    3    3    0    0  0.55075513214E+01  0.13704871894E+02 -0.11570405163E+02  0.18762486805E+02  0.51100000000E-03 0. -1.
        -11    1    3    3    0    0  0.75677080640E+01 -0.44515243779E+01 -0.36532500019E+00  0.87874761590E+01  0.51100000000E-03 0.  1.
        -12    1    3    3    0    0  0.15794019794E+02  0.16689759882E+02 -0.17563071885E+00  0.22978903201E+02  0.00000000000E+00 0.  1.
</event>
<event>
 7    1  0.5753610E-013  0.5052888E+02  0.7816164E-02  0.1300439E+00
        -11   -1    0    0    0    0  0.00000000000E+00  0.00000000000E+00  0.45593999997E+02  0.45594000000E+02  0.51100000000E-03 0. -1.
         11   -1    0    0    0    0 -0.00000000000E+00 -0.00000000000E+00 -0.45593999997E+02  0.45594000000E+02  0.51100000000E-03 0.  1.
    9900012    2    1    2    0    0 -0.37651154065E+02 -0.10488731581E+02 -0.11204516292E+02  0.50528879523E+02  0.30000059798E+02 0.  0.
        -12    1    1    2    0    0  0.37651154065E+02  0.10488731581E+02  0.11204516292E+02  0.40659120477E+02  0.00000000000E+00 0.  1.
         11    1    3    3    0    0 -0.53437926925E+01 -0.10561694502E+02 -0.25749400293E+01  0.12113456464E+02  0.51100000000E-03 0. -1.
        -11    1    3    3    0    0  0.13028277811E+01  0.30985437399E+01  0.63485805998E+00  0.34207277812E+01  0.51100000000E-03 0.  1.
         12    1    3    3    0    0 -0.33610189154E+02 -0.30255808192E+01 -0.92644343229E+01  0.34994695277E+02  0.00000000000E+00 0. -1.
</event>
<event>
 7    1  0.5753610E-013  0.5052884E+02  0.7816164E-02  0.1300439E+00
        -11   -1    0    0    0    0  0.00000000000E+00  0.00000000000E+00  0.45593999997E+02  0.45594000000E+02  0.51100000000E-03 0.  1.
         11   -1    0    0    0    0 -0.00000000000E+00 -0.00000000000E+00 -0.45593999997E+02  0.45594000000E+02  0.51100000000E-03 0. -1.
    9900012    2    1    2    0    0 -0.11711422688E+02 -0.37022669712E+02 -0.12055379215E+02  0.50528835449E+02  0.29999925830E+02 0.  0.
        -12    1    1    2    0    0  0.11711422688E+02  0.37022669712E+02  0.12055379215E+02  0.40659164551E+02  0.00000000000E+00 0.  1.
         11    1    3    3    0    0  0.44257274836E+01 -0.27316885482E+01 -0.77009056844E+01  0.92926387374E+01  0.51100000000E-03 0. -1.
        -11    1    3    3    0    0 -0.57927838348E+01 -0.13705448192E+02 -0.94690521487E+01  0.17636853561E+02  0.51100000000E-03 0.  1.
        -12    1    3    3    0    0 -0.10344366336E+02 -0.20585532972E+02  0.51145786185E+01  0.23599343150E+02  0.00000000000E+00 0.  1.
</event>
<event>
 7    1  0.5753610E-013  0.5052886E+02  0.7816164E-02  0.1300439E+00
        -11   -1    0    0    0    0  0.00000000000E+00  0.00000000000E+00  0.45593999997E+02  0.45594000000E+02  0.51100000000E-03 0.  1.
         11   -1    0    0    0    0 -0.00000000000E+00 -0.00000000000E+00 -0.45593999997E+02  0.45594000000E+02  0.51100000000E-03 0. -1.
    9900012    2    1    2    0    0 -0.11118314155E+02  0.38484533752E+02 -0.69634183790E+01  0.50528862734E+02  0.30000008765E+02 0.  0.
        -12    1    1    2    0    0  0.11118314155E+02 -0.38484533752E+02  0.69634183790E+01  0.40659137266E+02  0.00000000000E+00 0.  1.
         11    1    3    3    0    0 -0.33513541583E+01  0.17152595244E+02 -0.82133944985E+01  0.19310695165E+02  0.51100000000E-03 0. -1.
        -11    1    3    3    0    0  0.46531285095E+01  0.39724091515E+01 -0.61034438195E+01  0.86419711936E+01  0.51100000000E-03 0.  1.
        -12    1    3    3    0    0 -0.12420088506E+02  0.17359529356E+02  0.73534199390E+01  0.22576196375E+02  0.00000000000E+00 0.  1.
</event>
<event>
 7    1  0.5753610E-013  0.5052886E+02  0.7816164E-02  0.1300439E+00
        -11   -1    0    0    0    0  0.00000000000E+00  0.00000000000E+00  0.45593999997E+02  0.45594000000E+02  0.51100000000E-03 0. -1.
         11   -1    0    0    0    0 -0.00000000000E+00 -0.00000000000E+00 -0.45593999997E+02  0.45594000000E+02  0.51100000000E-03 0.  1.
    9900012    2    1    2    0    0  0.12013957512E+02 -0.26242758191E+02 -0.28638221832E+02  0.50528864714E+02  0.30000014783E+02 0.  0.
        -12    1    1    2    0    0 -0.12013957512E+02  0.26242758191E+02  0.28638221832E+02  0.40659135286E+02  0.00000000000E+00 0.  1.
         11    1    3    3    0    0  0.60329458846E+01 -0.92292862091E+01 -0.92986297207E+01  0.14423615182E+02  0.51100000000E-03 0. -1.
        -11    1    3    3    0    0  0.78541024503E+01 -0.90572005863E+01  0.29655067106E+01  0.12349657407E+02  0.51100000000E-03 0.  1.
        -12    1    3    3    0    0 -0.18730908226E+01 -0.79562713951E+01 -0.22305098822E+02  0.23755592125E+02  0.00000000000E+00 0.  1.
</event>
<event>
 7    1  0.5753610E-013  0.5052886E+02  0.7816164E-02  0.1300439E+00
        -11   -1    0    0    0    0  0.00000000000E+00  0.00000000000E+00  0.45593999997E+02  0.45594000000E+02  0.51100000000E-03 0.  1.
         11   -1    0    0    0    0 -0.00000000000E+00 -0.00000000000E+00 -0.45593999997E+02  0.45594000000E+02  0.51100000000E-03 0. -1.
    9900012    2    1    2    0    0  0.20846771465E+02  0.28274420684E+02 -0.20472784351E+02  0.50528860258E+02  0.30000001239E+02 0.  0.
        -12    1    1    2    0    0 -0.20846771465E+02 -0.28274420684E+02  0.20472784351E+02  0.40659139742E+02  0.00000000000E+00 0.  1.
         11    1    3    3    0    0 -0.56473941577E+01  0.11114955631E+02 -0.11250505733E+02  0.16793128921E+02  0.51100000000E-03 0. -1.
        -11    1    3    3    0    0  0.61326008700E+01  0.32258710564E+01  0.10532440699E+01  0.70088772878E+01  0.51100000000E-03 0.  1.
        -12    1    3    3    0    0  0.20361564752E+02  0.13933593997E+02 -0.10275522687E+02  0.26726854048E+02  0.00000000000E+00 0.  1.
</event>
<event>
 7    1  0.5753610E-013  0.5052886E+02  0.7816164E-02  0.1300439E+00
        -11   -1    0    0    0    0  0.00000000000E+00  0.00000000000E+00  0.45593999997E+02  0.45594000000E+02  0.51100000000E-03 0. -1.
         11   -1    0    0    0    0 -0.00000000000E+00 -0.00000000000E+00 -0.45593999997E+02  0.45594000000E+02  0.51100000000E-03 0.  1.
    9900012    2    1    2    0    0 -0.28804662001E+02 -0.14686999837E+02  0.24652566677E+02  0.50528861286E+02  0.30000004365E+02 0.  0.
        -12    1    1    2    0    0  0.28804662001E+02  0.14686999837E+02 -0.24652566677E+02  0.40659138714E+02  0.00000000000E+00 0.  1.
         11    1    3    3    0    0 -0.25705033301E+01 -0.10882621487E+02 -0.93488581154E+00  0.11221093954E+02  0.51100000000E-03 0. -1.
        -11    1    3    3    0    0  0.98450305704E-01  0.26915892873E+01  0.18768145716E+01  0.32828004130E+01  0.51100000000E-03 0.  1.
         12    1    3    3    0    0 -0.26332608976E+02 -0.64959676372E+01  0.23710637917E+02  0.36024966919E+02  0.00000000000E+00 0. -1.
</event>
<event>
 7    1  0.5753610E-013  0.5052886E+02  0.7816164E-02  0.1300439E+00
        -11   -1    0    0    0    0  0.00000000000E+00  0.00000000000E+00  0.45593999997E+02  0.45594000000E+02  0.51100000000E-03 0.  1.
         11   -1    0    0    0    0 -0.00000000000E+00 -0.00000000000E+00 -0.45593999997E+02  0.45594000000E+02  0.51100000000E-03 0. -1.
    9900012    2    1    2    0    0 -0.40321670389E+02  0.46942318707E+01  0.23006237185E+01  0.50528858527E+02  0.29999995980E+02 0.  0.
        -12    1    1    2    0    0  0.40321670389E+02 -0.46942318707E+01 -0.23006237185E+01  0.40659141473E+02  0.00000000000E+00 0.  1.
         11    1    3    3    0    0 -0.12665932702E+02  0.21720085850E+01  0.85247565621E+00  0.12879060039E+02  0.51100000000E-03 0. -1.
        -11    1    3    3    0    0 -0.18469938776E+02 -0.75235088281E+01  0.92238070926E+01  0.21973175487E+02  0.51100000000E-03 0.  1.
         12    1    3    3    0    0 -0.91857989115E+01  0.10045732114E+02 -0.77756590303E+01  0.15676623001E+02  0.00000000000E+00 0. -1.
</event>
<event>
 7    1  0.5753610E-013  0.5052886E+02  0.7816164E-02  0.1300439E+00
        -11   -1    0    0    0    0  0.00000000000E+00  0.00000000000E+00  0.45593999997E+02  0.45594000000E+02  0.51100000000E-03 0.  1.
         11   -1    0    0    0    0 -0.00000000000E+00 -0.00000000000E+00 -0.45593999997E+02  0.45594000000E+02  0.51100000000E-03 0. -1.
    9900012    2    1    2    0    0  0.17133881092E+02  0.65901759874E+01 -0.36278990189E+02  0.50528862897E+02  0.30000009262E+02 0.  0.
        -12    1    1    2    0    0 -0.17133881092E+02 -0.65901759874E+01  0.36278990189E+02  0.40659137103E+02  0.00000000000E+00 0.  1.
         11    1    3    3    0    0  0.97049475331E+01 -0.51603926514E+01 -0.28631131358E+02  0.30668507333E+02  0.51100000000E-03 0. -1.
        -11    1    3    3    0    0  0.78552707710E+01  0.16817092012E+01 -0.49185903446E+01  0.94194456292E+01  0.51100000000E-03 0.  1.
        -12    1    3    3    0    0 -0.42633721233E+00  0.10068859438E+02 -0.27292684863E+01  0.10440909935E+02  0.00000000000E+00 0.  1.
</event>
<event>
 7    1  0.5753610E-013  0.5052886E+02  0.7816164E-02  0.1300439E+00
        -11   -1    0    0    0    0  0.00000000000E+00  0.00000000000E+00  0.45593999997E+02  0.45594000000E+02  0.51100000000E-03 0.  1.
         11   -1    0    0    0    0 -0.00000000000E+00 -0.00000000000E+00 -0.45593999997E+02  0.45594000000E+02  0.51100000000E-03 0. -1.
    9900012    2    1    2    0    0  0.40072793918E+02  0.68303221678E+01 -0.82671927724E+00  0.50528861075E+02  0.30000003725E+02 0.  0.
        -12    1    1    2    0    0 -0.40072793918E+02 -0.68303221678E+01  0.82671927724E+00  0.40659138925E+02  0.00000000000E+00 0.  1.
         11    1    3    3    0    0  0.16462889779E+02  0.90446722669E+01  0.82731313065E+01  0.20525046606E+02  0.51100000000E-03 0.  1.
        -11    1    3    3    0    0  0.23195477463E+02 -0.12544452756E+01 -0.25475848874E+01  0.23368654148E+02  0.51100000000E-03 0. -1.
        -12    1    3    3    0    0  0.41442667666E+00 -0.95990482354E+00 -0.65522656963E+01  0.66351603218E+01  0.00000000000E+00 0.  1.
</event>
<event>
 7    1  0.5753610E-013  0.5052886E+02  0.7816164E-02  0.1300439E+00
        -11   -1    0    0    0    0  0.00000000000E+00  0.00000000000E+00  0.45593999997E+02  0.45594000000E+02  0.51100000000E-03 0.  1.
         11   -1    0    0    0    0 -0.00000000000E+00 -0.00000000000E+00 -0.45593999997E+02  0.45594000000E+02  0.51100000000E-03 0. -1.
    9900012    2    1    2    0    0  0.13388440307E+02 -0.28319239648E+02 -0.25921722007E+02  0.50528864005E+02  0.30000012628E+02 0.  0.
        -12    1    1    2    0    0 -0.13388440307E+02  0.28319239648E+02  0.25921722007E+02  0.40659135995E+02  0.00000000000E+00 0.  1.
         11    1    3    3    0    0  0.11742855799E+02 -0.10364737058E+02 -0.20396271921E+02  0.25716343930E+02  0.51100000000E-03 0. -1.
        -11    1    3    3    0    0 -0.45645593421E+01 -0.25379130087E+00 -0.38545985844E+01  0.59797610755E+01  0.51100000000E-03 0.  1.
         12    1    3    3    0    0  0.62101438499E+01 -0.17700711289E+02 -0.16708515018E+01  0.18832758999E+02  0.00000000000E+00 0. -1.
</event>
<event>
 7    1  0.5753610E-013  0.5052886E+02  0.7816164E-02  0.1300439E+00
        -11   -1    0    0    0    0  0.00000000000E+00  0.00000000000E+00  0.45593999997E+02  0.45594000000E+02  0.51100000000E-03 0. -1.
         11   -1    0    0    0    0 -0.00000000000E+00 -0.00000000000E+00 -0.45593999997E+02  0.45594000000E+02  0.51100000000E-03 0.  1.
    9900012    2    1    2    0    0 -0.27905020948E+02 -0.29279625377E+02  0.41447650102E+01  0.50528859166E+02  0.29999997922E+02 0.  0.
        -12    1    1    2    0    0  0.27905020948E+02  0.29279625377E+02 -0.41447650102E+01  0.40659140834E+02  0.00000000000E+00 0.  1.
         11    1    3    3    0    0  0.30232982669E+01 -0.97329921939E+01 -0.12259744620E+01  0.10265207407E+02  0.51100000000E-03 0. -1.
        -11    1    3    3    0    0 -0.41320053832E+01 -0.15071789200E+01 -0.46907608104E+01  0.64302639157E+01  0.51100000000E-03 0.  1.
         12    1    3    3    0    0 -0.26796313832E+02 -0.18039454263E+02  0.10061500283E+02  0.33833387844E+02  0.00000000000E+00 0. -1.
</event>
<event>
 7    1  0.5753610E-013  0.5052887E+02  0.7816164E-02  0.1300439E+00
        -11   -1    0    0    0    0  0.00000000000E+00  0.00000000000E+00  0.45593999997E+02  0.45594000000E+02  0.51100000000E-03 0.  1.
         11   -1    0    0    0    0 -0.00000000000E+00 -0.00000000000E+00 -0.45593999997E+02  0.45594000000E+02  0.51100000000E-03 0. -1.
    9900012    2    1    2    0    0 -0.22672085828E+02 -0.27255155120E+02 -0.19907234336E+02  0.50528868980E+02  0.30000027751E+02 0.  0.
        -12    1    1    2    0    0  0.22672085828E+02  0.27255155120E+02  0.19907234336E+02  0.40659131020E+02  0.00000000000E+00 0.  1.
         11    1    3    3    0    0 -0.50017105716E+01 -0.18715796606E+02 -0.75887443170E+01  0.20805941263E+02  0.51100000000E-03 0. -1.
        -11    1    3    3    0    0 -0.21815238680E+01 -0.25514825860E+01  0.48103809603E+01  0.58659078596E+01  0.51100000000E-03 0.  1.
        -12    1    3    3    0    0 -0.15488851388E+02 -0.59878759282E+01 -0.17128870979E+02  0.23857019858E+02  0.00000000000E+00 0.  1.
</event>
<event>
 7    1  0.6447845E-013  0.5052886E+02  0.7816164E-02  0.1300439E+00
        -11   -1    0    0    0    0  0.00000000000E+00  0.00000000000E+00  0.45593999997E+02  0.45594000000E+02  0.51100000000E-03 0. -1.
         11   -1    0    0    0    0 -0.00000000000E+00 -0.00000000000E+00 -0.45593999997E+02  0.45594000000E+02  0.51100000000E-03 0.  1.
    9900012    2    1    2    0    0 -0.19535431618E+02 -0.21545446247E+02 -0.28413487741E+02  0.50528860460E+02  0.30000001855E+02 0.  0.
        -12    1    1    2    0    0  0.19535431618E+02  0.21545446247E+02  0.28413487741E+02  0.40659139540E+02  0.00000000000E+00 0.  1.
         11    1    3    3    0    0 -0.76841260463E+01 -0.21646621008E+02 -0.15548455123E+02  0.27737636005E+02  0.51100000000E-03 0. -1.
        -11    1    3    3    0    0  0.23224594171E+01 -0.41561603539E+00  0.13436516346E+01  0.27151343262E+01  0.51100000000E-03 0.  1.
        -12    1    3    3    0    0 -0.14173764989E+02  0.51679079614E+00 -0.14208684253E+02  0.20076090129E+02  0.00000000000E+00 0.  1.
</event>
<event>
 7    1  0.5753610E-013  0.5052886E+02  0.7816164E-02  0.1300439E+00
        -11   -1    0    0    0    0  0.00000000000E+00  0.00000000000E+00  0.45593999997E+02  0.45594000000E+02  0.51100000000E-03 0.  1.
         11   -1    0    0    0    0 -0.00000000000E+00 -0.00000000000E+00 -0.45593999997E+02  0.45594000000E+02  0.51100000000E-03 0. -1.
    9900012    2    1    2    0    0 -0.44636167603E+01  0.38330291982E+02  0.12807424270E+02  0.50528864809E+02  0.30000015073E+02 0.  0.
        -12    1    1    2    0    0  0.44636167603E+01 -0.38330291982E+02 -0.12807424270E+02  0.40659135191E+02  0.00000000000E+00 0.  1.
         11    1    3    3    0    0  0.44140047528E+01  0.25515342923E+02  0.38918033030E+01  0.26185154107E+02  0.51100000000E-03 0. -1.
        -11    1    3    3    0    0  0.22663131539E+01  0.81117689814E+01  0.88924130328E+01  0.12247937832E+02  0.51100000000E-03 0.  1.
        -12    1    3    3    0    0 -0.11143934667E+02  0.47031800783E+01  0.23207934430E-01  0.12095772870E+02  0.00000000000E+00 0.  1.
</event>
<event>
 7    1  0.5753610E-013  0.5052876E+02  0.7816164E-02  0.1300439E+00
        -11   -1    0    0    0    0  0.00000000000E+00  0.00000000000E+00  0.45593999997E+02  0.45594000000E+02  0.51100000000E-03 0.  1.
         11   -1    0    0    0    0 -0.00000000000E+00 -0.00000000000E+00 -0.45593999997E+02  0.45594000000E+02  0.51100000000E-03 0. -1.
    9900012    2    1    2    0    0  0.13823513913E+02 -0.23090503163E+02 -0.30478073044E+02  0.50528759848E+02  0.29999696033E+02 0.  0.
        -12    1    1    2    0    0 -0.13823513913E+02  0.23090503163E+02  0.30478073044E+02  0.40659240152E+02  0.00000000000E+00 0.  1.
         11    1    3    3    0    0  0.75844313260E+01 -0.12604391192E+02 -0.39014991041E+01  0.15218934634E+02  0.51100000000E-03 0. -1.
        -11    1    3    3    0    0 -0.66171211545E+01 -0.73265789045E+01 -0.13267801168E+02  0.16537823282E+02  0.51100000000E-03 0.  1.
         12    1    3    3    0    0  0.12856203742E+02 -0.31595330663E+01 -0.13308772772E+02  0.18772001932E+02  0.00000000000E+00 0. -1.
</event>
<event>
 7    1  0.5753610E-013  0.5052886E+02  0.7816164E-02  0.1300439E+00
        -11   -1    0    0    0    0  0.00000000000E+00  0.00000000000E+00  0.45593999997E+02  0.45594000000E+02  0.51100000000E-03 0. -1.
         11   -1    0    0    0    0 -0.00000000000E+00 -0.00000000000E+00 -0.45593999997E+02  0.45594000000E+02  0.51100000000E-03 0.  1.
    9900012    2    1    2    0    0 -0.23036081333E+01 -0.25665765162E+02  0.31450394984E+02  0.50528862572E+02  0.30000008274E+02 0.  0.
        -12    1    1    2    0    0  0.23036081333E+01  0.25665765162E+02 -0.31450394984E+02  0.40659137428E+02  0.00000000000E+00 0.  1.
         11    1    3    3    0    0  0.46507189231E+01 -0.39593811136E+01  0.13158706530E+02  0.14507151447E+02  0.51100000000E-03 0. -1.
        -11    1    3    3    0    0  0.23309472124E+01  0.24754852670E+01 -0.11981882370E+01  0.36051348833E+01  0.51100000000E-03 0.  1.
         12    1    3    3    0    0 -0.92852742688E+01 -0.24181869315E+02  0.19489876690E+02  0.32416576241E+02  0.00000000000E+00 0. -1.
</event>
<event>
 7    1  0.6827296E-013  0.5052886E+02  0.7816164E-02  0.1300439E+00
        -11   -1    0    0    0    0  0.00000000000E+00  0.00000000000E+00  0.45593999997E+02  0.45594000000E+02  0.51100000000E-03 0. -1.
         11   -1    0    0    0    0 -0.00000000000E+00 -0.00000000000E+00 -0.45593999997E+02  0.45594000000E+02  0.51100000000E-03 0.  1.
    9900012    2    1    2    0    0 -0.42472221451E+01 -0.40435253667E+02  0.34189955849E+00  0.50528861663E+02  0.30000005510E+02 0.  0.
        -12    1    1    2    0    0  0.42472221451E+01  0.40435253667E+02 -0.34189955849E+00  0.40659138337E+02  0.00000000000E+00 0.  1.
         11    1    3    3    0    0  0.68712691185E+01 -0.34183597624E+02  0.11576863313E+01  0.34886572255E+02  0.51100000000E-03 0. -1.
        -11    1    3    3    0    0 -0.64847853700E+01 -0.45083019281E+01  0.38969904368E+01  0.88070291413E+01  0.51100000000E-03 0.  1.
        -12    1    3    3    0    0 -0.46337058936E+01 -0.17433541146E+01 -0.47127772096E+01  0.68352602660E+01  0.00000000000E+00 0.  1.
</event>
<event>
 7    1  0.5753610E-013  0.5052886E+02  0.7816164E-02  0.1300439E+00
        -11   -1    0    0    0    0  0.00000000000E+00  0.00000000000E+00  0.45593999997E+02  0.45594000000E+02  0.51100000000E-03 0.  1.
         11   -1    0    0    0    0 -0.00000000000E+00 -0.00000000000E+00 -0.45593999997E+02  0.45594000000E+02  0.51100000000E-03 0. -1.
    9900012    2    1    2    0    0 -0.16783023638E+02  0.28795407054E+02 -0.23287773420E+02  0.50528859076E+02  0.29999997646E+02 0.  0.
        -12    1    1    2    0    0  0.16783023638E+02 -0.28795407054E+02  0.23287773420E+02  0.40659140924E+02  0.00000000000E+00 0.  1.
         11    1    3    3    0    0 -0.70739710419E+01  0.93024605952E+01 -0.99557452364E+01  0.15352319138E+02  0.51100000000E-03 0. -1.
        -11    1    3    3    0    0 -0.15347992241E+02  0.12461753338E+02 -0.86015284218E+00  0.19788785341E+02  0.51100000000E-03 0.  1.
         12    1    3    3    0    0  0.56389396447E+01  0.70311931212E+01 -0.12471875341E+02  0.15387754598E+02  0.00000000000E+00 0. -1.
</event>
<event>
 7    1  0.5753610E-013  0.5052886E+02  0.7816164E-02  0.1300439E+00
        -11   -1    0    0    0    0  0.00000000000E+00  0.00000000000E+00  0.45593999997E+02  0.45594000000E+02  0.51100000000E-03 0.  1.
         11   -1    0    0    0    0 -0.00000000000E+00 -0.00000000000E+00 -0.45593999997E+02  0.45594000000E+02  0.51100000000E-03 0. -1.
    9900012    2    1    2    0    0 -0.50469696684E+01 -0.32472048752E+02 -0.23942846888E+02  0.50528858714E+02  0.29999996548E+02 0.  0.
        -12    1    1    2    0    0  0.50469696684E+01  0.32472048752E+02  0.23942846888E+02  0.40659141286E+02  0.00000000000E+00 0.  1.
         11    1    3    3    0    0  0.82344165795E+01 -0.22126826096E+02 -0.22384005782E+02  0.32533763456E+02  0.51100000000E-03 0. -1.
        -11    1    3    3    0    0 -0.30346026298E+01  0.42114094299E+00 -0.20729397659E+00  0.30706911060E+01  0.51100000000E-03 0.  1.
        -12    1    3    3    0    0 -0.10246783618E+02 -0.10766363599E+02 -0.13515471298E+01  0.14924404152E+02  0.00000000000E+00 0.  1.
</event>
<event>
 7    1  0.5753610E-013  0.5052885E+02  0.7816164E-02  0.1300439E+00
        -11   -1    0    0    0    0  0.00000000000E+00  0.00000000000E+00  0.45593999997E+02  0.45594000000E+02  0.51100000000E-03 0.  1.
         11   -1    0    0    0    0 -0.00000000000E+00 -0.00000000000E+00 -0.45593999997E+02  0.45594000000E+02  0.51100000000E-03 0. -1.
    9900012    2    1    2    0    0 -0.34868843689E+02 -0.89381075638E+01 -0.18906092345E+02  0.50528851524E+02  0.29999974693E+02 0.  0.
        -12    1    1    2    0    0  0.34868843689E+02  0.89381075638E+01  0.18906092345E+02  0.40659148476E+02  0.00000000000E+00 0.  1.
         11    1    3    3    0    0 -0.38143420841E+01 -0.40250423901E+00  0.36590427876E+01  0.53009253513E+01  0.51100000000E-03 0. -1.
        -11    1    3    3    0    0 -0.14200614045E+02  0.73850304611E+01 -0.88252062131E+01  0.18277865826E+02  0.51100000000E-03 0.  1.
         12    1    3    3    0    0 -0.16853887559E+02 -0.15920633786E+02 -0.13739928920E+02  0.26950060347E+02  0.00000000000E+00 0. -1.
</event>
<event>
 7    1  0.5753610E-013  0.5052886E+02  0.7816164E-02  0.1300439E+00
        -11   -1    0    0    0    0  0.00000000000E+00  0.00000000000E+00  0.45593999997E+02  0.45594000000E+02  0.51100000000E-03 0.  1.
         11   -1    0    0    0    0 -0.00000000000E+00 -0.00000000000E+00 -0.45593999997E+02  0.45594000000E+02  0.51100000000E-03 0. -1.
    9900012    2    1    2    0    0 -0.43760098636E+00  0.36174454034E+02 -0.18557566582E+02  0.50528857157E+02  0.29999991815E+02 0.  0.
        -12    1    1    2    0    0  0.43760098636E+00 -0.36174454034E+02  0.18557566582E+02  0.40659142843E+02  0.00000000000E+00 0.  1.
         11    1    3    3    0    0 -0.17316219938E+01  0.17356716809E+02 -0.11301343753E+02  0.20783996344E+02  0.51100000000E-03 0. -1.
        -11    1    3    3    0    0  0.40356455859E+01  0.21445300669E+02 -0.30482927456E+00  0.21823846527E+02  0.51100000000E-03 0.  1.
        -12    1    3    3    0    0 -0.27416245785E+01 -0.26275634445E+01 -0.69513935540E+01  0.79210142865E+01  0.00000000000E+00 0.  1.
</event>
<event>
 7    1  0.5753610E-013  0.5052887E+02  0.7816164E-02  0.1300439E+00
        -11   -1    0    0    0    0  0.00000000000E+00  0.00000000000E+00  0.45593999997E+02  0.45594000000E+02  0.51100000000E-03 0.  1.
         11   -1    0    0    0    0 -0.00000000000E+00 -0.00000000000E+00 -0.45593999997E+02  0.45594000000E+02  0.51100000000E-03 0. -1.
    9900012    2    1    2    0    0  0.18813802266E+02  0.29404021834E+01 -0.35924363412E+02  0.50528868095E+02  0.30000025062E+02 0.  0.
        -12    1    1    2    0    0 -0.18813802266E+02 -0.29404021834E+01  0.35924363412E+02  0.40659131905E+02  0.00000000000E+00 0.  1.
         11    1    3    3    0    0 -0.32071625446E+01  0.66702855277E+01 -0.10443535613E+02  0.12800235817E+02  0.51100000000E-03 0. -1.
        -11    1    3    3    0    0  0.52476401768E+01  0.45032795723E+01 -0.10853241909E+01  0.69996559339E+01  0.51100000000E-03 0.  1.
         12    1    3    3    0    0  0.16773324634E+02 -0.82331629166E+01 -0.24395503608E+02  0.30728976345E+02  0.00000000000E+00 0. -1.
</event>
<event>
 7    1  0.5753610E-013  0.5052886E+02  0.7816164E-02  0.1300439E+00
        -11   -1    0    0    0    0  0.00000000000E+00  0.00000000000E+00  0.45593999997E+02  0.45594000000E+02  0.51100000000E-03 0.  1.
         11   -1    0    0    0    0 -0.00000000000E+00 -0.00000000000E+00 -0.45593999997E+02  0.45594000000E+02  0.51100000000E-03 0. -1.
    9900012    2    1    2    0    0  0.32113052637E+02  0.21883784910E+02 -0.11958982821E+02  0.50528862506E+02  0.30000008074E+02 0.  0.
        -12    1    1    2    0    0 -0.32113052637E+02 -0.21883784910E+02  0.11958982821E+02  0.40659137494E+02  0.00000000000E+00 0.  1.
         11    1    3    3    0    0  0.10391213999E+02  0.23911240853E+01  0.38313551824E+01  0.11330228839E+02  0.51100000000E-03 0. -1.
        -11    1    3    3    0    0 -0.14264405465E+01  0.10292099089E+02 -0.79539189332E+01  0.13085368277E+02  0.51100000000E-03 0.  1.
         12    1    3    3    0    0  0.23148279184E+02  0.92005617352E+01 -0.78364190705E+01  0.26113265389E+02  0.00000000000E+00 0. -1.
</event>
<event>
 7    1  0.5753610E-013  0.5052887E+02  0.7816164E-02  0.1300439E+00
        -11   -1    0    0    0    0  0.00000000000E+00  0.00000000000E+00  0.45593999997E+02  0.45594000000E+02  0.51100000000E-03 0.  1.
         11   -1    0    0    0    0 -0.00000000000E+00 -0.00000000000E+00 -0.45593999997E+02  0.45594000000E+02  0.51100000000E-03 0. -1.
    9900012    2    1    2    0    0  0.16252840514E+02  0.12767174382E+02 -0.35014419758E+02  0.50528866248E+02  0.30000019448E+02 0.  0.
        -12    1    1    2    0    0 -0.16252840514E+02 -0.12767174382E+02  0.35014419758E+02  0.40659133752E+02  0.00000000000E+00 0.  1.
         11    1    3    3    0    0  0.49845078158E+01  0.10662209338E+02 -0.39465148639E+01  0.12413823181E+02  0.51100000000E-03 0. -1.
        -11    1    3    3    0    0  0.11117221649E+02 -0.36023852557E+01 -0.75476369200E+01  0.13911743962E+02  0.51100000000E-03 0.  1.
        -12    1    3    3    0    0  0.15111104863E+00  0.57073502992E+01 -0.23520267974E+02  0.24203299105E+02  0.00000000000E+00 0.  1.
</event>
<event>
 7    1  0.5753610E-013  0.5052887E+02  0.7816164E-02  0.1300439E+00
        -11   -1    0    0    0    0  0.00000000000E+00  0.00000000000E+00  0.45593999997E+02  0.45594000000E+02  0.51100000000E-03 0. -1.
         11   -1    0    0    0    0 -0.00000000000E+00 -0.00000000000E+00 -0.45593999997E+02  0.45594000000E+02  0.51100000000E-03 0.  1.
    9900012    2    1    2    0    0  0.25586552565E+02  0.31569263613E+02  0.13693119132E+01  0.50528867049E+02  0.30000021881E+02 0.  0.
        -12    1    1    2    0    0 -0.25586552565E+02 -0.31569263613E+02 -0.13693119132E+01  0.40659132951E+02  0.00000000000E+00 0.  1.
         11    1    3    3    0    0 -0.33580220373E+00 -0.14164723548E+01  0.35589448915E+01  0.38451587813E+01  0.51100000000E-03 0.  1.
        -11    1    3    3    0    0  0.32510152936E+01  0.18854869013E+02  0.32872939487E+01  0.19413435752E+02  0.51100000000E-03 0. -1.
         12    1    3    3    0    0  0.22671339475E+02  0.14130866955E+02 -0.54769269270E+01  0.27270272515E+02  0.00000000000E+00 0. -1.
</event>
<event>
 7    1  0.5753610E-013  0.5052886E+02  0.7816164E-02  0.1300439E+00
        -11   -1    0    0    0    0  0.00000000000E+00  0.00000000000E+00  0.45593999997E+02  0.45594000000E+02  0.51100000000E-03 0.  1.
         11   -1    0    0    0    0 -0.00000000000E+00 -0.00000000000E+00 -0.45593999997E+02  0.45594000000E+02  0.51100000000E-03 0. -1.
    9900012    2    1    2    0    0 -0.15936097618E+02  0.35162096103E+02 -0.12760625752E+02  0.50528858602E+02  0.29999996207E+02 0.  0.
        -12    1    1    2    0    0  0.15936097618E+02 -0.35162096103E+02  0.12760625752E+02  0.40659141398E+02  0.00000000000E+00 0.  1.
         11    1    3    3    0    0 -0.67510976706E+01  0.79626949985E+01  0.46777762102E+01  0.11439555146E+02  0.51100000000E-03 0. -1.
        -11    1    3    3    0    0 -0.10160314124E+02  0.93999565118E+01  0.43149593851E+00  0.13848370104E+02  0.51100000000E-03 0.  1.
         12    1    3    3    0    0  0.97531417658E+00  0.17799444592E+02 -0.17869897901E+02  0.25240933353E+02  0.00000000000E+00 0. -1.
</event>
<event>
 7    1  0.5753610E-013  0.5052873E+02  0.7816164E-02  0.1300439E+00
        -11   -1    0    0    0    0  0.00000000000E+00  0.00000000000E+00  0.45593999997E+02  0.45594000000E+02  0.51100000000E-03 0. -1.
         11   -1    0    0    0    0 -0.00000000000E+00 -0.00000000000E+00 -0.45593999997E+02  0.45594000000E+02  0.51100000000E-03 0.  1.
    9900012    2    1    2    0    0  0.33161106551E+02  0.18279501682E+02  0.14811371004E+02  0.50528734384E+02  0.29999618631E+02 0.  0.
        -12    1    1    2    0    0 -0.33161106551E+02 -0.18279501682E+02 -0.14811371004E+02  0.40659265616E+02  0.00000000000E+00 0.  1.
         11    1    3    3    0    0  0.13212479554E+02  0.95857084520E+00 -0.22280821896E+00  0.13249079885E+02  0.51100000000E-03 0. -1.
        -11    1    3    3    0    0  0.41874361590E+01 -0.51070666190E+01  0.40592740207E+01  0.77520614595E+01  0.51100000000E-03 0.  1.
        -12    1    3    3    0    0  0.15761190838E+02  0.22427997456E+02  0.10974905203E+02  0.29527593039E+02  0.00000000000E+00 0.  1.
</event>
<event>
 7    1  0.5753610E-013  0.5052886E+02  0.7816164E-02  0.1300439E+00
        -11   -1    0    0    0    0  0.00000000000E+00  0.00000000000E+00  0.45593999997E+02  0.45594000000E+02  0.51100000000E-03 0. -1.
         11   -1    0    0    0    0 -0.00000000000E+00 -0.00000000000E+00 -0.45593999997E+02  0.45594000000E+02  0.51100000000E-03 0.  1.
    9900012    2    1    2    0    0  0.14453466452E+02 -0.37078370304E+02  0.83340900588E+01  0.50528864569E+02  0.30000014343E+02 0.  0.
        -12    1    1    2    0    0 -0.14453466452E+02  0.37078370304E+02 -0.83340900588E+01  0.40659135431E+02  0.00000000000E+00 0.  1.
         11    1    3    3    0    0 -0.95841632912E+00  0.42201428282E+00 -0.18363523873E+01  0.21139650579E+01  0.51100000000E-03 0. -1.
        -11    1    3    3    0    0 -0.61664566349E+01 -0.52884327257E+01 -0.68472404819E+00  0.81523956852E+01  0.51100000000E-03 0.  1.
         12    1    3    3    0    0  0.21578339416E+02 -0.32211951862E+02  0.10855166494E+02  0.40262503826E+02  0.00000000000E+00 0. -1.
</event>
<event>
 7    1  0.5753610E-013  0.5052885E+02  0.7816164E-02  0.1300439E+00
        -11   -1    0    0    0    0  0.00000000000E+00  0.00000000000E+00  0.45593999997E+02  0.45594000000E+02  0.51100000000E-03 0.  1.
         11   -1    0    0    0    0 -0.00000000000E+00 -0.00000000000E+00 -0.45593999997E+02  0.45594000000E+02  0.51100000000E-03 0. -1.
    9900012    2    1    2    0    0  0.36831886684E+02 -0.92127348102E+01 -0.14550066758E+02  0.50528846024E+02  0.29999957975E+02 0.  0.
        -12    1    1    2    0    0 -0.36831886684E+02  0.92127348102E+01  0.14550066758E+02  0.40659153976E+02  0.00000000000E+00 0.  1.
         11    1    3    3    0    0  0.21853851813E+02  0.32829334116E+01  0.12102044236E+01  0.22132173094E+02  0.51100000000E-03 0. -1.
        -11    1    3    3    0    0  0.87010763365E+01  0.87555221174E+00 -0.71744615865E+01  0.11311419911E+02  0.51100000000E-03 0.  1.
         12    1    3    3    0    0  0.62769585341E+01 -0.13371220433E+02 -0.85858095947E+01  0.17085253019E+02  0.00000000000E+00 0. -1.
</event>
<event>
 7    1  0.5753610E-013  0.5052886E+02  0.7816164E-02  0.1300439E+00
        -11   -1    0    0    0    0  0.00000000000E+00  0.00000000000E+00  0.45593999997E+02  0.45594000000E+02  0.51100000000E-03 0.  1.
         11   -1    0    0    0    0 -0.00000000000E+00 -0.00000000000E+00 -0.45593999997E+02  0.45594000000E+02  0.51100000000E-03 0. -1.
    9900012    2    1    2    0    0  0.21496491416E+01  0.20808164701E+02 -0.34864949915E+02  0.50528862746E+02  0.30000008804E+02 0.  0.
        -12    1    1    2    0    0 -0.21496491416E+01 -0.20808164701E+02  0.34864949915E+02  0.40659137254E+02  0.00000000000E+00 0.  1.
         11    1    3    3    0    0  0.72197235405E+00  0.15557887328E+02 -0.15478770588E+02  0.21958174819E+02  0.51100000000E-03 0. -1.
        -11    1    3    3    0    0 -0.37341829207E+01  0.19547584776E+01  0.31213840467E+01  0.52448299705E+01  0.51100000000E-03 0.  1.
         12    1    3    3    0    0  0.51618597083E+01  0.32955188956E+01 -0.22507563373E+02  0.23325857957E+02  0.00000000000E+00 0. -1.
</event>
<event>
 7    1  0.5753610E-013  0.5052886E+02  0.7816164E-02  0.1300439E+00
        -11   -1    0    0    0    0  0.00000000000E+00  0.00000000000E+00  0.45593999997E+02  0.45594000000E+02  0.51100000000E-03 0.  1.
         11   -1    0    0    0    0 -0.00000000000E+00 -0.00000000000E+00 -0.45593999997E+02  0.45594000000E+02  0.51100000000E-03 0. -1.
    9900012    2    1    2    0    0  0.21997283307E+02  0.33046592942E+02 -0.87868204735E+01  0.50528855985E+02  0.29999988252E+02 0.  0.
        -12    1    1    2    0    0 -0.21997283307E+02 -0.33046592942E+02  0.87868204735E+01  0.40659144015E+02  0.00000000000E+00 0.  1.
         11    1    3    3    0    0  0.11559540731E+02  0.17777109415E+02 -0.18264744060E+01  0.21283435110E+02  0.51100000000E-03 0. -1.
        -11    1    3    3    0    0  0.59225348917E+01  0.73419543551E+01  0.75656058965E+01  0.12092109251E+02  0.51100000000E-03 0.  1.
         12    1    3    3    0    0  0.45152076842E+01  0.79275291722E+01 -0.14525951964E+02  0.17153311624E+02  0.00000000000E+00 0. -1.
</event>
<event>
 7    1  0.5753610E-013  0.5052883E+02  0.7816164E-02  0.1300439E+00
        -11   -1    0    0    0    0  0.00000000000E+00  0.00000000000E+00  0.45593999997E+02  0.45594000000E+02  0.51100000000E-03 0. -1.
         11   -1    0    0    0    0 -0.00000000000E+00 -0.00000000000E+00 -0.45593999997E+02  0.45594000000E+02  0.51100000000E-03 0.  1.
    9900012    2    1    2    0    0 -0.10406304509E+02  0.19738082799E+02  0.33989478338E+02  0.50528834689E+02  0.29999923519E+02 0.  0.
        -12    1    1    2    0    0  0.10406304509E+02 -0.19738082799E+02 -0.33989478338E+02  0.40659165311E+02  0.00000000000E+00 0.  1.
         11    1    3    3    0    0 -0.55327174556E+01  0.13939898976E+02  0.13302385320E+02  0.20047074634E+02  0.51100000000E-03 0. -1.
        -11    1    3    3    0    0  0.35356445243E+01  0.60615636846E+01 -0.11216489911E+01  0.71064360424E+01  0.51100000000E-03 0.  1.
        -12    1    3    3    0    0 -0.84092315779E+01 -0.26337986113E+00  0.21808742009E+02  0.23375324012E+02  0.00000000000E+00 0.  1.
</event>
<event>
 7    1  0.8471770E-013  0.5052890E+02  0.7816164E-02  0.1300439E+00
        -11   -1    0    0    0    0  0.00000000000E+00  0.00000000000E+00  0.45593999997E+02  0.45594000000E+02  0.51100000000E-03 0.  1.
         11   -1    0    0    0    0 -0.00000000000E+00 -0.00000000000E+00 -0.45593999997E+02  0.45594000000E+02  0.51100000000E-03 0. -1.
    9900012    2    1    2    0    0 -0.29975005776E+02 -0.16497592105E+02 -0.21965672737E+02  0.50528901445E+02  0.30000126432E+02 0.  0.
        -12    1    1    2    0    0  0.29975005776E+02  0.16497592105E+02  0.21965672737E+02  0.40659098555E+02  0.00000000000E+00 0.  1.
         11    1    3    3    0    0 -0.11626607696E+02 -0.98970683294E+01 -0.61494380130E+01  0.16460423937E+02  0.51100000000E-03 0. -1.
        -11    1    3    3    0    0 -0.47537562274E+01 -0.10687736061E+02 -0.16062811461E+02  0.19870576556E+02  0.51100000000E-03 0.  1.
        -12    1    3    3    0    0 -0.13594641852E+02  0.40872122857E+01  0.24657673720E+00  0.14197900952E+02  0.00000000000E+00 0.  1.
</event>
<event>
 7    1  0.5753610E-013  0.5052886E+02  0.7816164E-02  0.1300439E+00
        -11   -1    0    0    0    0  0.00000000000E+00  0.00000000000E+00  0.45593999997E+02  0.45594000000E+02  0.51100000000E-03 0.  1.
         11   -1    0    0    0    0 -0.00000000000E+00 -0.00000000000E+00 -0.45593999997E+02  0.45594000000E+02  0.51100000000E-03 0. -1.
    9900012    2    1    2    0    0  0.13478070326E+02 -0.81838353522E+01 -0.37477089313E+02  0.50528858787E+02  0.29999996769E+02 0.  0.
        -12    1    1    2    0    0 -0.13478070326E+02  0.81838353522E+01  0.37477089313E+02  0.40659141213E+02  0.00000000000E+00 0.  1.
         11    1    3    3    0    0  0.10485425943E+02 -0.13726578038E+02 -0.32489674753E+02  0.36795951783E+02  0.51100000000E-03 0. -1.
        -11    1    3    3    0    0 -0.21400859954E+01  0.36613409109E+01 -0.67650716429E+01  0.79844586496E+01  0.51100000000E-03 0.  1.
        -12    1    3    3    0    0  0.51327303786E+01  0.18814017746E+01  0.17776570824E+01  0.57484483541E+01  0.00000000000E+00 0.  1.
</event>
<event>
 7    1  0.5753610E-013  0.5052887E+02  0.7816164E-02  0.1300439E+00
        -11   -1    0    0    0    0  0.00000000000E+00  0.00000000000E+00  0.45593999997E+02  0.45594000000E+02  0.51100000000E-03 0. -1.
         11   -1    0    0    0    0 -0.00000000000E+00 -0.00000000000E+00 -0.45593999997E+02  0.45594000000E+02  0.51100000000E-03 0.  1.
    9900012    2    1    2    0    0 -0.25889905459E+02 -0.53726943281E+01  0.30887083293E+02  0.50528868635E+02  0.30000026702E+02 0.  0.
        -12    1    1    2    0    0  0.25889905459E+02  0.53726943281E+01 -0.30887083293E+02  0.40659131365E+02  0.00000000000E+00 0.  1.
         11    1    3    3    0    0  0.39754916782E+01 -0.42389523292E+01  0.20514442193E+01  0.61629274358E+01  0.51100000000E-03 0. -1.
        -11    1    3    3    0    0 -0.34787055196E+01  0.51656247994E+01  0.81171071741E+01  0.10230957961E+02  0.51100000000E-03 0.  1.
         12    1    3    3    0    0 -0.26386691617E+02 -0.62993667984E+01  0.20718531900E+02  0.34134983238E+02  0.00000000000E+00 0. -1.
</event>
<event>
 7    1  0.5753610E-013  0.5052886E+02  0.7816164E-02  0.1300439E+00
        -11   -1    0    0    0    0  0.00000000000E+00  0.00000000000E+00  0.45593999997E+02  0.45594000000E+02  0.51100000000E-03 0. -1.
         11   -1    0    0    0    0 -0.00000000000E+00 -0.00000000000E+00 -0.45593999997E+02  0.45594000000E+02  0.51100000000E-03 0.  1.
    9900012    2    1    2    0    0  0.14262375511E+02 -0.37875731953E+02  0.38960103990E+01  0.50528864210E+02  0.30000013252E+02 0.  0.
        -12    1    1    2    0    0 -0.14262375511E+02  0.37875731953E+02 -0.38960103990E+01  0.40659135790E+02  0.00000000000E+00 0.  1.
         11    1    3    3    0    0 -0.31762007178E+01 -0.21232862784E+02  0.77270310070E+01  0.22817311880E+02  0.51100000000E-03 0. -1.
        -11    1    3    3    0    0  0.47402528553E+01 -0.13034803796E+02 -0.42420869274E+01  0.14504185910E+02  0.51100000000E-03 0.  1.
        -12    1    3    3    0    0  0.12698323373E+02 -0.36080653725E+01  0.41106631942E+00  0.13207366420E+02  0.00000000000E+00 0.  1.
</event>
<event>
 7    1  0.5753610E-013  0.5052889E+02  0.7816164E-02  0.1300439E+00
        -11   -1    0    0    0    0  0.00000000000E+00  0.00000000000E+00  0.45593999997E+02  0.45594000000E+02  0.51100000000E-03 0.  1.
         11   -1    0    0    0    0 -0.00000000000E+00 -0.00000000000E+00 -0.45593999997E+02  0.45594000000E+02  0.51100000000E-03 0. -1.
    9900012    2    1    2    0    0 -0.10820549367E+02 -0.14440763175E+02 -0.36435462716E+02  0.50528894341E+02  0.30000104838E+02 0.  0.
        -12    1    1    2    0    0  0.10820549367E+02  0.14440763175E+02  0.36435462716E+02  0.40659105659E+02  0.00000000000E+00 0.  1.
         11    1    3    3    0    0 -0.30426688032E+00 -0.14920023695E+02 -0.19785635990E+02  0.24782475203E+02  0.51100000000E-03 0. -1.
        -11    1    3    3    0    0  0.11783304274E+01 -0.30861265505E+01  0.16856108089E+01  0.37086282830E+01  0.51100000000E-03 0.  1.
        -12    1    3    3    0    0 -0.11694612914E+02  0.35653870704E+01 -0.18335437535E+02  0.22037790855E+02  0.00000000000E+00 0.  1.
</event>
<event>
 7    1  0.7640190E-013  0.5052885E+02  0.7816164E-02  0.1300439E+00
        -11   -1    0    0    0    0  0.00000000000E+00  0.00000000000E+00  0.45593999997E+02  0.45594000000E+02  0.51100000000E-03 0. -1.
         11   -1    0    0    0    0 -0.00000000000E+00 -0.00000000000E+00 -0.45593999997E+02  0.45594000000E+02  0.51100000000E-03 0.  1.
    9900012    2    1    2    0    0 -0.64623832118E+01 -0.39438572240E+02  0.74834957694E+01  0.50528854829E+02  0.29999984737E+02 0.  0.
        -12    1    1    2    0    0  0.64623832118E+01  0.39438572240E+02 -0.74834957694E+01  0.40659145171E+02  0.00000000000E+00 0.  1.
         11    1    3    3    0    0 -0.92503445997E+01 -0.30506422297E+02  0.63892461447E+01  0.32512046123E+02  0.51100000000E-03 0. -1.
        -11    1    3    3    0    0 -0.45134111612E+01  0.18299196114E+01 -0.57885562748E+00  0.49045448507E+01  0.51100000000E-03 0.  1.
        -12    1    3    3    0    0  0.73013725491E+01 -0.10762069555E+02  0.16731052523E+01  0.13112263855E+02  0.00000000000E+00 0.  1.
</event>
<event>
 7    1  0.5753610E-013  0.5052888E+02  0.7816164E-02  0.1300439E+00
        -11   -1    0    0    0    0  0.00000000000E+00  0.00000000000E+00  0.45593999997E+02  0.45594000000E+02  0.51100000000E-03 0.  1.
         11   -1    0    0    0    0 -0.00000000000E+00 -0.00000000000E+00 -0.45593999997E+02  0.45594000000E+02  0.51100000000E-03 0. -1.
    9900012    2    1    2    0    0 -0.20591707023E+02 -0.17203132903E+02 -0.30548293896E+02  0.50528875074E+02  0.30000046274E+02 0.  0.
        -12    1    1    2    0    0  0.20591707023E+02  0.17203132903E+02  0.30548293896E+02  0.40659124926E+02  0.00000000000E+00 0.  1.
         11    1    3    3    0    0 -0.25680046121E+01  0.83465429269E+01 -0.84021249819E+01  0.12118379883E+02  0.51100000000E-03 0.  1.
        -11    1    3    3    0    0 -0.35398358588E+01 -0.41775270665E+01 -0.50235910377E+01  0.74309244024E+01  0.51100000000E-03 0. -1.
        -12    1    3    3    0    0 -0.14483866553E+02 -0.21372148763E+02 -0.17122577877E+02  0.30979570788E+02  0.00000000000E+00 0.  1.
</event>
<event>
 7    1  0.5753610E-013  0.5052886E+02  0.7816164E-02  0.1300439E+00
        -11   -1    0    0    0    0  0.00000000000E+00  0.00000000000E+00  0.45593999997E+02  0.45594000000E+02  0.51100000000E-03 0.  1.
         11   -1    0    0    0    0 -0.00000000000E+00 -0.00000000000E+00 -0.45593999997E+02  0.45594000000E+02  0.51100000000E-03 0. -1.
    9900012    2    1    2    0    0 -0.30448963619E+02  0.27077124034E+01 -0.26808474154E+02  0.50528863530E+02  0.30000011187E+02 0.  0.
        -12    1    1    2    0    0  0.30448963619E+02 -0.27077124034E+01  0.26808474154E+02  0.40659136470E+02  0.00000000000E+00 0.  1.
         11    1    3    3    0    0 -0.19078576978E+02  0.79591805020E+01 -0.12367722088E+02  0.24089441747E+02  0.51100000000E-03 0. -1.
        -11    1    3    3    0    0 -0.12482863891E+02 -0.15498629263E+01 -0.17470930795E+02  0.21528060505E+02  0.51100000000E-03 0.  1.
        -12    1    3    3    0    0  0.11124772493E+01 -0.37016051723E+01  0.30301787286E+01  0.49113612786E+01  0.00000000000E+00 0.  1.
</event>
<event>
 7    1  0.1146735E-012  0.5052886E+02  0.7816164E-02  0.1300439E+00
        -11   -1    0    0    0    0  0.00000000000E+00  0.00000000000E+00  0.45593999997E+02  0.45594000000E+02  0.51100000000E-03 0.  1.
         11   -1    0    0    0    0 -0.00000000000E+00 -0.00000000000E+00 -0.45593999997E+02  0.45594000000E+02  0.51100000000E-03 0. -1.
    9900012    2    1    2    0    0  0.27671030572E+02 -0.31740509354E+01 -0.29621024542E+02  0.50528860472E+02  0.30000001890E+02 0.  0.
        -12    1    1    2    0    0 -0.27671030572E+02  0.31740509354E+01  0.29621024542E+02  0.40659139528E+02  0.00000000000E+00 0.  1.
         11    1    3    3    0    0  0.14634225926E+02 -0.35542995237E+01 -0.23046519880E+02  0.27530631892E+02  0.51100000000E-03 0.  1.
        -11    1    3    3    0    0 -0.29842648053E+00  0.20459905410E+01 -0.90932557688E+01  0.93253652151E+01  0.51100000000E-03 0. -1.
        -12    1    3    3    0    0  0.13335231126E+02 -0.16657419527E+01  0.25187511065E+01  0.13672863364E+02  0.00000000000E+00 0.  1.
</event>
<event>
 7    1  0.5753610E-013  0.5052886E+02  0.7816164E-02  0.1300439E+00
        -11   -1    0    0    0    0  0.00000000000E+00  0.00000000000E+00  0.45593999997E+02  0.45594000000E+02  0.51100000000E-03 0.  1.
         11   -1    0    0    0    0 -0.00000000000E+00 -0.00000000000E+00 -0.45593999997E+02  0.45594000000E+02  0.51100000000E-03 0. -1.
    9900012    2    1    2    0    0  0.19725897163E+02  0.37425221437E+01 -0.35356022197E+02  0.50528858390E+02  0.29999995562E+02 0.  0.
        -12    1    1    2    0    0 -0.19725897163E+02 -0.37425221437E+01  0.35356022197E+02  0.40659141610E+02  0.00000000000E+00 0.  1.
         11    1    3    3    0    0  0.13126019162E+02  0.73575205874E+01 -0.18511953752E+02  0.23856192492E+02  0.51100000000E-03 0. -1.
        -11    1    3    3    0    0  0.14927161854E+01  0.28800232963E+01  0.34654333067E+01  0.47467846024E+01  0.51100000000E-03 0.  1.
        -12    1    3    3    0    0  0.51071618164E+01 -0.64950217400E+01 -0.20309501751E+02  0.21925881296E+02  0.00000000000E+00 0.  1.
</event>
<event>
 7    1  0.7198891E-013  0.5052886E+02  0.7816164E-02  0.1300439E+00
        -11   -1    0    0    0    0  0.00000000000E+00  0.00000000000E+00  0.45593999997E+02  0.45594000000E+02  0.51100000000E-03 0. -1.
         11   -1    0    0    0    0 -0.00000000000E+00 -0.00000000000E+00 -0.45593999997E+02  0.45594000000E+02  0.51100000000E-03 0.  1.
    9900012    2    1    2    0    0  0.27461842123E+02  0.16649915244E+02  0.24935784118E+02  0.50528858592E+02  0.29999996177E+02 0.  0.
        -12    1    1    2    0    0 -0.27461842123E+02 -0.16649915244E+02 -0.24935784118E+02  0.40659141408E+02  0.00000000000E+00 0.  1.
         11    1    3    3    0    0  0.13594653248E+02  0.56896096242E+01  0.15575495714E+02  0.21442535335E+02  0.51100000000E-03 0. -1.
        -11    1    3    3    0    0  0.41769417952E+01  0.14878489317E+02  0.10331097516E+02  0.18588917754E+02  0.51100000000E-03 0.  1.
        -12    1    3    3    0    0  0.96902470802E+01 -0.39181836972E+01 -0.97080911203E+00  0.10497405503E+02  0.00000000000E+00 0.  1.
</event>
<event>
 7    1  0.5753610E-013  0.5052886E+02  0.7816164E-02  0.1300439E+00
        -11   -1    0    0    0    0  0.00000000000E+00  0.00000000000E+00  0.45593999997E+02  0.45594000000E+02  0.51100000000E-03 0. -1.
         11   -1    0    0    0    0 -0.00000000000E+00 -0.00000000000E+00 -0.45593999997E+02  0.45594000000E+02  0.51100000000E-03 0.  1.
    9900012    2    1    2    0    0  0.26716438031E+02  0.30433526107E+02  0.36328814756E+01  0.50528863264E+02  0.30000010376E+02 0.  0.
        -12    1    1    2    0    0 -0.26716438031E+02 -0.30433526107E+02 -0.36328814756E+01  0.40659136736E+02  0.00000000000E+00 0.  1.
         11    1    3    3    0    0  0.72817002327E+00  0.12276560963E+02  0.26484752279E+01  0.12580087518E+02  0.51100000000E-03 0. -1.
        -11    1    3    3    0    0  0.80531283448E+01  0.27399956785E+01 -0.89038987423E+01  0.12314213963E+02  0.51100000000E-03 0.  1.
         12    1    3    3    0    0  0.17935139663E+02  0.15416969465E+02  0.98883049900E+01  0.25634561783E+02  0.00000000000E+00 0. -1.
</event>
<event>
 7    1  0.5753610E-013  0.5052886E+02  0.7816164E-02  0.1300439E+00
        -11   -1    0    0    0    0  0.00000000000E+00  0.00000000000E+00  0.45593999997E+02  0.45594000000E+02  0.51100000000E-03 0.  1.
         11   -1    0    0    0    0 -0.00000000000E+00 -0.00000000000E+00 -0.45593999997E+02  0.45594000000E+02  0.51100000000E-03 0. -1.
    9900012    2    1    2    0    0  0.21457037214E+02 -0.16633277920E+02 -0.30267061101E+02  0.50528863658E+02  0.30000011575E+02 0.  0.
        -12    1    1    2    0    0 -0.21457037214E+02  0.16633277920E+02  0.30267061101E+02  0.40659136342E+02  0.00000000000E+00 0.  1.
         11    1    3    3    0    0  0.42834184729E+01 -0.54805016360E+01 -0.12236894639E+02  0.14075694038E+02  0.51100000000E-03 0. -1.
        -11    1    3    3    0    0 -0.53627632602E+01 -0.24246918137E+01 -0.87922536206E+01  0.10580268625E+02  0.51100000000E-03 0.  1.
        -12    1    3    3    0    0  0.22536382002E+02 -0.87280844704E+01 -0.92379128417E+01  0.25872900995E+02  0.00000000000E+00 0.  1.
</event>
<event>
 7    1  0.5753610E-013  0.5052885E+02  0.7816164E-02  0.1300439E+00
        -11   -1    0    0    0    0  0.00000000000E+00  0.00000000000E+00  0.45593999997E+02  0.45594000000E+02  0.51100000000E-03 0.  1.
         11   -1    0    0    0    0 -0.00000000000E+00 -0.00000000000E+00 -0.45593999997E+02  0.45594000000E+02  0.51100000000E-03 0. -1.
    9900012    2    1    2    0    0  0.28681578137E+02  0.13098322807E+02 -0.25670354681E+02  0.50528854728E+02  0.29999984432E+02 0.  0.
        -12    1    1    2    0    0 -0.28681578137E+02 -0.13098322807E+02  0.25670354681E+02  0.40659145272E+02  0.00000000000E+00 0.  1.
         11    1    3    3    0    0  0.11143159558E+02  0.75966931448E+01  0.48593220858E+01  0.14335018768E+02  0.51100000000E-03 0.  1.
        -11    1    3    3    0    0  0.75078903301E+01  0.27166423180E+01 -0.76516527485E+01  0.11058768138E+02  0.51100000000E-03 0. -1.
        -12    1    3    3    0    0  0.10030528248E+02  0.27849873444E+01 -0.22878024018E+02  0.25135067822E+02  0.00000000000E+00 0.  1.
</event>
<event>
 7    1  0.5753610E-013  0.5052887E+02  0.7816164E-02  0.1300439E+00
        -11   -1    0    0    0    0  0.00000000000E+00  0.00000000000E+00  0.45593999997E+02  0.45594000000E+02  0.51100000000E-03 0.  1.
         11   -1    0    0    0    0 -0.00000000000E+00 -0.00000000000E+00 -0.45593999997E+02  0.45594000000E+02  0.51100000000E-03 0. -1.
    9900012    2    1    2    0    0 -0.26485902547E+02 -0.44244157263E+01 -0.30530095795E+02  0.50528865264E+02  0.30000016456E+02 0.  0.
        -12    1    1    2    0    0  0.26485902547E+02  0.44244157263E+01  0.30530095795E+02  0.40659134736E+02  0.00000000000E+00 0.  1.
         11    1    3    3    0    0 -0.22766831737E+01  0.39889470859E+01 -0.15740121013E+02  0.16396536064E+02  0.51100000000E-03 0. -1.
        -11    1    3    3    0    0  0.15709864418E+01  0.81848732976E+00  0.14555202936E+01  0.22926969916E+01  0.51100000000E-03 0.  1.
         12    1    3    3    0    0 -0.25780205815E+02 -0.92318501419E+01 -0.16245495075E+02  0.31839632208E+02  0.00000000000E+00 0. -1.
</event>
<event>
 7    1  0.5753610E-013  0.5052886E+02  0.7816164E-02  0.1300439E+00
        -11   -1    0    0    0    0  0.00000000000E+00  0.00000000000E+00  0.45593999997E+02  0.45594000000E+02  0.51100000000E-03 0.  1.
         11   -1    0    0    0    0 -0.00000000000E+00 -0.00000000000E+00 -0.45593999997E+02  0.45594000000E+02  0.51100000000E-03 0. -1.
    9900012    2    1    2    0    0  0.38920001898E+02  0.76965286239E+01 -0.88973300690E+01  0.50528861016E+02  0.30000003543E+02 0.  0.
        -12    1    1    2    0    0 -0.38920001898E+02 -0.76965286239E+01  0.88973300690E+01  0.40659138984E+02  0.00000000000E+00 0.  1.
         11    1    3    3    0    0  0.32663115748E+01 -0.29173257902E+01  0.21552622112E+01  0.48810589558E+01  0.51100000000E-03 0. -1.
        -11    1    3    3    0    0  0.10401243727E+02  0.11939944640E+02  0.38494637467E+01  0.16296211844E+02  0.51100000000E-03 0.  1.
         12    1    3    3    0    0  0.25252446596E+02 -0.13260902256E+01 -0.14902056027E+02  0.29351590216E+02  0.00000000000E+00 0. -1.
</event>
<event>
 7    1  0.5753610E-013  0.5052887E+02  0.7816164E-02  0.1300439E+00
        -11   -1    0    0    0    0  0.00000000000E+00  0.00000000000E+00  0.45593999997E+02  0.45594000000E+02  0.51100000000E-03 0.  1.
         11   -1    0    0    0    0 -0.00000000000E+00 -0.00000000000E+00 -0.45593999997E+02  0.45594000000E+02  0.51100000000E-03 0. -1.
    9900012    2    1    2    0    0  0.97363815951E+00  0.25117608908E+02 -0.31958144257E+02  0.50528865321E+02  0.30000016629E+02 0.  0.
        -12    1    1    2    0    0 -0.97363815951E+00 -0.25117608908E+02  0.31958144257E+02  0.40659134679E+02  0.00000000000E+00 0.  1.
         11    1    3    3    0    0  0.90315111257E+01  0.13601775722E+02 -0.11957298895E+02  0.20237428027E+02  0.51100000000E-03 0. -1.
        -11    1    3    3    0    0 -0.18361729030E+01  0.12589477325E+02 -0.44009883444E+01  0.13462361194E+02  0.51100000000E-03 0.  1.
        -12    1    3    3    0    0 -0.62217000632E+01 -0.10736441390E+01 -0.15599857018E+02  0.16829076100E+02  0.00000000000E+00 0.  1.
</event>
<event>
 7    1  0.5753610E-013  0.5052886E+02  0.7816164E-02  0.1300439E+00
        -11   -1    0    0    0    0  0.00000000000E+00  0.00000000000E+00  0.45593999997E+02  0.45594000000E+02  0.51100000000E-03 0.  1.
         11   -1    0    0    0    0 -0.00000000000E+00 -0.00000000000E+00 -0.45593999997E+02  0.45594000000E+02  0.51100000000E-03 0. -1.
    9900012    2    1    2    0    0 -0.18121958683E+02 -0.19510625274E+02 -0.30726141524E+02  0.50528860092E+02  0.30000000736E+02 0.  0.
        -12    1    1    2    0    0  0.18121958683E+02  0.19510625274E+02  0.30726141524E+02  0.40659139908E+02  0.00000000000E+00 0.  1.
         11    1    3    3    0    0 -0.12738924560E+02 -0.51576067947E+01 -0.10821248725E+02  0.17492299192E+02  0.51100000000E-03 0. -1.
        -11    1    3    3    0    0 -0.50696915463E+01  0.48934760098E+01 -0.42800335866E+01  0.82441838648E+01  0.51100000000E-03 0.  1.
        -12    1    3    3    0    0 -0.31334257745E+00 -0.19246494489E+02 -0.15624859212E+02  0.24792377036E+02  0.00000000000E+00 0.  1.
</event>
<event>
 7    1  0.5753610E-013  0.5052886E+02  0.7816164E-02  0.1300439E+00
        -11   -1    0    0    0    0  0.00000000000E+00  0.00000000000E+00  0.45593999997E+02  0.45594000000E+02  0.51100000000E-03 0.  1.
         11   -1    0    0    0    0 -0.00000000000E+00 -0.00000000000E+00 -0.45593999997E+02  0.45594000000E+02  0.51100000000E-03 0. -1.
    9900012    2    1    2    0    0 -0.27596927585E+02  0.41302001206E+01  0.29572227767E+02  0.50528860557E+02  0.30000002150E+02 0.  0.
        -12    1    1    2    0    0  0.27596927585E+02 -0.41302001206E+01 -0.29572227767E+02  0.40659139443E+02  0.00000000000E+00 0.  1.
         11    1    3    3    0    0 -0.23999240844E+02  0.13368527537E+02  0.15229653469E+02  0.31410562469E+02  0.51100000000E-03 0. -1.
        -11    1    3    3    0    0 -0.43515446990E+01 -0.24401862283E+01  0.95239723985E+01  0.10751581307E+02  0.51100000000E-03 0.  1.
         12    1    3    3    0    0  0.75385795839E+00 -0.67981411876E+01  0.48186018997E+01  0.83667167812E+01  0.00000000000E+00 0. -1.
</event>
<event>
 7    1  0.5753610E-013  0.5052887E+02  0.7816164E-02  0.1300439E+00
        -11   -1    0    0    0    0  0.00000000000E+00  0.00000000000E+00  0.45593999997E+02  0.45594000000E+02  0.51100000000E-03 0. -1.
         11   -1    0    0    0    0 -0.00000000000E+00 -0.00000000000E+00 -0.45593999997E+02  0.45594000000E+02  0.51100000000E-03 0.  1.
    9900012    2    1    2    0    0 -0.35107683525E+02 -0.18098393423E+02 -0.96469302504E+01  0.50528873716E+02  0.30000042146E+02 0.  0.
        -12    1    1    2    0    0  0.35107683525E+02  0.18098393423E+02  0.96469302504E+01  0.40659126284E+02  0.00000000000E+00 0.  1.
         11    1    3    3    0    0 -0.22294715460E+02 -0.28705004456E+01  0.30586952235E+01  0.22685892686E+02  0.51100000000E-03 0. -1.
        -11    1    3    3    0    0  0.19214102023E+01  0.12846627975E+01  0.25916538114E-01  0.23114600574E+01  0.51100000000E-03 0.  1.
        -12    1    3    3    0    0 -0.14734378267E+02 -0.16512555775E+02 -0.12731542012E+02  0.25531520972E+02  0.00000000000E+00 0.  1.
</event>
<event>
 7    1  0.5753610E-013  0.5052886E+02  0.7816164E-02  0.1300439E+00
        -11   -1    0    0    0    0  0.00000000000E+00  0.00000000000E+00  0.45593999997E+02  0.45594000000E+02  0.51100000000E-03 0.  1.
         11   -1    0    0    0    0 -0.00000000000E+00 -0.00000000000E+00 -0.45593999997E+02  0.45594000000E+02  0.51100000000E-03 0. -1.
    9900012    2    1    2    0    0  0.20803788830E+02  0.22774455390E+02 -0.26489476038E+02  0.50528858485E+02  0.29999995850E+02 0.  0.
        -12    1    1    2    0    0 -0.20803788830E+02 -0.22774455390E+02  0.26489476038E+02  0.40659141515E+02  0.00000000000E+00 0.  1.
         11    1    3    3    0    0  0.30199743851E+01  0.10644043778E+01  0.41058955024E+01  0.52068781533E+01  0.51100000000E-03 0. -1.
        -11    1    3    3    0    0  0.19703909526E+01 -0.18577102064E+01  0.96716297487E+00  0.28755751073E+01  0.51100000000E-03 0.  1.
         12    1    3    3    0    0  0.15813423493E+02  0.23567761218E+02 -0.31562534515E+02  0.42446405224E+02  0.00000000000E+00 0. -1.
</event>
<event>
 7    1  0.5753610E-013  0.5052891E+02  0.7816164E-02  0.1300439E+00
        -11   -1    0    0    0    0  0.00000000000E+00  0.00000000000E+00  0.45593999997E+02  0.45594000000E+02  0.51100000000E-03 0.  1.
         11   -1    0    0    0    0 -0.00000000000E+00 -0.00000000000E+00 -0.45593999997E+02  0.45594000000E+02  0.51100000000E-03 0. -1.
    9900012    2    1    2    0    0  0.18909211061E+02 -0.70825735037E+01 -0.35290800086E+02  0.50528908998E+02  0.30000149390E+02 0.  0.
        -12    1    1    2    0    0 -0.18909211061E+02  0.70825735037E+01  0.35290800086E+02  0.40659091002E+02  0.00000000000E+00 0.  1.
         11    1    3    3    0    0  0.10096610148E+02 -0.13208152646E+01 -0.71173779215E+01  0.12423492190E+02  0.51100000000E-03 0. -1.
        -11    1    3    3    0    0  0.30881795297E+01  0.49711327165E+01  0.14949838753E+01  0.60401978727E+01  0.51100000000E-03 0.  1.
         12    1    3    3    0    0  0.57244213833E+01 -0.10732890956E+02 -0.29668406040E+02  0.32065218935E+02  0.00000000000E+00 0. -1.
</event>
<event>
 7    1  0.5753610E-013  0.5052886E+02  0.7816164E-02  0.1300439E+00
        -11   -1    0    0    0    0  0.00000000000E+00  0.00000000000E+00  0.45593999997E+02  0.45594000000E+02  0.51100000000E-03 0.  1.
         11   -1    0    0    0    0 -0.00000000000E+00 -0.00000000000E+00 -0.45593999997E+02  0.45594000000E+02  0.51100000000E-03 0. -1.
    9900012    2    1    2    0    0 -0.37941898737E+02 -0.14487387787E+02  0.19218400695E+01  0.50528861373E+02  0.30000004628E+02 0.  0.
        -12    1    1    2    0    0  0.37941898737E+02  0.14487387787E+02 -0.19218400695E+01  0.40659138627E+02  0.00000000000E+00 0.  1.
         11    1    3    3    0    0 -0.13300319424E+02 -0.95902586726E+01 -0.67125222669E+01  0.17718056147E+02  0.51100000000E-03 0. -1.
        -11    1    3    3    0    0 -0.10259187703E+02  0.25546081797E+01 -0.49467432399E+01  0.11672498628E+02  0.51100000000E-03 0.  1.
         12    1    3    3    0    0 -0.14382391610E+02 -0.74517372939E+01  0.13581105576E+02  0.21138306597E+02  0.00000000000E+00 0. -1.
</event>
<event>
 7    1  0.5753610E-013  0.5052885E+02  0.7816164E-02  0.1300439E+00
        -11   -1    0    0    0    0  0.00000000000E+00  0.00000000000E+00  0.45593999997E+02  0.45594000000E+02  0.51100000000E-03 0.  1.
         11   -1    0    0    0    0 -0.00000000000E+00 -0.00000000000E+00 -0.45593999997E+02  0.45594000000E+02  0.51100000000E-03 0. -1.
    9900012    2    1    2    0    0 -0.38929469855E+02  0.11732505563E+02 -0.10729001145E+00  0.50528845789E+02  0.29999957260E+02 0.  0.
        -12    1    1    2    0    0  0.38929469855E+02 -0.11732505563E+02  0.10729001145E+00  0.40659154211E+02  0.00000000000E+00 0.  1.
         11    1    3    3    0    0 -0.15528003894E+02 -0.54791211478E+01 -0.21669963287E+01  0.16608297530E+02  0.51100000000E-03 0.  1.
        -11    1    3    3    0    0 -0.16028441991E+02  0.16591488824E+02 -0.50981699809E+01  0.23625828906E+02  0.51100000000E-03 0. -1.
         12    1    3    3    0    0 -0.73730239699E+01  0.62013788686E+00  0.71578762981E+01  0.10294719353E+02  0.00000000000E+00 0. -1.
</event>
<event>
 7    1  0.5753610E-013  0.5052885E+02  0.7816164E-02  0.1300439E+00
        -11   -1    0    0    0    0  0.00000000000E+00  0.00000000000E+00  0.45593999997E+02  0.45594000000E+02  0.51100000000E-03 0.  1.
         11   -1    0    0    0    0 -0.00000000000E+00 -0.00000000000E+00 -0.45593999997E+02  0.45594000000E+02  0.51100000000E-03 0. -1.
    9900012    2    1    2    0    0  0.16942338598E+02 -0.29665714746E+02 -0.22046963848E+02  0.50528854861E+02  0.29999984835E+02 0.  0.
        -12    1    1    2    0    0 -0.16942338598E+02  0.29665714746E+02  0.22046963848E+02  0.40659145139E+02  0.00000000000E+00 0.  1.
         11    1    3    3    0    0  0.16467304859E+02 -0.27287889352E+02 -0.87890350428E+01  0.33061279041E+02  0.51100000000E-03 0. -1.
        -11    1    3    3    0    0 -0.18578136053E+01 -0.63111178013E+01 -0.60889238145E+01  0.89641883500E+01  0.51100000000E-03 0.  1.
        -12    1    3    3    0    0  0.23328473449E+01  0.39332924079E+01 -0.71690049904E+01  0.85033874693E+01  0.00000000000E+00 0.  1.
</event>
<event>
 7    1  0.5753610E-013  0.5052886E+02  0.7816164E-02  0.1300439E+00
        -11   -1    0    0    0    0  0.00000000000E+00  0.00000000000E+00  0.45593999997E+02  0.45594000000E+02  0.51100000000E-03 0.  1.
         11   -1    0    0    0    0 -0.00000000000E+00 -0.00000000000E+00 -0.45593999997E+02  0.45594000000E+02  0.51100000000E-03 0. -1.
    9900012    2    1    2    0    0  0.28339644437E+02  0.34677159555E+01 -0.28948321216E+02  0.50528858322E+02  0.29999995357E+02 0.  0.
        -12    1    1    2    0    0 -0.28339644437E+02 -0.34677159555E+01  0.28948321216E+02  0.40659141678E+02  0.00000000000E+00 0.  1.
         11    1    3    3    0    0  0.37294837556E+01 -0.18963695591E+00  0.28286979868E+01  0.46847138461E+01  0.51100000000E-03 0. -1.
        -11    1    3    3    0    0  0.14603308608E+02 -0.63098955026E+01 -0.26215628144E+02  0.30664809845E+02  0.51100000000E-03 0.  1.
         12    1    3    3    0    0  0.10006852073E+02  0.99672484139E+01 -0.55613910581E+01  0.15179334632E+02  0.00000000000E+00 0. -1.
</event>
<event>
 7    1  0.5753610E-013  0.5052886E+02  0.7816164E-02  0.1300439E+00
        -11   -1    0    0    0    0  0.00000000000E+00  0.00000000000E+00  0.45593999997E+02  0.45594000000E+02  0.51100000000E-03 0.  1.
         11   -1    0    0    0    0 -0.00000000000E+00 -0.00000000000E+00 -0.45593999997E+02  0.45594000000E+02  0.51100000000E-03 0. -1.
    9900012    2    1    2    0    0  0.17981170389E+02  0.35217322046E+02 -0.94648634944E+01  0.50528857096E+02  0.29999991630E+02 0.  0.
        -12    1    1    2    0    0 -0.17981170389E+02 -0.35217322046E+02  0.94648634944E+01  0.40659142904E+02  0.00000000000E+00 0.  1.
         11    1    3    3    0    0  0.13234607677E+02  0.20234030234E+02  0.82831445201E+01  0.25557411905E+02  0.51100000000E-03 0.  1.
        -11    1    3    3    0    0  0.22067262451E+01  0.19930023472E+01 -0.18502916837E+00  0.29792507667E+01  0.51100000000E-03 0. -1.
        -12    1    3    3    0    0  0.25398364671E+01  0.12990289466E+02 -0.17562978846E+02  0.21992194425E+02  0.00000000000E+00 0.  1.
</event>
<event>
 7    1  0.5753610E-013  0.5052886E+02  0.7816164E-02  0.1300439E+00
        -11   -1    0    0    0    0  0.00000000000E+00  0.00000000000E+00  0.45593999997E+02  0.45594000000E+02  0.51100000000E-03 0.  1.
         11   -1    0    0    0    0 -0.00000000000E+00 -0.00000000000E+00 -0.45593999997E+02  0.45594000000E+02  0.51100000000E-03 0. -1.
    9900012    2    1    2    0    0  0.54241192934E+01  0.34880247000E+02 -0.20177035568E+02  0.50528862463E+02  0.30000007943E+02 0.  0.
        -12    1    1    2    0    0 -0.54241192934E+01 -0.34880247000E+02  0.20177035568E+02  0.40659137537E+02  0.00000000000E+00 0.  1.
         11    1    3    3    0    0  0.38750153644E+01  0.10665451887E+02 -0.16027599958E+02  0.19638013360E+02  0.51100000000E-03 0. -1.
        -11    1    3    3    0    0 -0.38617709228E+01  0.18494452359E+02 -0.97186023822E+01  0.21246394405E+02  0.51100000000E-03 0.  1.
        -12    1    3    3    0    0  0.54108748518E+01  0.57203427544E+01  0.55691667722E+01  0.96444546982E+01  0.00000000000E+00 0.  1.
</event>
<event>
 7    1  0.5753610E-013  0.5052885E+02  0.7816164E-02  0.1300439E+00
        -11   -1    0    0    0    0  0.00000000000E+00  0.00000000000E+00  0.45593999997E+02  0.45594000000E+02  0.51100000000E-03 0. -1.
         11   -1    0    0    0    0 -0.00000000000E+00 -0.00000000000E+00 -0.45593999997E+02  0.45594000000E+02  0.51100000000E-03 0.  1.
    9900012    2    1    2    0    0 -0.38501824781E+02 -0.10433146789E+02  0.78692748825E+01  0.50528849116E+02  0.29999967373E+02 0.  0.
        -12    1    1    2    0    0  0.38501824781E+02  0.10433146789E+02 -0.78692748825E+01  0.40659150884E+02  0.00000000000E+00 0.  1.
         11    1    3    3    0    0 -0.23070607574E+02 -0.11946009978E+01  0.18482415766E+01  0.23175331768E+02  0.51100000000E-03 0. -1.
        -11    1    3    3    0    0 -0.11779211383E+02 -0.14819753135E+02  0.91373420055E+00  0.18952831299E+02  0.51100000000E-03 0.  1.
         12    1    3    3    0    0 -0.36520058239E+01  0.55812073429E+01  0.51072991053E+01  0.84006860490E+01  0.00000000000E+00 0. -1.
</event>
<event>
 7    1  0.7296593E-013  0.5052887E+02  0.7816164E-02  0.1300439E+00
        -11   -1    0    0    0    0  0.00000000000E+00  0.00000000000E+00  0.45593999997E+02  0.45594000000E+02  0.51100000000E-03 0.  1.
         11   -1    0    0    0    0 -0.00000000000E+00 -0.00000000000E+00 -0.45593999997E+02  0.45594000000E+02  0.51100000000E-03 0. -1.
    9900012    2    1    2    0    0 -0.38751326037E+02 -0.11807081552E+02 -0.34774048781E+01  0.50528870778E+02  0.30000033218E+02 0.  0.
        -12    1    1    2    0    0  0.38751326037E+02  0.11807081552E+02  0.34774048781E+01  0.40659129222E+02  0.00000000000E+00 0.  1.
         11    1    3    3    0    0 -0.18830330013E+02 -0.73114394672E+01 -0.99435087587E+01  0.22514702800E+02  0.51100000000E-03 0. -1.
        -11    1    3    3    0    0 -0.17883841663E+02 -0.10498929957E+02  0.35637397710E+01  0.21041852682E+02  0.51100000000E-03 0.  1.
        -12    1    3    3    0    0 -0.20371543605E+01  0.60032878724E+01  0.29023641097E+01  0.69723152964E+01  0.00000000000E+00 0.  1.
</event>
<event>
 7    1  0.5753610E-013  0.5052886E+02  0.7816164E-02  0.1300439E+00
        -11   -1    0    0    0    0  0.00000000000E+00  0.00000000000E+00  0.45593999997E+02  0.45594000000E+02  0.51100000000E-03 0.  1.
         11   -1    0    0    0    0 -0.00000000000E+00 -0.00000000000E+00 -0.45593999997E+02  0.45594000000E+02  0.51100000000E-03 0. -1.
    9900012    2    1    2    0    0  0.39667426477E+02  0.84562870174E+01 -0.28551792018E+01  0.50528861276E+02  0.30000004336E+02 0.  0.
        -12    1    1    2    0    0 -0.39667426477E+02 -0.84562870174E+01  0.28551792018E+01  0.40659138724E+02  0.00000000000E+00 0.  1.
         11    1    3    3    0    0  0.70634106226E+01 -0.36242451450E+01 -0.62404285097E+01  0.10098013208E+02  0.51100000000E-03 0. -1.
        -11    1    3    3    0    0  0.41050963592E+01  0.83669334280E+00  0.83995935700E+01  0.93864287282E+01  0.51100000000E-03 0.  1.
         12    1    3    3    0    0  0.28498919496E+02  0.11243838820E+02 -0.50143442621E+01  0.31044419341E+02  0.00000000000E+00 0. -1.
</event>
<event>
 7    1  0.5753610E-013  0.5052886E+02  0.7816164E-02  0.1300439E+00
        -11   -1    0    0    0    0  0.00000000000E+00  0.00000000000E+00  0.45593999997E+02  0.45594000000E+02  0.51100000000E-03 0.  1.
         11   -1    0    0    0    0 -0.00000000000E+00 -0.00000000000E+00 -0.45593999997E+02  0.45594000000E+02  0.51100000000E-03 0. -1.
    9900012    2    1    2    0    0  0.18223138522E+02  0.36337018654E+02 -0.83913705228E+00  0.50528857691E+02  0.29999993439E+02 0.  0.
        -12    1    1    2    0    0 -0.18223138522E+02 -0.36337018654E+02  0.83913705228E+00  0.40659142309E+02  0.00000000000E+00 0.  1.
         11    1    3    3    0    0  0.47387998424E+01  0.12266414430E+02  0.32762000119E+01  0.13551923616E+02  0.51100000000E-03 0. -1.
        -11    1    3    3    0    0  0.20234785460E+02  0.15892975493E+02 -0.37504665898E+00  0.25732739319E+02  0.51100000000E-03 0.  1.
        -12    1    3    3    0    0 -0.67504467801E+01  0.81776287315E+01 -0.37402904052E+01  0.11244194756E+02  0.00000000000E+00 0.  1.
</event>
<event>
 7    1  0.5753610E-013  0.5052891E+02  0.7816164E-02  0.1300439E+00
        -11   -1    0    0    0    0  0.00000000000E+00  0.00000000000E+00  0.45593999997E+02  0.45594000000E+02  0.51100000000E-03 0.  1.
         11   -1    0    0    0    0 -0.00000000000E+00 -0.00000000000E+00 -0.45593999997E+02  0.45594000000E+02  0.51100000000E-03 0. -1.
    9900012    2    1    2    0    0  0.24029597651E+02 -0.31519082463E+02  0.90712324789E+01  0.50528912685E+02  0.30000160597E+02 0.  0.
        -12    1    1    2    0    0 -0.24029597651E+02  0.31519082463E+02 -0.90712324789E+01  0.40659087315E+02  0.00000000000E+00 0.  1.
         11    1    3    3    0    0  0.21737328918E+01  0.68736790516E+00  0.46344133227E+01  0.51648210452E+01  0.51100000000E-03 0. -1.
        -11    1    3    3    0    0  0.19075322137E+02 -0.78461791079E+01  0.22495997365E+01  0.20748280422E+02  0.51100000000E-03 0.  1.
         12    1    3    3    0    0  0.27805426226E+01 -0.24360271260E+02  0.21872194197E+01  0.24615811218E+02  0.00000000000E+00 0. -1.
</event>
<event>
 7    1  0.5753610E-013  0.5052886E+02  0.7816164E-02  0.1300439E+00
        -11   -1    0    0    0    0  0.00000000000E+00  0.00000000000E+00  0.45593999997E+02  0.45594000000E+02  0.51100000000E-03 0.  1.
         11   -1    0    0    0    0 -0.00000000000E+00 -0.00000000000E+00 -0.45593999997E+02  0.45594000000E+02  0.51100000000E-03 0. -1.
    9900012    2    1    2    0    0  0.32718285104E+01  0.50922663628E+01 -0.40206085092E+02  0.50528864287E+02  0.30000013487E+02 0.  0.
        -12    1    1    2    0    0 -0.32718285104E+01 -0.50922663628E+01  0.40206085092E+02  0.40659135713E+02  0.00000000000E+00 0.  1.
         11    1    3    3    0    0  0.11505609948E+01 -0.61804090371E+01 -0.12248907555E+01  0.64048110114E+01  0.51100000000E-03 0. -1.
        -11    1    3    3    0    0  0.17466778586E+01  0.93402939809E+01 -0.63389882650E+01  0.11422554341E+02  0.51100000000E-03 0.  1.
         12    1    3    3    0    0  0.37458965703E+00  0.19323814190E+01 -0.32642206071E+02  0.32701498934E+02  0.00000000000E+00 0. -1.
</event>
<event>
 7    1  0.5753610E-013  0.5052885E+02  0.7816164E-02  0.1300439E+00
        -11   -1    0    0    0    0  0.00000000000E+00  0.00000000000E+00  0.45593999997E+02  0.45594000000E+02  0.51100000000E-03 0.  1.
         11   -1    0    0    0    0 -0.00000000000E+00 -0.00000000000E+00 -0.45593999997E+02  0.45594000000E+02  0.51100000000E-03 0. -1.
    9900012    2    1    2    0    0  0.25829032719E+02  0.29398032969E+02 -0.11035545614E+02  0.50528849238E+02  0.29999967744E+02 0.  0.
        -12    1    1    2    0    0 -0.25829032719E+02 -0.29398032969E+02  0.11035545614E+02  0.40659150762E+02  0.00000000000E+00 0.  1.
         11    1    3    3    0    0  0.98032492149E+01  0.13794826069E+02 -0.12432466744E+02  0.20999217868E+02  0.51100000000E-03 0. -1.
        -11    1    3    3    0    0 -0.71483952582E+00 -0.18739280925E+01 -0.42313118480E+01  0.46825849976E+01  0.51100000000E-03 0.  1.
        -12    1    3    3    0    0  0.16740623030E+02  0.17477134992E+02  0.56282329786E+01  0.24847046373E+02  0.00000000000E+00 0.  1.
</event>
<event>
 7    1  0.5753610E-013  0.5052884E+02  0.7816164E-02  0.1300439E+00
        -11   -1    0    0    0    0  0.00000000000E+00  0.00000000000E+00  0.45593999997E+02  0.45594000000E+02  0.51100000000E-03 0. -1.
         11   -1    0    0    0    0 -0.00000000000E+00 -0.00000000000E+00 -0.45593999997E+02  0.45594000000E+02  0.51100000000E-03 0.  1.
    9900012    2    1    2    0    0  0.20461817310E+01 -0.12402289487E+02  0.38667341293E+02  0.50528844489E+02  0.29999953309E+02 0.  0.
        -12    1    1    2    0    0 -0.20461817310E+01  0.12402289487E+02 -0.38667341293E+02  0.40659155511E+02  0.00000000000E+00 0.  1.
         11    1    3    3    0    0 -0.26613186003E+01 -0.45691884917E+01  0.18163507764E+01  0.55909954900E+01  0.51100000000E-03 0. -1.
        -11    1    3    3    0    0 -0.37338505874E+01  0.73731099271E+01  0.10453028169E+02  0.13325546457E+02  0.51100000000E-03 0.  1.
         12    1    3    3    0    0  0.84413509188E+01 -0.15206210922E+02  0.26397962347E+02  0.31612302542E+02  0.00000000000E+00 0. -1.
</event>
<event>
 7    1  0.5753610E-013  0.5052886E+02  0.7816164E-02  0.1300439E+00
        -11   -1    0    0    0    0  0.00000000000E+00  0.00000000000E+00  0.45593999997E+02  0.45594000000E+02  0.51100000000E-03 0. -1.
         11   -1    0    0    0    0 -0.00000000000E+00 -0.00000000000E+00 -0.45593999997E+02  0.45594000000E+02  0.51100000000E-03 0.  1.
    9900012    2    1    2    0    0  0.31293265938E+02 -0.25914776795E+02  0.15235902159E+01  0.50528862325E+02  0.30000007522E+02 0.  0.
        -12    1    1    2    0    0 -0.31293265938E+02  0.25914776795E+02 -0.15235902159E+01  0.40659137675E+02  0.00000000000E+00 0.  1.
         11    1    3    3    0    0  0.64426175895E+01 -0.48201025627E+01  0.66959460768E+01  0.10467874868E+02  0.51100000000E-03 0. -1.
        -11    1    3    3    0    0  0.14688462625E+02 -0.23357556235E+02 -0.89165627559E+01  0.28997093978E+02  0.51100000000E-03 0.  1.
         12    1    3    3    0    0  0.10162185724E+02  0.22628820028E+01  0.37442068949E+01  0.11063893479E+02  0.00000000000E+00 0. -1.
</event>
<event>
 7    1  0.5753610E-013  0.5052886E+02  0.7816164E-02  0.1300439E+00
        -11   -1    0    0    0    0  0.00000000000E+00  0.00000000000E+00  0.45593999997E+02  0.45594000000E+02  0.51100000000E-03 0.  1.
         11   -1    0    0    0    0 -0.00000000000E+00 -0.00000000000E+00 -0.45593999997E+02  0.45594000000E+02  0.51100000000E-03 0. -1.
    9900012    2    1    2    0    0  0.49796612186E+00  0.30378714633E+02 -0.27019461430E+02  0.50528861188E+02  0.30000004066E+02 0.  0.
        -12    1    1    2    0    0 -0.49796612186E+00 -0.30378714633E+02  0.27019461430E+02  0.40659138812E+02  0.00000000000E+00 0.  1.
         11    1    3    3    0    0  0.18875959689E+00  0.11693756191E+02  0.19876105642E+01  0.11862974334E+02  0.51100000000E-03 0. -1.
        -11    1    3    3    0    0 -0.29709241157E+01  0.36930901378E+00 -0.15209543432E+02  0.15501386742E+02  0.51100000000E-03 0.  1.
        -12    1    3    3    0    0  0.32801306407E+01  0.18315649428E+02 -0.13797528563E+02  0.23164500112E+02  0.00000000000E+00 0.  1.
</event>
<event>
 7    1  0.5753610E-013  0.5052885E+02  0.7816164E-02  0.1300439E+00
        -11   -1    0    0    0    0  0.00000000000E+00  0.00000000000E+00  0.45593999997E+02  0.45594000000E+02  0.51100000000E-03 0. -1.
         11   -1    0    0    0    0 -0.00000000000E+00 -0.00000000000E+00 -0.45593999997E+02  0.45594000000E+02  0.51100000000E-03 0.  1.
    9900012    2    1    2    0    0  0.32851456305E+02 -0.23938316273E+02 -0.95142327176E+00  0.50528851292E+02  0.29999973988E+02 0.  0.
        -12    1    1    2    0    0 -0.32851456305E+02  0.23938316273E+02  0.95142327176E+00  0.40659148708E+02  0.00000000000E+00 0.  1.
         11    1    3    3    0    0  0.80903812653E+01 -0.10469977589E+02  0.21847409998E+01  0.13410734254E+02  0.51100000000E-03 0. -1.
        -11    1    3    3    0    0  0.27401009567E+02 -0.80658401471E+01  0.27601617061E+01  0.28696543267E+02  0.51100000000E-03 0.  1.
         12    1    3    3    0    0 -0.26399345270E+01 -0.54024985374E+01 -0.58963259777E+01  0.84215737715E+01  0.00000000000E+00 0. -1.
</event>
<event>
 7    1  0.5753610E-013  0.5052886E+02  0.7816164E-02  0.1300439E+00
        -11   -1    0    0    0    0  0.00000000000E+00  0.00000000000E+00  0.45593999997E+02  0.45594000000E+02  0.51100000000E-03 0.  1.
         11   -1    0    0    0    0 -0.00000000000E+00 -0.00000000000E+00 -0.45593999997E+02  0.45594000000E+02  0.51100000000E-03 0. -1.
    9900012    2    1    2    0    0  0.39253251932E+02 -0.31656507132E+01 -0.10115638643E+02  0.50528864780E+02  0.30000014985E+02 0.  0.
        -12    1    1    2    0    0 -0.39253251932E+02  0.31656507132E+01  0.10115638643E+02  0.40659135220E+02  0.00000000000E+00 0.  1.
         11    1    3    3    0    0  0.45887158998E+01  0.36804183183E+01 -0.20607940148E+01  0.62328697114E+01  0.51100000000E-03 0.  1.
        -11    1    3    3    0    0  0.31253798213E+02 -0.49190133780E+01 -0.15987681251E+02  0.35448590204E+02  0.51100000000E-03 0. -1.
         12    1    3    3    0    0  0.34107378189E+01 -0.19270556535E+01  0.79328366225E+01  0.88474048647E+01  0.00000000000E+00 0. -1.
</event>
<event>
 7    1  0.5753610E-013  0.5052886E+02  0.7816164E-02  0.1300439E+00
        -11   -1    0    0    0    0  0.00000000000E+00  0.00000000000E+00  0.45593999997E+02  0.45594000000E+02  0.51100000000E-03 0.  1.
         11   -1    0    0    0    0 -0.00000000000E+00 -0.00000000000E+00 -0.45593999997E+02  0.45594000000E+02  0.51100000000E-03 0. -1.
    9900012    2    1    2    0    0  0.25687083893E+02  0.11892196141E+02 -0.29187583537E+02  0.50528860305E+02  0.30000001382E+02 0.  0.
        -12    1    1    2    0    0 -0.25687083893E+02 -0.11892196141E+02  0.29187583537E+02  0.40659139695E+02  0.00000000000E+00 0.  1.
         11    1    3    3    0    0  0.24014547810E+01  0.37443258334E+01 -0.81664932254E+01  0.92993856180E+01  0.51100000000E-03 0. -1.
        -11    1    3    3    0    0  0.59052073633E+01  0.67731605245E+01 -0.22002954833E+02  0.23767145372E+02  0.51100000000E-03 0.  1.
        -12    1    3    3    0    0  0.17380421749E+02  0.13747097836E+01  0.98186452074E+00  0.17462329315E+02  0.00000000000E+00 0.  1.
</event>
<event>
 7    1  0.5753610E-013  0.5052886E+02  0.7816164E-02  0.1300439E+00
        -11   -1    0    0    0    0  0.00000000000E+00  0.00000000000E+00  0.45593999997E+02  0.45594000000E+02  0.51100000000E-03 0. -1.
         11   -1    0    0    0    0 -0.00000000000E+00 -0.00000000000E+00 -0.45593999997E+02  0.45594000000E+02  0.51100000000E-03 0.  1.
    9900012    2    1    2    0    0 -0.32732154432E+02 -0.24075205169E+02 -0.14682783231E+01  0.50528864754E+02  0.30000014908E+02 0.  0.
        -12    1    1    2    0    0  0.32732154432E+02  0.24075205169E+02  0.14682783231E+01  0.40659135246E+02  0.00000000000E+00 0.  1.
         11    1    3    3    0    0  0.20546699722E+01 -0.47151399290E-01 -0.38668471373E+01  0.43790865479E+01  0.51100000000E-03 0. -1.
        -11    1    3    3    0    0 -0.86378294858E+01 -0.13657014394E+02 -0.52624353320E+01  0.16994686413E+02  0.51100000000E-03 0.  1.
         12    1    3    3    0    0 -0.26148994919E+02 -0.10371039375E+02  0.76610041463E+01  0.29155091794E+02  0.00000000000E+00 0. -1.
</event>
<event>
 7    1  0.5753610E-013  0.5052883E+02  0.7816164E-02  0.1300439E+00
        -11   -1    0    0    0    0  0.00000000000E+00  0.00000000000E+00  0.45593999997E+02  0.45594000000E+02  0.51100000000E-03 0.  1.
         11   -1    0    0    0    0 -0.00000000000E+00 -0.00000000000E+00 -0.45593999997E+02  0.45594000000E+02  0.51100000000E-03 0. -1.
    9900012    2    1    2    0    0  0.83422204652E+01  0.19661382178E+02 -0.34597770632E+02  0.50528827307E+02  0.29999901081E+02 0.  0.
        -12    1    1    2    0    0 -0.83422204652E+01 -0.19661382178E+02  0.34597770632E+02  0.40659172693E+02  0.00000000000E+00 0.  1.
         11    1    3    3    0    0  0.14104161401E+02  0.18257518408E+02 -0.36961045140E+02  0.43570439582E+02  0.51100000000E-03 0. -1.
        -11    1    3    3    0    0 -0.95717602715E+00 -0.60793957746E+00 -0.20242180719E+00  0.11518469195E+01  0.51100000000E-03 0.  1.
         12    1    3    3    0    0 -0.48047649089E+01  0.20118033472E+01  0.25656963157E+01  0.58065408052E+01  0.00000000000E+00 0. -1.
</event>
<event>
 7    1  0.5753610E-013  0.5052886E+02  0.7816164E-02  0.1300439E+00
        -11   -1    0    0    0    0  0.00000000000E+00  0.00000000000E+00  0.45593999997E+02  0.45594000000E+02  0.51100000000E-03 0.  1.
         11   -1    0    0    0    0 -0.00000000000E+00 -0.00000000000E+00 -0.45593999997E+02  0.45594000000E+02  0.51100000000E-03 0. -1.
    9900012    2    1    2    0    0  0.10224385153E+02 -0.38204724916E+02  0.94353895097E+01  0.50528860402E+02  0.30000001677E+02 0.  0.
        -12    1    1    2    0    0 -0.10224385153E+02  0.38204724916E+02 -0.94353895097E+01  0.40659139598E+02  0.00000000000E+00 0.  1.
         11    1    3    3    0    0 -0.50350167892E+01 -0.34330852885E+01 -0.33538218388E+01  0.69559751188E+01  0.51100000000E-03 0.  1.
        -11    1    3    3    0    0 -0.30395835942E+01 -0.98246682673E+01  0.54232075719E+00  0.10298411870E+02  0.51100000000E-03 0. -1.
         12    1    3    3    0    0  0.18298985536E+02 -0.24946971360E+02  0.12246890591E+02  0.33274473412E+02  0.00000000000E+00 0. -1.
</event>
<event>
 7    1  0.5753610E-013  0.5052887E+02  0.7816164E-02  0.1300439E+00
        -11   -1    0    0    0    0  0.00000000000E+00  0.00000000000E+00  0.45593999997E+02  0.45594000000E+02  0.51100000000E-03 0.  1.
         11   -1    0    0    0    0 -0.00000000000E+00 -0.00000000000E+00 -0.45593999997E+02  0.45594000000E+02  0.51100000000E-03 0. -1.
    9900012    2    1    2    0    0  0.14275091013E+02 -0.32145990464E+02 -0.20396613446E+02  0.50528871057E+02  0.30000034065E+02 0.  0.
        -12    1    1    2    0    0 -0.14275091013E+02  0.32145990464E+02  0.20396613446E+02  0.40659128943E+02  0.00000000000E+00 0.  1.
         11    1    3    3    0    0  0.52053037433E+01 -0.24828934821E+02 -0.20697245287E+02  0.32740604059E+02  0.51100000000E-03 0. -1.
        -11    1    3    3    0    0  0.29755299832E+01  0.10380365332E+01 -0.51957965440E+01  0.60768084150E+01  0.51100000000E-03 0.  1.
        -12    1    3    3    0    0  0.60942572864E+01 -0.83550921760E+01  0.54964283851E+01  0.11711458583E+02  0.00000000000E+00 0.  1.
</event>
<event>
 7    1  0.5753610E-013  0.5052886E+02  0.7816164E-02  0.1300439E+00
        -11   -1    0    0    0    0  0.00000000000E+00  0.00000000000E+00  0.45593999997E+02  0.45594000000E+02  0.51100000000E-03 0.  1.
         11   -1    0    0    0    0 -0.00000000000E+00 -0.00000000000E+00 -0.45593999997E+02  0.45594000000E+02  0.51100000000E-03 0. -1.
    9900012    2    1    2    0    0 -0.37884277748E+02 -0.14635264660E+02  0.19381401465E+01  0.50528857616E+02  0.29999993209E+02 0.  0.
        -12    1    1    2    0    0  0.37884277748E+02  0.14635264660E+02 -0.19381401465E+01  0.40659142384E+02  0.00000000000E+00 0.  1.
         11    1    3    3    0    0 -0.63163144934E+01  0.63134452544E+01  0.18870193697E-02  0.89305892069E+01  0.51100000000E-03 0.  1.
        -11    1    3    3    0    0 -0.97408742977E+00 -0.22352974177E+01 -0.45414679954E+01  0.51546418577E+01  0.51100000000E-03 0. -1.
         12    1    3    3    0    0 -0.30593875825E+02 -0.18713412496E+02  0.64777211225E+01  0.36443626551E+02  0.00000000000E+00 0. -1.
</event>
<event>
 7    1  0.5753610E-013  0.5052886E+02  0.7816164E-02  0.1300439E+00
        -11   -1    0    0    0    0  0.00000000000E+00  0.00000000000E+00  0.45593999997E+02  0.45594000000E+02  0.51100000000E-03 0.  1.
         11   -1    0    0    0    0 -0.00000000000E+00 -0.00000000000E+00 -0.45593999997E+02  0.45594000000E+02  0.51100000000E-03 0. -1.
    9900012    2    1    2    0    0  0.61287737954E+01 -0.37589200194E+02 -0.14235721835E+02  0.50528860614E+02  0.30000002321E+02 0.  0.
        -12    1    1    2    0    0 -0.61287737954E+01  0.37589200194E+02  0.14235721835E+02  0.40659139386E+02  0.00000000000E+00 0.  1.
         11    1    3    3    0    0 -0.46579093971E+00 -0.20615926307E+02 -0.27375504416E+01  0.20802104734E+02  0.51100000000E-03 0.  1.
        -11    1    3    3    0    0 -0.69589733656E+01 -0.44800594450E+01 -0.67812962931E+01  0.10699730025E+02  0.51100000000E-03 0. -1.
         12    1    3    3    0    0  0.13553538101E+02 -0.12493214442E+02 -0.47168751000E+01  0.19027025854E+02  0.00000000000E+00 0. -1.
</event>
<event>
 7    1  0.5753610E-013  0.5052888E+02  0.7816164E-02  0.1300439E+00
        -11   -1    0    0    0    0  0.00000000000E+00  0.00000000000E+00  0.45593999997E+02  0.45594000000E+02  0.51100000000E-03 0.  1.
         11   -1    0    0    0    0 -0.00000000000E+00 -0.00000000000E+00 -0.45593999997E+02  0.45594000000E+02  0.51100000000E-03 0. -1.
    9900012    2    1    2    0    0  0.85771204471E+01  0.20345706604E+02 -0.34141608666E+02  0.50528877842E+02  0.30000054687E+02 0.  0.
        -12    1    1    2    0    0 -0.85771204471E+01 -0.20345706604E+02  0.34141608666E+02  0.40659122158E+02  0.00000000000E+00 0.  1.
         11    1    3    3    0    0  0.13973255799E+02  0.12650479044E+02 -0.14970319485E+02  0.24070666036E+02  0.51100000000E-03 0. -1.
        -11    1    3    3    0    0  0.19791003610E+01  0.38346985402E+01 -0.17426437362E+02  0.17952784479E+02  0.51100000000E-03 0.  1.
        -12    1    3    3    0    0 -0.73752357133E+01  0.38605290197E+01 -0.17448518185E+01  0.85054273265E+01  0.00000000000E+00 0.  1.
</event>
<event>
 7    1  0.5753610E-013  0.5052878E+02  0.7816164E-02  0.1300439E+00
        -11   -1    0    0    0    0  0.00000000000E+00  0.00000000000E+00  0.45593999997E+02  0.45594000000E+02  0.51100000000E-03 0.  1.
         11   -1    0    0    0    0 -0.00000000000E+00 -0.00000000000E+00 -0.45593999997E+02  0.45594000000E+02  0.51100000000E-03 0. -1.
    9900012    2    1    2    0    0 -0.11141871237E+02 -0.15083745517E+02 -0.36076470510E+02  0.50528777209E+02  0.29999748805E+02 0.  0.
        -12    1    1    2    0    0  0.11141871237E+02  0.15083745517E+02  0.36076470510E+02  0.40659222791E+02  0.00000000000E+00 0.  1.
         11    1    3    3    0    0 -0.14730879874E+02 -0.64672675588E+00 -0.19306561986E+02  0.24293217435E+02  0.51100000000E-03 0. -1.
        -11    1    3    3    0    0  0.16486668602E+01  0.24548133851E+01 -0.12355269743E+01  0.32047992663E+01  0.51100000000E-03 0.  1.
         12    1    3    3    0    0  0.19403417767E+01 -0.16891832146E+02 -0.15534381550E+02  0.23030760509E+02  0.00000000000E+00 0. -1.
</event>
<event>
 7    1  0.5753610E-013  0.5052885E+02  0.7816164E-02  0.1300439E+00
        -11   -1    0    0    0    0  0.00000000000E+00  0.00000000000E+00  0.45593999997E+02  0.45594000000E+02  0.51100000000E-03 0.  1.
         11   -1    0    0    0    0 -0.00000000000E+00 -0.00000000000E+00 -0.45593999997E+02  0.45594000000E+02  0.51100000000E-03 0. -1.
    9900012    2    1    2    0    0 -0.19840683573E+02  0.34018367188E+02  0.10112575285E+02  0.50528853308E+02  0.29999980116E+02 0.  0.
        -12    1    1    2    0    0  0.19840683573E+02 -0.34018367188E+02 -0.10112575285E+02  0.40659146692E+02  0.00000000000E+00 0.  1.
         11    1    3    3    0    0 -0.14203103693E+02  0.17660595424E+02 -0.61740893376E+01  0.23489235080E+02  0.51100000000E-03 0. -1.
        -11    1    3    3    0    0 -0.45285994144E+01  0.16396876475E+02  0.82122891192E+01  0.18889347888E+02  0.51100000000E-03 0.  1.
        -12    1    3    3    0    0 -0.11089804660E+01 -0.39104710712E-01  0.80743755036E+01  0.81502703407E+01  0.00000000000E+00 0.  1.
</event>
<event>
 7    1  0.5753610E-013  0.5052887E+02  0.7816164E-02  0.1300439E+00
        -11   -1    0    0    0    0  0.00000000000E+00  0.00000000000E+00  0.45593999997E+02  0.45594000000E+02  0.51100000000E-03 0. -1.
         11   -1    0    0    0    0 -0.00000000000E+00 -0.00000000000E+00 -0.45593999997E+02  0.45594000000E+02  0.51100000000E-03 0.  1.
    9900012    2    1    2    0    0 -0.33052324195E+02 -0.23614521945E+02  0.17501706275E+01  0.50528869678E+02  0.30000029872E+02 0.  0.
        -12    1    1    2    0    0  0.33052324195E+02  0.23614521945E+02 -0.17501706275E+01  0.40659130322E+02  0.00000000000E+00 0.  1.
         11    1    3    3    0    0 -0.14644186172E+02 -0.15010745720E+02  0.94005235976E+01  0.22981395081E+02  0.51100000000E-03 0. -1.
        -11    1    3    3    0    0  0.95418842029E+00 -0.67546769290E+01 -0.55875280329E+00  0.68445847875E+01  0.51100000000E-03 0.  1.
         12    1    3    3    0    0 -0.19362326444E+02 -0.18490992954E+01 -0.70916001668E+01  0.20702889809E+02  0.00000000000E+00 0. -1.
</event>
<event>
 7    1  0.5753610E-013  0.5052886E+02  0.7816164E-02  0.1300439E+00
        -11   -1    0    0    0    0  0.00000000000E+00  0.00000000000E+00  0.45593999997E+02  0.45594000000E+02  0.51100000000E-03 0.  1.
         11   -1    0    0    0    0 -0.00000000000E+00 -0.00000000000E+00 -0.45593999997E+02  0.45594000000E+02  0.51100000000E-03 0. -1.
    9900012    2    1    2    0    0 -0.18961803675E+02 -0.11164894910E+02 -0.34190071371E+02  0.50528857641E+02  0.29999993287E+02 0.  0.
        -12    1    1    2    0    0  0.18961803675E+02  0.11164894910E+02  0.34190071371E+02  0.40659142359E+02  0.00000000000E+00 0.  1.
         11    1    3    3    0    0 -0.32399288050E+01  0.33490414053E+01  0.13590704908E+01  0.48538942980E+01  0.51100000000E-03 0. -1.
        -11    1    3    3    0    0  0.18073318986E+01  0.10019955696E+01 -0.13027833842E+02  0.13190712588E+02  0.51100000000E-03 0.  1.
         12    1    3    3    0    0 -0.17529206769E+02 -0.15515931885E+02 -0.22521308020E+02  0.32484250756E+02  0.00000000000E+00 0. -1.
</event>
<event>
 7    1  0.5753610E-013  0.5052885E+02  0.7816164E-02  0.1300439E+00
        -11   -1    0    0    0    0  0.00000000000E+00  0.00000000000E+00  0.45593999997E+02  0.45594000000E+02  0.51100000000E-03 0.  1.
         11   -1    0    0    0    0 -0.00000000000E+00 -0.00000000000E+00 -0.45593999997E+02  0.45594000000E+02  0.51100000000E-03 0. -1.
    9900012    2    1    2    0    0 -0.20917918788E+02  0.34858668326E+02  0.69286212611E+00  0.50528854143E+02  0.29999982654E+02 0.  0.
        -12    1    1    2    0    0  0.20917918788E+02 -0.34858668326E+02 -0.69286212611E+00  0.40659145857E+02  0.00000000000E+00 0.  1.
         11    1    3    3    0    0 -0.14434738665E+02  0.25493050765E+02 -0.63906222630E+01  0.29984952407E+02  0.51100000000E-03 0. -1.
        -11    1    3    3    0    0  0.37287354868E+01  0.22438045277E-01 -0.17552926630E+01  0.41212891661E+01  0.51100000000E-03 0.  1.
        -12    1    3    3    0    0 -0.10211915610E+02  0.93431795150E+01  0.88387770521E+01  0.16422612571E+02  0.00000000000E+00 0.  1.
</event>
<event>
 7    1  0.5753610E-013  0.5052887E+02  0.7816164E-02  0.1300439E+00
        -11   -1    0    0    0    0  0.00000000000E+00  0.00000000000E+00  0.45593999997E+02  0.45594000000E+02  0.51100000000E-03 0.  1.
         11   -1    0    0    0    0 -0.00000000000E+00 -0.00000000000E+00 -0.45593999997E+02  0.45594000000E+02  0.51100000000E-03 0. -1.
    9900012    2    1    2    0    0 -0.21554285828E+02 -0.33957848003E+02 -0.59533139618E+01  0.50528872788E+02  0.30000039325E+02 0.  0.
        -12    1    1    2    0    0  0.21554285828E+02  0.33957848003E+02  0.59533139618E+01  0.40659127212E+02  0.00000000000E+00 0.  1.
         11    1    3    3    0    0 -0.49796690907E+01 -0.33490452909E+01 -0.97762350042E+00  0.60802102417E+01  0.51100000000E-03 0. -1.
        -11    1    3    3    0    0  0.39864566622E+01 -0.11292189610E+02 -0.10232591646E+02  0.15751549605E+02  0.51100000000E-03 0.  1.
        -12    1    3    3    0    0 -0.20561073399E+02 -0.19316613102E+02  0.52569011847E+01  0.28697112940E+02  0.00000000000E+00 0.  1.
</event>
<event>
 7    1  0.5753610E-013  0.5052886E+02  0.7816164E-02  0.1300439E+00
        -11   -1    0    0    0    0  0.00000000000E+00  0.00000000000E+00  0.45593999997E+02  0.45594000000E+02  0.51100000000E-03 0. -1.
         11   -1    0    0    0    0 -0.00000000000E+00 -0.00000000000E+00 -0.45593999997E+02  0.45594000000E+02  0.51100000000E-03 0.  1.
    9900012    2    1    2    0    0 -0.45949899309E+01  0.40111688221E+02  0.48066465676E+01  0.50528864303E+02  0.30000013535E+02 0.  0.
        -12    1    1    2    0    0  0.45949899309E+01 -0.40111688221E+02 -0.48066465676E+01  0.40659135697E+02  0.00000000000E+00 0.  1.
         11    1    3    3    0    0 -0.75441845226E+01  0.14023276698E+02  0.87031406403E+01  0.18146946485E+02  0.51100000000E-03 0. -1.
        -11    1    3    3    0    0 -0.50837441208E+01  0.11590476829E+01 -0.33248580963E+01  0.61840542882E+01  0.51100000000E-03 0.  1.
        -12    1    3    3    0    0  0.80329387125E+01  0.24929363840E+02 -0.57163597642E+00  0.26197863530E+02  0.00000000000E+00 0.  1.
</event>
<event>
 7    1  0.5753610E-013  0.5052887E+02  0.7816164E-02  0.1300439E+00
        -11   -1    0    0    0    0  0.00000000000E+00  0.00000000000E+00  0.45593999997E+02  0.45594000000E+02  0.51100000000E-03 0. -1.
         11   -1    0    0    0    0 -0.00000000000E+00 -0.00000000000E+00 -0.45593999997E+02  0.45594000000E+02  0.51100000000E-03 0.  1.
    9900012    2    1    2    0    0 -0.14812172009E+02  0.33628837348E+02  0.17403037255E+02  0.50528870069E+02  0.30000031062E+02 0.  0.
        -12    1    1    2    0    0  0.14812172009E+02 -0.33628837348E+02 -0.17403037255E+02  0.40659129931E+02  0.00000000000E+00 0.  1.
         11    1    3    3    0    0 -0.91561554120E+01  0.15744683321E+02  0.13631684558E+02  0.22749792504E+02  0.51100000000E-03 0. -1.
        -11    1    3    3    0    0  0.30957886465E+01 -0.32116038267E+01  0.19472196154E+01  0.48672344278E+01  0.51100000000E-03 0.  1.
         12    1    3    3    0    0 -0.87518052433E+01  0.21095757854E+02  0.18241330811E+01  0.22911843138E+02  0.00000000000E+00 0. -1.
</event>
<event>
 7    1  0.5753610E-013  0.5052884E+02  0.7816164E-02  0.1300439E+00
        -11   -1    0    0    0    0  0.00000000000E+00  0.00000000000E+00  0.45593999997E+02  0.45594000000E+02  0.51100000000E-03 0. -1.
         11   -1    0    0    0    0 -0.00000000000E+00 -0.00000000000E+00 -0.45593999997E+02  0.45594000000E+02  0.51100000000E-03 0.  1.
    9900012    2    1    2    0    0 -0.25117801908E+02  0.30761025163E+02  0.87191104869E+01  0.50528837079E+02  0.29999930786E+02 0.  0.
        -12    1    1    2    0    0  0.25117801908E+02 -0.30761025163E+02 -0.87191104869E+01  0.40659162921E+02  0.00000000000E+00 0.  1.
         11    1    3    3    0    0 -0.82740938126E+01  0.16666639088E+02  0.36406629090E+01  0.18960271980E+02  0.51100000000E-03 0. -1.
        -11    1    3    3    0    0 -0.15719727430E+02 -0.12433828136E+01  0.29643755933E+01  0.16045041421E+02  0.51100000000E-03 0.  1.
         12    1    3    3    0    0 -0.11239806656E+01  0.15337768889E+02  0.21140719846E+01  0.15523523678E+02  0.00000000000E+00 0. -1.
</event>
<event>
 7    1  0.5753610E-013  0.5052886E+02  0.7816164E-02  0.1300439E+00
        -11   -1    0    0    0    0  0.00000000000E+00  0.00000000000E+00  0.45593999997E+02  0.45594000000E+02  0.51100000000E-03 0. -1.
         11   -1    0    0    0    0 -0.00000000000E+00 -0.00000000000E+00 -0.45593999997E+02  0.45594000000E+02  0.51100000000E-03 0.  1.
    9900012    2    1    2    0    0 -0.18629943846E+02  0.28996154000E+02  0.21571139775E+02  0.50528858030E+02  0.29999994469E+02 0.  0.
        -12    1    1    2    0    0  0.18629943846E+02 -0.28996154000E+02 -0.21571139775E+02  0.40659141970E+02  0.00000000000E+00 0.  1.
         11    1    3    3    0    0 -0.26967705249E+01 -0.27945088007E+01 -0.10873660048E+01  0.40328917405E+01  0.51100000000E-03 0. -1.
        -11    1    3    3    0    0 -0.12729340688E+02  0.57716257873E+01  0.11087305199E+02  0.17840294712E+02  0.51100000000E-03 0.  1.
         12    1    3    3    0    0 -0.32038326327E+01  0.26019037014E+02  0.11571200581E+02  0.28655671577E+02  0.00000000000E+00 0. -1.
</event>
<event>
 7    1  0.5753610E-013  0.5052884E+02  0.7816164E-02  0.1300439E+00
        -11   -1    0    0    0    0  0.00000000000E+00  0.00000000000E+00  0.45593999997E+02  0.45594000000E+02  0.51100000000E-03 0.  1.
         11   -1    0    0    0    0 -0.00000000000E+00 -0.00000000000E+00 -0.45593999997E+02  0.45594000000E+02  0.51100000000E-03 0. -1.
    9900012    2    1    2    0    0  0.37215063471E+01  0.69564140614E+01 -0.39886412300E+02  0.50528841225E+02  0.29999943388E+02 0.  0.
        -12    1    1    2    0    0 -0.37215063471E+01 -0.69564140614E+01  0.39886412300E+02  0.40659158775E+02  0.00000000000E+00 0.  1.
         11    1    3    3    0    0  0.33128776467E+01  0.18871036758E+01 -0.20430629641E+02  0.20783333380E+02  0.51100000000E-03 0. -1.
        -11    1    3    3    0    0  0.10782400613E+01  0.97812035973E+01 -0.22177739088E+02  0.24262865799E+02  0.51100000000E-03 0.  1.
        -12    1    3    3    0    0 -0.66961136082E+00 -0.47118932118E+01  0.27219564288E+01  0.54826420468E+01  0.00000000000E+00 0.  1.
</event>
<event>
 7    1  0.5753610E-013  0.5052886E+02  0.7816164E-02  0.1300439E+00
        -11   -1    0    0    0    0  0.00000000000E+00  0.00000000000E+00  0.45593999997E+02  0.45594000000E+02  0.51100000000E-03 0.  1.
         11   -1    0    0    0    0 -0.00000000000E+00 -0.00000000000E+00 -0.45593999997E+02  0.45594000000E+02  0.51100000000E-03 0. -1.
    9900012    2    1    2    0    0  0.72861695236E+01  0.16917117322E+01 -0.39965178289E+02  0.50528860430E+02  0.30000001762E+02 0.  0.
        -12    1    1    2    0    0 -0.72861695236E+01 -0.16917117322E+01  0.39965178289E+02  0.40659139570E+02  0.00000000000E+00 0.  1.
         11    1    3    3    0    0  0.69822643585E+01  0.70113183956E+01 -0.42376169901E+01  0.10764199888E+02  0.51100000000E-03 0. -1.
        -11    1    3    3    0    0 -0.35939318407E+01  0.37533030111E+01 -0.40637683629E+01  0.65968055252E+01  0.51100000000E-03 0.  1.
         12    1    3    3    0    0  0.38978370058E+01 -0.90729096746E+01 -0.31663792936E+02  0.33167855016E+02  0.00000000000E+00 0. -1.
</event>
<event>
 7    1  0.5753610E-013  0.5052885E+02  0.7816164E-02  0.1300439E+00
        -11   -1    0    0    0    0  0.00000000000E+00  0.00000000000E+00  0.45593999997E+02  0.45594000000E+02  0.51100000000E-03 0. -1.
         11   -1    0    0    0    0 -0.00000000000E+00 -0.00000000000E+00 -0.45593999997E+02  0.45594000000E+02  0.51100000000E-03 0.  1.
    9900012    2    1    2    0    0  0.35729463365E+02  0.16837259271E+02 -0.96477158925E+01  0.50528852517E+02  0.29999977710E+02 0.  0.
        -12    1    1    2    0    0 -0.35729463365E+02 -0.16837259271E+02  0.96477158925E+01  0.40659147483E+02  0.00000000000E+00 0.  1.
         11    1    3    3    0    0  0.29715860557E+02  0.95086197299E+01 -0.12920514519E+02  0.33769600434E+02  0.51100000000E-03 0. -1.
        -11    1    3    3    0    0  0.10339336217E+02  0.45580003757E+01  0.22866964573E+01  0.11528496077E+02  0.51100000000E-03 0.  1.
        -12    1    3    3    0    0 -0.43257334088E+01  0.27706391649E+01  0.98610216882E+00  0.52307560059E+01  0.00000000000E+00 0.  1.
</event>
<event>
 7    1  0.5753610E-013  0.5052892E+02  0.7816164E-02  0.1300439E+00
        -11   -1    0    0    0    0  0.00000000000E+00  0.00000000000E+00  0.45593999997E+02  0.45594000000E+02  0.51100000000E-03 0.  1.
         11   -1    0    0    0    0 -0.00000000000E+00 -0.00000000000E+00 -0.45593999997E+02  0.45594000000E+02  0.51100000000E-03 0. -1.
    9900012    2    1    2    0    0 -0.26928864332E+02 -0.30397645473E+02  0.19949675234E+01  0.50528923769E+02  0.30000194288E+02 0.  0.
        -12    1    1    2    0    0  0.26928864332E+02  0.30397645473E+02 -0.19949675234E+01  0.40659076231E+02  0.00000000000E+00 0.  1.
         11    1    3    3    0    0 -0.91725418920E+01  0.18751564909E+01  0.24090753262E+01  0.96672323244E+01  0.51100000000E-03 0.  1.
        -11    1    3    3    0    0 -0.15484605167E+02 -0.14294952696E+02 -0.59785997196E+01  0.21905760079E+02  0.51100000000E-03 0. -1.
        -12    1    3    3    0    0 -0.22717172734E+01 -0.17977849268E+02  0.55644919168E+01  0.18955931366E+02  0.00000000000E+00 0.  1.
</event>
<event>
 7    1  0.5753610E-013  0.5052886E+02  0.7816164E-02  0.1300439E+00
        -11   -1    0    0    0    0  0.00000000000E+00  0.00000000000E+00  0.45593999997E+02  0.45594000000E+02  0.51100000000E-03 0.  1.
         11   -1    0    0    0    0 -0.00000000000E+00 -0.00000000000E+00 -0.45593999997E+02  0.45594000000E+02  0.51100000000E-03 0. -1.
    9900012    2    1    2    0    0 -0.17370598308E+02 -0.36729785134E+02  0.15333073541E+01  0.50528857940E+02  0.29999994195E+02 0.  0.
        -12    1    1    2    0    0  0.17370598308E+02  0.36729785134E+02 -0.15333073541E+01  0.40659142060E+02  0.00000000000E+00 0.  1.
         11    1    3    3    0    0 -0.49229263425E+00  0.16445269280E+00 -0.29593123081E+01  0.30044843691E+01  0.51100000000E-03 0. -1.
        -11    1    3    3    0    0 -0.10190616803E+02 -0.71667783630E+01 -0.77657963135E+01  0.14680564552E+02  0.51100000000E-03 0.  1.
         12    1    3    3    0    0 -0.66876888707E+01 -0.29727459464E+02  0.12258415976E+02  0.32843809019E+02  0.00000000000E+00 0. -1.
</event>
<event>
 7    1  0.5753610E-013  0.5052888E+02  0.7816164E-02  0.1300439E+00
        -11   -1    0    0    0    0  0.00000000000E+00  0.00000000000E+00  0.45593999997E+02  0.45594000000E+02  0.51100000000E-03 0. -1.
         11   -1    0    0    0    0 -0.00000000000E+00 -0.00000000000E+00 -0.45593999997E+02  0.45594000000E+02  0.51100000000E-03 0.  1.
    9900012    2    1    2    0    0 -0.14558084275E+02  0.25758649519E+02  0.27887603891E+02  0.50528876872E+02  0.30000051739E+02 0.  0.
        -12    1    1    2    0    0  0.14558084275E+02 -0.25758649519E+02 -0.27887603891E+02  0.40659123128E+02  0.00000000000E+00 0.  1.
         11    1    3    3    0    0 -0.10020817874E+02  0.79048278383E+01  0.66605751891E+01  0.14396748110E+02  0.51100000000E-03 0. -1.
        -11    1    3    3    0    0  0.23952735889E+01  0.21082351107E+02  0.12925176900E+02  0.24844779370E+02  0.51100000000E-03 0.  1.
         12    1    3    3    0    0 -0.69325399896E+01 -0.32285294265E+01  0.83018518015E+01  0.11287349392E+02  0.00000000000E+00 0. -1.
</event>
<event>
 7    1  0.5753610E-013  0.5052886E+02  0.7816164E-02  0.1300439E+00
        -11   -1    0    0    0    0  0.00000000000E+00  0.00000000000E+00  0.45593999997E+02  0.45594000000E+02  0.51100000000E-03 0. -1.
         11   -1    0    0    0    0 -0.00000000000E+00 -0.00000000000E+00 -0.45593999997E+02  0.45594000000E+02  0.51100000000E-03 0.  1.
    9900012    2    1    2    0    0 -0.15829786739E+02  0.16237519784E+02  0.33747981988E+02  0.50528862218E+02  0.30000007198E+02 0.  0.
        -12    1    1    2    0    0  0.15829786739E+02 -0.16237519784E+02 -0.33747981988E+02  0.40659137782E+02  0.00000000000E+00 0.  1.
         11    1    3    3    0    0  0.34800188191E+01  0.60874885782E+01  0.64737951634E+01  0.95434832347E+01  0.51100000000E-03 0. -1.
        -11    1    3    3    0    0 -0.65893433729E+01  0.43531303956E+01 -0.23407127493E+01  0.82369974361E+01  0.51100000000E-03 0.  1.
         12    1    3    3    0    0 -0.12720462185E+02  0.57969008107E+01  0.29614899574E+02  0.32748381547E+02  0.00000000000E+00 0. -1.
</event>
<event>
 7    1  0.5753610E-013  0.5052886E+02  0.7816164E-02  0.1300439E+00
        -11   -1    0    0    0    0  0.00000000000E+00  0.00000000000E+00  0.45593999997E+02  0.45594000000E+02  0.51100000000E-03 0.  1.
         11   -1    0    0    0    0 -0.00000000000E+00 -0.00000000000E+00 -0.45593999997E+02  0.45594000000E+02  0.51100000000E-03 0. -1.
    9900012    2    1    2    0    0 -0.35704723499E+02 -0.17714416311E+02 -0.80335444882E+01  0.50528860039E+02  0.30000000574E+02 0.  0.
        -12    1    1    2    0    0  0.35704723499E+02  0.17714416311E+02  0.80335444882E+01  0.40659139961E+02  0.00000000000E+00 0.  1.
         11    1    3    3    0    0 -0.24400790581E+02 -0.64361411930E+01  0.23505655446E+01  0.25344578376E+02  0.51100000000E-03 0. -1.
        -11    1    3    3    0    0 -0.14915822254E+02 -0.67208858220E+01 -0.46279696128E+01  0.17002063485E+02  0.51100000000E-03 0.  1.
        -12    1    3    3    0    0  0.36118893362E+01 -0.45573892957E+01 -0.57561404200E+01  0.81822181775E+01  0.00000000000E+00 0.  1.
</event>
<event>
 7    1  0.5753610E-013  0.5052886E+02  0.7816164E-02  0.1300439E+00
        -11   -1    0    0    0    0  0.00000000000E+00  0.00000000000E+00  0.45593999997E+02  0.45594000000E+02  0.51100000000E-03 0.  1.
         11   -1    0    0    0    0 -0.00000000000E+00 -0.00000000000E+00 -0.45593999997E+02  0.45594000000E+02  0.51100000000E-03 0. -1.
    9900012    2    1    2    0    0  0.12161758038E+02  0.20107831210E+02 -0.33180301320E+02  0.50528860435E+02  0.30000001778E+02 0.  0.
        -12    1    1    2    0    0 -0.12161758038E+02 -0.20107831210E+02  0.33180301320E+02  0.40659139565E+02  0.00000000000E+00 0.  1.
         11    1    3    3    0    0  0.98658508568E+01  0.15009144078E+01 -0.92389392704E+01  0.13599476324E+02  0.51100000000E-03 0. -1.
        -11    1    3    3    0    0  0.21250153215E-01  0.10962706689E+02 -0.26398248785E+02  0.28584067743E+02  0.51100000000E-03 0.  1.
         12    1    3    3    0    0  0.22746570276E+01  0.76442101133E+01  0.24568867363E+01  0.83453163681E+01  0.00000000000E+00 0. -1.
</event>
<event>
 7    1  0.5753610E-013  0.5052885E+02  0.7816164E-02  0.1300439E+00
        -11   -1    0    0    0    0  0.00000000000E+00  0.00000000000E+00  0.45593999997E+02  0.45594000000E+02  0.51100000000E-03 0.  1.
         11   -1    0    0    0    0 -0.00000000000E+00 -0.00000000000E+00 -0.45593999997E+02  0.45594000000E+02  0.51100000000E-03 0. -1.
    9900012    2    1    2    0    0 -0.35544251437E+02 -0.19727323232E+02 -0.77788448214E+00  0.50528853472E+02  0.29999980614E+02 0.  0.
        -12    1    1    2    0    0  0.35544251437E+02  0.19727323232E+02  0.77788448214E+00  0.40659146528E+02  0.00000000000E+00 0.  1.
         11    1    3    3    0    0 -0.62000542424E+01 -0.79116290043E+01  0.29428563830E+01  0.10473535700E+02  0.51100000000E-03 0. -1.
        -11    1    3    3    0    0 -0.17713904298E+01 -0.12975511095E+01 -0.96994786061E+01  0.99449157074E+01  0.51100000000E-03 0.  1.
         12    1    3    3    0    0 -0.27572806764E+02 -0.10518143118E+02  0.59787377409E+01  0.30110402065E+02  0.00000000000E+00 0. -1.
</event>
<event>
 7    1  0.5753610E-013  0.5052886E+02  0.7816164E-02  0.1300439E+00
        -11   -1    0    0    0    0  0.00000000000E+00  0.00000000000E+00  0.45593999997E+02  0.45594000000E+02  0.51100000000E-03 0.  1.
         11   -1    0    0    0    0 -0.00000000000E+00 -0.00000000000E+00 -0.45593999997E+02  0.45594000000E+02  0.51100000000E-03 0. -1.
    9900012    2    1    2    0    0  0.41849215140E+01 -0.57136639215E+01 -0.40037563771E+02  0.50528855441E+02  0.29999986600E+02 0.  0.
        -12    1    1    2    0    0 -0.41849215140E+01  0.57136639215E+01  0.40037563771E+02  0.40659144559E+02  0.00000000000E+00 0.  1.
         11    1    3    3    0    0  0.50041710025E+01 -0.41879819246E+01 -0.11086514124E+02  0.12864358348E+02  0.51100000000E-03 0. -1.
        -11    1    3    3    0    0 -0.94176803964E+01 -0.75566941651E+01 -0.88013255397E+01  0.14941876130E+02  0.51100000000E-03 0.  1.
         12    1    3    3    0    0  0.85984309079E+01  0.60310121682E+01 -0.20149724108E+02  0.22722620964E+02  0.00000000000E+00 0. -1.
</event>
<event>
 7    1  0.5753610E-013  0.5052886E+02  0.7816164E-02  0.1300439E+00
        -11   -1    0    0    0    0  0.00000000000E+00  0.00000000000E+00  0.45593999997E+02  0.45594000000E+02  0.51100000000E-03 0. -1.
         11   -1    0    0    0    0 -0.00000000000E+00 -0.00000000000E+00 -0.45593999997E+02  0.45594000000E+02  0.51100000000E-03 0.  1.
    9900012    2    1    2    0    0 -0.17111534587E+02  0.16271822388E+02  0.33099682138E+02  0.50528858625E+02  0.29999996276E+02 0.  0.
        -12    1    1    2    0    0  0.17111534587E+02 -0.16271822388E+02 -0.33099682138E+02  0.40659141375E+02  0.00000000000E+00 0.  1.
         11    1    3    3    0    0 -0.71988217263E+01 -0.54814983039E+01  0.39162342212E+01  0.98593482867E+01  0.51100000000E-03 0. -1.
        -11    1    3    3    0    0 -0.20370395572E+00  0.53438687392E+01 -0.52023897029E+00  0.53729951843E+01  0.51100000000E-03 0.  1.
         12    1    3    3    0    0 -0.97090089045E+01  0.16409451952E+02  0.29703686887E+02  0.35296515154E+02  0.00000000000E+00 0. -1.
</event>
<event>
 7    1  0.5753610E-013  0.5052886E+02  0.7816164E-02  0.1300439E+00
        -11   -1    0    0    0    0  0.00000000000E+00  0.00000000000E+00  0.45593999997E+02  0.45594000000E+02  0.51100000000E-03 0.  1.
         11   -1    0    0    0    0 -0.00000000000E+00 -0.00000000000E+00 -0.45593999997E+02  0.45594000000E+02  0.51100000000E-03 0. -1.
    9900012    2    1    2    0    0 -0.30083439756E+02  0.26988854985E+02 -0.44445441518E+01  0.50528860638E+02  0.30000002395E+02 0.  0.
        -12    1    1    2    0    0  0.30083439756E+02 -0.26988854985E+02  0.44445441518E+01  0.40659139362E+02  0.00000000000E+00 0.  1.
         11    1    3    3    0    0  0.31046577681E+01  0.21736490867E+01 -0.26672419068E-01  0.37900345497E+01  0.51100000000E-03 0. -1.
        -11    1    3    3    0    0 -0.15197410794E+02  0.11585325258E+02  0.85279799761E+01  0.20926239483E+02  0.51100000000E-03 0.  1.
         12    1    3    3    0    0 -0.17990686730E+02  0.13229880640E+02 -0.12945851709E+02  0.25812586605E+02  0.00000000000E+00 0. -1.
</event>
<event>
 7    1  0.5753610E-013  0.5052877E+02  0.7816164E-02  0.1300439E+00
        -11   -1    0    0    0    0  0.00000000000E+00  0.00000000000E+00  0.45593999997E+02  0.45594000000E+02  0.51100000000E-03 0.  1.
         11   -1    0    0    0    0 -0.00000000000E+00 -0.00000000000E+00 -0.45593999997E+02  0.45594000000E+02  0.51100000000E-03 0. -1.
    9900012    2    1    2    0    0  0.31913755416E+02  0.25035461379E+02  0.28125864647E+01  0.50528772833E+02  0.29999735502E+02 0.  0.
        -12    1    1    2    0    0 -0.31913755416E+02 -0.25035461379E+02 -0.28125864647E+01  0.40659227167E+02  0.00000000000E+00 0.  1.
         11    1    3    3    0    0  0.18019180961E+02  0.85671762799E+01  0.40393857674E+01  0.20356916013E+02  0.51100000000E-03 0. -1.
        -11    1    3    3    0    0  0.14516193835E+02  0.21008216984E+02 -0.15153650446E+01  0.25580488575E+02  0.51100000000E-03 0.  1.
        -12    1    3    3    0    0 -0.62161937981E+00 -0.45399318849E+01  0.28856574184E+00  0.45913682449E+01  0.00000000000E+00 0.  1.
</event>
<event>
 7    1  0.5753610E-013  0.5052886E+02  0.7816164E-02  0.1300439E+00
        -11   -1    0    0    0    0  0.00000000000E+00  0.00000000000E+00  0.45593999997E+02  0.45594000000E+02  0.51100000000E-03 0. -1.
         11   -1    0    0    0    0 -0.00000000000E+00 -0.00000000000E+00 -0.45593999997E+02  0.45594000000E+02  0.51100000000E-03 0.  1.
    9900012    2    1    2    0    0  0.38242659006E+02  0.75480139322E+01  0.11562529516E+02  0.50528861163E+02  0.30000003991E+02 0.  0.
        -12    1    1    2    0    0 -0.38242659006E+02 -0.75480139322E+01 -0.11562529516E+02  0.40659138837E+02  0.00000000000E+00 0.  1.
         11    1    3    3    0    0 -0.52370991166E+00  0.54111056670E+01  0.33797489536E+01  0.64013311007E+01  0.51100000000E-03 0. -1.
        -11    1    3    3    0    0  0.17671888782E+02  0.61888843431E+01  0.12099271224E+02  0.22293279412E+02  0.51100000000E-03 0.  1.
         12    1    3    3    0    0  0.21094480136E+02 -0.40519760778E+01 -0.39164906619E+01  0.21834250650E+02  0.00000000000E+00 0. -1.
</event>
<event>
 7    1  0.5753610E-013  0.5052886E+02  0.7816164E-02  0.1300439E+00
        -11   -1    0    0    0    0  0.00000000000E+00  0.00000000000E+00  0.45593999997E+02  0.45594000000E+02  0.51100000000E-03 0.  1.
         11   -1    0    0    0    0 -0.00000000000E+00 -0.00000000000E+00 -0.45593999997E+02  0.45594000000E+02  0.51100000000E-03 0. -1.
    9900012    2    1    2    0    0 -0.18139160414E+02 -0.70422666062E+01 -0.35700736865E+02  0.50528864837E+02  0.30000015160E+02 0.  0.
        -12    1    1    2    0    0  0.18139160414E+02  0.70422666062E+01  0.35700736865E+02  0.40659135163E+02  0.00000000000E+00 0.  1.
         11    1    3    3    0    0 -0.76100778807E+00  0.43687888840E+01 -0.68727449686E+01  0.81792464709E+01  0.51100000000E-03 0. -1.
        -11    1    3    3    0    0  0.47330309910E+00  0.59778480095E+01 -0.70357150529E+01  0.92444561341E+01  0.51100000000E-03 0.  1.
        -12    1    3    3    0    0 -0.17851455725E+02 -0.17388903500E+02 -0.21792276843E+02  0.33105162232E+02  0.00000000000E+00 0.  1.
</event>
<event>
 7    1  0.5753610E-013  0.5052886E+02  0.7816164E-02  0.1300439E+00
        -11   -1    0    0    0    0  0.00000000000E+00  0.00000000000E+00  0.45593999997E+02  0.45594000000E+02  0.51100000000E-03 0.  1.
         11   -1    0    0    0    0 -0.00000000000E+00 -0.00000000000E+00 -0.45593999997E+02  0.45594000000E+02  0.51100000000E-03 0. -1.
    9900012    2    1    2    0    0 -0.22411786951E+02  0.32061263744E+02  0.11088405437E+02  0.50528861269E+02  0.30000004314E+02 0.  0.
        -12    1    1    2    0    0  0.22411786951E+02 -0.32061263744E+02 -0.11088405437E+02  0.40659138731E+02  0.00000000000E+00 0.  1.
         11    1    3    3    0    0 -0.19577070638E+02  0.19093186379E+02 -0.42241651641E+01  0.27670472213E+02  0.51100000000E-03 0. -1.
        -11    1    3    3    0    0 -0.45542257294E+01  0.14268161440E+01  0.72326884073E+01  0.86653654373E+01  0.51100000000E-03 0.  1.
        -12    1    3    3    0    0  0.17195094163E+01  0.11541261220E+02  0.80798821937E+01  0.14193023619E+02  0.00000000000E+00 0.  1.
</event>
<event>
 7    1  0.1304320E-012  0.5052886E+02  0.7816164E-02  0.1300439E+00
        -11   -1    0    0    0    0  0.00000000000E+00  0.00000000000E+00  0.45593999997E+02  0.45594000000E+02  0.51100000000E-03 0.  1.
         11   -1    0    0    0    0 -0.00000000000E+00 -0.00000000000E+00 -0.45593999997E+02  0.45594000000E+02  0.51100000000E-03 0. -1.
    9900012    2    1    2    0    0  0.21113717585E+01 -0.18541343525E+02 -0.36123769681E+02  0.50528855317E+02  0.29999986221E+02 0.  0.
        -12    1    1    2    0    0 -0.21113717585E+01  0.18541343525E+02  0.36123769681E+02  0.40659144683E+02  0.00000000000E+00 0.  1.
         11    1    3    3    0    0 -0.55385284396E+01 -0.11481402300E+02 -0.24858029085E+02  0.27935989446E+02  0.51100000000E-03 0. -1.
        -11    1    3    3    0    0  0.78181249189E+01 -0.76688737550E+01 -0.15129854076E+02  0.18677451286E+02  0.51100000000E-03 0.  1.
        -12    1    3    3    0    0 -0.16822472078E+00  0.60893252985E+00  0.38641134807E+01  0.39154145852E+01  0.00000000000E+00 0.  1.
</event>
<event>
 7    1  0.5753610E-013  0.5052886E+02  0.7816164E-02  0.1300439E+00
        -11   -1    0    0    0    0  0.00000000000E+00  0.00000000000E+00  0.45593999997E+02  0.45594000000E+02  0.51100000000E-03 0.  1.
         11   -1    0    0    0    0 -0.00000000000E+00 -0.00000000000E+00 -0.45593999997E+02  0.45594000000E+02  0.51100000000E-03 0. -1.
    9900012    2    1    2    0    0 -0.12020512778E+02 -0.25487710922E+02  0.29309543793E+02  0.50528862123E+02  0.30000006910E+02 0.  0.
        -12    1    1    2    0    0  0.12020512778E+02  0.25487710922E+02 -0.29309543793E+02  0.40659137877E+02  0.00000000000E+00 0.  1.
         11    1    3    3    0    0 -0.16977600078E+02 -0.10235134200E+02  0.47089273772E+01  0.20375742289E+02  0.51100000000E-03 0. -1.
        -11    1    3    3    0    0  0.10337156250E+01 -0.12618555994E+02  0.16868401561E+02  0.21091218430E+02  0.51100000000E-03 0.  1.
        -12    1    3    3    0    0  0.39233716756E+01 -0.26340207278E+01  0.77322148554E+01  0.90619014048E+01  0.00000000000E+00 0.  1.
</event>
<event>
 7    1  0.5753610E-013  0.5052887E+02  0.7816164E-02  0.1300439E+00
        -11   -1    0    0    0    0  0.00000000000E+00  0.00000000000E+00  0.45593999997E+02  0.45594000000E+02  0.51100000000E-03 0. -1.
         11   -1    0    0    0    0 -0.00000000000E+00 -0.00000000000E+00 -0.45593999997E+02  0.45594000000E+02  0.51100000000E-03 0.  1.
    9900012    2    1    2    0    0 -0.38378900733E+02  0.14118665837E+01 -0.13350326821E+02  0.50528872920E+02  0.30000039726E+02 0.  0.
        -12    1    1    2    0    0  0.38378900733E+02 -0.14118665837E+01  0.13350326821E+02  0.40659127080E+02  0.00000000000E+00 0.  1.
         11    1    3    3    0    0 -0.10730288672E+02  0.59463370719E+01  0.32442794609E+01  0.12689498376E+02  0.51100000000E-03 0.  1.
        -11    1    3    3    0    0 -0.13345051281E+02  0.69462381215E+01 -0.39264615094E+01  0.15548559997E+02  0.51100000000E-03 0. -1.
        -12    1    3    3    0    0 -0.14303560780E+02 -0.11480708610E+02 -0.12668144773E+02  0.22290814547E+02  0.00000000000E+00 0.  1.
</event>
<event>
 7    1  0.5753610E-013  0.5052886E+02  0.7816164E-02  0.1300439E+00
        -11   -1    0    0    0    0  0.00000000000E+00  0.00000000000E+00  0.45593999997E+02  0.45594000000E+02  0.51100000000E-03 0.  1.
         11   -1    0    0    0    0 -0.00000000000E+00 -0.00000000000E+00 -0.45593999997E+02  0.45594000000E+02  0.51100000000E-03 0. -1.
    9900012    2    1    2    0    0 -0.97123091535E+01  0.21383989585E+02 -0.33189782489E+02  0.50528860544E+02  0.30000002109E+02 0.  0.
        -12    1    1    2    0    0  0.97123091535E+01 -0.21383989585E+02  0.33189782489E+02  0.40659139456E+02  0.00000000000E+00 0.  1.
         11    1    3    3    0    0 -0.54214596394E+01  0.33953075507E+01 -0.28767905303E+02  0.29470539760E+02  0.51100000000E-03 0. -1.
        -11    1    3    3    0    0  0.97540699093E+00 -0.40454457367E-01 -0.18616702430E+01  0.21021112521E+01  0.51100000000E-03 0.  1.
        -12    1    3    3    0    0 -0.52662565050E+01  0.18029136492E+02 -0.25602069430E+01  0.18956209531E+02  0.00000000000E+00 0.  1.
</event>
<event>
 7    1  0.5753610E-013  0.5052886E+02  0.7816164E-02  0.1300439E+00
        -11   -1    0    0    0    0  0.00000000000E+00  0.00000000000E+00  0.45593999997E+02  0.45594000000E+02  0.51100000000E-03 0. -1.
         11   -1    0    0    0    0 -0.00000000000E+00 -0.00000000000E+00 -0.45593999997E+02  0.45594000000E+02  0.51100000000E-03 0.  1.
    9900012    2    1    2    0    0 -0.30318178028E+02 -0.21145632517E+02 -0.16936228765E+02  0.50528861565E+02  0.30000005212E+02 0.  0.
        -12    1    1    2    0    0  0.30318178028E+02  0.21145632517E+02  0.16936228765E+02  0.40659138435E+02  0.00000000000E+00 0.  1.
         11    1    3    3    0    0 -0.52813783864E+01  0.14045028846E+01  0.31405209249E+01  0.63030514795E+01  0.51100000000E-03 0. -1.
        -11    1    3    3    0    0 -0.92799437807E-01  0.18999707186E+01  0.21142474907E+01  0.28440364238E+01  0.51100000000E-03 0.  1.
        -12    1    3    3    0    0 -0.24944000204E+02 -0.24450106121E+02 -0.22190997181E+02  0.41381773661E+02  0.00000000000E+00 0.  1.
</event>
<event>
 7    1  0.5753610E-013  0.5052886E+02  0.7816164E-02  0.1300439E+00
        -11   -1    0    0    0    0  0.00000000000E+00  0.00000000000E+00  0.45593999997E+02  0.45594000000E+02  0.51100000000E-03 0.  1.
         11   -1    0    0    0    0 -0.00000000000E+00 -0.00000000000E+00 -0.45593999997E+02  0.45594000000E+02  0.51100000000E-03 0. -1.
    9900012    2    1    2    0    0 -0.26128348319E+02  0.84817925614E+01 -0.29975559659E+02  0.50528861202E+02  0.30000004110E+02 0.  0.
        -12    1    1    2    0    0  0.26128348319E+02 -0.84817925614E+01  0.29975559659E+02  0.40659138798E+02  0.00000000000E+00 0.  1.
         11    1    3    3    0    0 -0.27667633731E+02  0.39016501955E+01 -0.21137561437E+02  0.35035943462E+02  0.51100000000E-03 0. -1.
        -11    1    3    3    0    0 -0.10893342119E+01  0.32119288467E+01 -0.11200693181E+02  0.11702933988E+02  0.51100000000E-03 0.  1.
        -12    1    3    3    0    0  0.26286196243E+01  0.13682135192E+01  0.23626949594E+01  0.37899837512E+01  0.00000000000E+00 0.  1.
</event>
<event>
 7    1  0.5753610E-013  0.5052874E+02  0.7816164E-02  0.1300439E+00
        -11   -1    0    0    0    0  0.00000000000E+00  0.00000000000E+00  0.45593999997E+02  0.45594000000E+02  0.51100000000E-03 0.  1.
         11   -1    0    0    0    0 -0.00000000000E+00 -0.00000000000E+00 -0.45593999997E+02  0.45594000000E+02  0.51100000000E-03 0. -1.
    9900012    2    1    2    0    0 -0.15899440046E+02  0.34053634679E+02 -0.15515575952E+02  0.50528741205E+02  0.29999639364E+02 0.  0.
        -12    1    1    2    0    0  0.15899440046E+02 -0.34053634679E+02  0.15515575952E+02  0.40659258795E+02  0.00000000000E+00 0.  1.
         11    1    3    3    0    0 -0.84850694440E+01  0.69532136172E+01 -0.15643492512E+01  0.11081099761E+02  0.51100000000E-03 0. -1.
        -11    1    3    3    0    0 -0.11226581764E+02  0.17101464779E+02 -0.18722269633E+02  0.27731202934E+02  0.51100000000E-03 0.  1.
        -12    1    3    3    0    0  0.38122111615E+01  0.99989562829E+01  0.47710429325E+01  0.11716438510E+02  0.00000000000E+00 0.  1.
</event>
<event>
 7    1  0.5753610E-013  0.5052886E+02  0.7816164E-02  0.1300439E+00
        -11   -1    0    0    0    0  0.00000000000E+00  0.00000000000E+00  0.45593999997E+02  0.45594000000E+02  0.51100000000E-03 0.  1.
         11   -1    0    0    0    0 -0.00000000000E+00 -0.00000000000E+00 -0.45593999997E+02  0.45594000000E+02  0.51100000000E-03 0. -1.
    9900012    2    1    2    0    0  0.93088494826E+01  0.36731728110E+02 -0.14740794144E+02  0.50528861536E+02  0.30000005126E+02 0.  0.
        -12    1    1    2    0    0 -0.93088494826E+01 -0.36731728110E+02  0.14740794144E+02  0.40659138464E+02  0.00000000000E+00 0.  1.
         11    1    3    3    0    0 -0.31671088238E+01  0.15165135065E+02 -0.11914418609E+02  0.19543931818E+02  0.51100000000E-03 0. -1.
        -11    1    3    3    0    0  0.13582812082E+01  0.17970492448E+02  0.24068342342E+01  0.18181759484E+02  0.51100000000E-03 0.  1.
         12    1    3    3    0    0  0.11117677098E+02  0.35961005970E+01 -0.52332097692E+01  0.12803170234E+02  0.00000000000E+00 0. -1.
</event>
<event>
 7    1  0.5753610E-013  0.5052887E+02  0.7816164E-02  0.1300439E+00
        -11   -1    0    0    0    0  0.00000000000E+00  0.00000000000E+00  0.45593999997E+02  0.45594000000E+02  0.51100000000E-03 0. -1.
         11   -1    0    0    0    0 -0.00000000000E+00 -0.00000000000E+00 -0.45593999997E+02  0.45594000000E+02  0.51100000000E-03 0.  1.
    9900012    2    1    2    0    0 -0.34059324321E+02 -0.28647526048E+01 -0.22020913035E+02  0.50528868288E+02  0.30000025648E+02 0.  0.
        -12    1    1    2    0    0  0.34059324321E+02  0.28647526048E+01  0.22020913035E+02  0.40659131712E+02  0.00000000000E+00 0.  1.
         11    1    3    3    0    0 -0.15488636956E+02 -0.34793586906E+01 -0.99518787870E+01  0.18736160314E+02  0.51100000000E-03 0. -1.
        -11    1    3    3    0    0 -0.23016055844E+02 -0.25948550412E+01 -0.66825544967E+01  0.24106609761E+02  0.51100000000E-03 0.  1.
        -12    1    3    3    0    0  0.44453684787E+01  0.32094611270E+01 -0.53864797513E+01  0.76860982135E+01  0.00000000000E+00 0.  1.
</event>
<event>
 7    1  0.5753610E-013  0.5052886E+02  0.7816164E-02  0.1300439E+00
        -11   -1    0    0    0    0  0.00000000000E+00  0.00000000000E+00  0.45593999997E+02  0.45594000000E+02  0.51100000000E-03 0.  1.
         11   -1    0    0    0    0 -0.00000000000E+00 -0.00000000000E+00 -0.45593999997E+02  0.45594000000E+02  0.51100000000E-03 0. -1.
    9900012    2    1    2    0    0 -0.24279520654E+01 -0.21810332043E+01 -0.40527943544E+02  0.50528855088E+02  0.29999985524E+02 0.  0.
        -12    1    1    2    0    0  0.24279520654E+01  0.21810332043E+01  0.40527943544E+02  0.40659144912E+02  0.00000000000E+00 0.  1.
         11    1    3    3    0    0  0.46434537196E+01  0.20547113975E+01 -0.70706214672E+00  0.51267376092E+01  0.51100000000E-03 0. -1.
        -11    1    3    3    0    0 -0.17114550524E+01 -0.92426413620E+01 -0.68646389999E+01  0.11639534639E+02  0.51100000000E-03 0.  1.
         12    1    3    3    0    0 -0.53599507327E+01  0.50068967602E+01 -0.32956242398E+02  0.33762582840E+02  0.00000000000E+00 0. -1.
</event>
<event>
 7    1  0.5753610E-013  0.5052896E+02  0.7816164E-02  0.1300438E+00
        -11   -1    0    0    0    0  0.00000000000E+00  0.00000000000E+00  0.45593999997E+02  0.45594000000E+02  0.51100000000E-03 0.  1.
         11   -1    0    0    0    0 -0.00000000000E+00 -0.00000000000E+00 -0.45593999997E+02  0.45594000000E+02  0.51100000000E-03 0. -1.
    9900012    2    1    2    0    0  0.13920890262E+02  0.27020860540E+02 -0.27004426499E+02  0.50528964835E+02  0.30000319110E+02 0.  0.
        -12    1    1    2    0    0 -0.13920890262E+02 -0.27020860540E+02  0.27004426499E+02  0.40659035165E+02  0.00000000000E+00 0.  1.
         11    1    3    3    0    0  0.13336603311E+02  0.24337760820E+02 -0.20888319289E+02  0.34734902800E+02  0.51100000000E-03 0. -1.
        -11    1    3    3    0    0  0.28574518939E+01  0.26379298085E+01 -0.10312455347E+02  0.11021362917E+02  0.51100000000E-03 0.  1.
        -12    1    3    3    0    0 -0.22731649432E+01  0.45169912194E-01  0.41963481366E+01  0.47726991172E+01  0.00000000000E+00 0.  1.
</event>
<event>
 7    1  0.5753610E-013  0.5052886E+02  0.7816164E-02  0.1300439E+00
        -11   -1    0    0    0    0  0.00000000000E+00  0.00000000000E+00  0.45593999997E+02  0.45594000000E+02  0.51100000000E-03 0.  1.
         11   -1    0    0    0    0 -0.00000000000E+00 -0.00000000000E+00 -0.45593999997E+02  0.45594000000E+02  0.51100000000E-03 0. -1.
    9900012    2    1    2    0    0 -0.84938739669E+01 -0.27292969296E+02 -0.28915624393E+02  0.50528863241E+02  0.30000010308E+02 0.  0.
        -12    1    1    2    0    0  0.84938739669E+01  0.27292969296E+02  0.28915624393E+02  0.40659136759E+02  0.00000000000E+00 0.  1.
         11    1    3    3    0    0 -0.38506459922E+01 -0.12159789758E+01  0.16536657724E+01  0.43635639304E+01  0.51100000000E-03 0. -1.
        -11    1    3    3    0    0 -0.99911788725E+01 -0.24111955803E+02 -0.16227931314E+02  0.30733626908E+02  0.51100000000E-03 0.  1.
         12    1    3    3    0    0  0.53479508977E+01 -0.19650345172E+01 -0.14341358851E+02  0.15431672403E+02  0.00000000000E+00 0. -1.
</event>
<event>
 7    1  0.5753610E-013  0.5052886E+02  0.7816164E-02  0.1300439E+00
        -11   -1    0    0    0    0  0.00000000000E+00  0.00000000000E+00  0.45593999997E+02  0.45594000000E+02  0.51100000000E-03 0.  1.
         11   -1    0    0    0    0 -0.00000000000E+00 -0.00000000000E+00 -0.45593999997E+02  0.45594000000E+02  0.51100000000E-03 0. -1.
    9900012    2    1    2    0    0 -0.29303191944E+02  0.16209998695E+02 -0.23059148072E+02  0.50528862951E+02  0.30000009425E+02 0.  0.
        -12    1    1    2    0    0  0.29303191944E+02 -0.16209998695E+02  0.23059148072E+02  0.40659137049E+02  0.00000000000E+00 0.  1.
         11    1    3    3    0    0  0.13680955019E+01  0.56133236981E+01  0.32005004715E+01  0.66048687929E+01  0.51100000000E-03 0. -1.
        -11    1    3    3    0    0 -0.10509480824E+02  0.45819021243E+01 -0.17095661731E+01  0.11591619000E+02  0.51100000000E-03 0.  1.
         12    1    3    3    0    0 -0.20161806621E+02  0.60147728727E+01 -0.24550082371E+02  0.32332375158E+02  0.00000000000E+00 0. -1.
</event>
<event>
 7    1  0.5753610E-013  0.5052887E+02  0.7816164E-02  0.1300439E+00
        -11   -1    0    0    0    0  0.00000000000E+00  0.00000000000E+00  0.45593999997E+02  0.45594000000E+02  0.51100000000E-03 0.  1.
         11   -1    0    0    0    0 -0.00000000000E+00 -0.00000000000E+00 -0.45593999997E+02  0.45594000000E+02  0.51100000000E-03 0. -1.
    9900012    2    1    2    0    0 -0.83948427710E+01  0.38143113167E+02  0.11304628886E+02  0.50528866937E+02  0.30000021541E+02 0.  0.
        -12    1    1    2    0    0  0.83948427710E+01 -0.38143113167E+02 -0.11304628886E+02  0.40659133063E+02  0.00000000000E+00 0.  1.
         11    1    3    3    0    0 -0.11813581642E+02  0.37902661227E+01 -0.33516543581E+00  0.12411251533E+02  0.51100000000E-03 0. -1.
        -11    1    3    3    0    0  0.21883774597E+01  0.59700105225E+00  0.19115288632E+01  0.29663696699E+01  0.51100000000E-03 0.  1.
        -12    1    3    3    0    0  0.12303614109E+01  0.33755845992E+02  0.97282654591E+01  0.35151245734E+02  0.00000000000E+00 0.  1.
</event>
<event>
 7    1  0.5753610E-013  0.5052887E+02  0.7816164E-02  0.1300439E+00
        -11   -1    0    0    0    0  0.00000000000E+00  0.00000000000E+00  0.45593999997E+02  0.45594000000E+02  0.51100000000E-03 0.  1.
         11   -1    0    0    0    0 -0.00000000000E+00 -0.00000000000E+00 -0.45593999997E+02  0.45594000000E+02  0.51100000000E-03 0. -1.
    9900012    2    1    2    0    0 -0.33015149298E+02  0.13599077538E+02 -0.19448133457E+02  0.50528869561E+02  0.30000029519E+02 0.  0.
        -12    1    1    2    0    0  0.33015149298E+02 -0.13599077538E+02  0.19448133457E+02  0.40659130439E+02  0.00000000000E+00 0.  1.
         11    1    3    3    0    0 -0.17467922538E+02 -0.78710989167E+00 -0.16001826934E+02  0.23702453992E+02  0.51100000000E-03 0. -1.
        -11    1    3    3    0    0 -0.16806848549E+02  0.57982674899E+01 -0.36252545817E+01  0.18144766052E+02  0.51100000000E-03 0.  1.
        -12    1    3    3    0    0  0.12596217886E+01  0.85879199393E+01  0.17894805861E+00  0.86816495173E+01  0.00000000000E+00 0.  1.
</event>
<event>
 7    1  0.5753610E-013  0.5052891E+02  0.7816164E-02  0.1300439E+00
        -11   -1    0    0    0    0  0.00000000000E+00  0.00000000000E+00  0.45593999997E+02  0.45594000000E+02  0.51100000000E-03 0.  1.
         11   -1    0    0    0    0 -0.00000000000E+00 -0.00000000000E+00 -0.45593999997E+02  0.45594000000E+02  0.51100000000E-03 0. -1.
    9900012    2    1    2    0    0  0.21778531974E+02  0.33615583118E+02 -0.69892694519E+01  0.50528907895E+02  0.30000146038E+02 0.  0.
        -12    1    1    2    0    0 -0.21778531974E+02 -0.33615583118E+02  0.69892694519E+01  0.40659092105E+02  0.00000000000E+00 0.  1.
         11    1    3    3    0    0  0.46782086322E+01  0.27535581680E+02 -0.12320541461E+02  0.30526867455E+02  0.51100000000E-03 0. -1.
        -11    1    3    3    0    0  0.12062323400E+01  0.22410629664E+01  0.21776733562E+01  0.33495702985E+01  0.51100000000E-03 0.  1.
         12    1    3    3    0    0  0.15894091002E+02  0.38389384717E+01  0.31535986528E+01  0.16652470142E+02  0.00000000000E+00 0. -1.
</event>
<event>
 7    1  0.5753610E-013  0.5052886E+02  0.7816164E-02  0.1300439E+00
        -11   -1    0    0    0    0  0.00000000000E+00  0.00000000000E+00  0.45593999997E+02  0.45594000000E+02  0.51100000000E-03 0.  1.
         11   -1    0    0    0    0 -0.00000000000E+00 -0.00000000000E+00 -0.45593999997E+02  0.45594000000E+02  0.51100000000E-03 0. -1.
    9900012    2    1    2    0    0 -0.31129914545E+02 -0.20279604144E+02 -0.16517623119E+02  0.50528858380E+02  0.29999995531E+02 0.  0.
        -12    1    1    2    0    0  0.31129914545E+02  0.20279604144E+02  0.16517623119E+02  0.40659141620E+02  0.00000000000E+00 0.  1.
         11    1    3    3    0    0  0.17771618806E+01  0.35214267730E+00 -0.66657742688E+01  0.69075940586E+01  0.51100000000E-03 0. -1.
        -11    1    3    3    0    0  0.10844086580E+01 -0.25032452346E+01  0.19238069758E+01  0.33381450512E+01  0.51100000000E-03 0.  1.
         12    1    3    3    0    0 -0.33991485084E+02 -0.18128501587E+02 -0.11775655826E+02  0.40283119270E+02  0.00000000000E+00 0. -1.
</event>
<event>
 7    1  0.5753610E-013  0.5052895E+02  0.7816164E-02  0.1300438E+00
        -11   -1    0    0    0    0  0.00000000000E+00  0.00000000000E+00  0.45593999997E+02  0.45594000000E+02  0.51100000000E-03 0.  1.
         11   -1    0    0    0    0 -0.00000000000E+00 -0.00000000000E+00 -0.45593999997E+02  0.45594000000E+02  0.51100000000E-03 0. -1.
    9900012    2    1    2    0    0  0.19617727737E+02 -0.21367181828E+02 -0.28491170287E+02  0.50528948300E+02  0.30000268851E+02 0.  0.
        -12    1    1    2    0    0 -0.19617727737E+02  0.21367181828E+02  0.28491170287E+02  0.40659051700E+02  0.00000000000E+00 0.  1.
         11    1    3    3    0    0  0.71443439693E+01 -0.85857004196E+01 -0.10819036482E+01  0.11221694088E+02  0.51100000000E-03 0. -1.
        -11    1    3    3    0    0  0.15259806610E+02 -0.16416940366E+02 -0.26373275901E+02  0.34611086530E+02  0.51100000000E-03 0.  1.
        -12    1    3    3    0    0 -0.27864228427E+01  0.36354589571E+01 -0.10359907374E+01  0.46961676817E+01  0.00000000000E+00 0.  1.
</event>
<event>
 7    1  0.5753610E-013  0.5052887E+02  0.7816164E-02  0.1300439E+00
        -11   -1    0    0    0    0  0.00000000000E+00  0.00000000000E+00  0.45593999997E+02  0.45594000000E+02  0.51100000000E-03 0.  1.
         11   -1    0    0    0    0 -0.00000000000E+00 -0.00000000000E+00 -0.45593999997E+02  0.45594000000E+02  0.51100000000E-03 0. -1.
    9900012    2    1    2    0    0  0.11484635664E+02 -0.70766916162E+01 -0.38356079381E+02  0.50528865158E+02  0.30000016135E+02 0.  0.
        -12    1    1    2    0    0 -0.11484635664E+02  0.70766916162E+01  0.38356079381E+02  0.40659134842E+02  0.00000000000E+00 0.  1.
         11    1    3    3    0    0  0.36924500166E+01 -0.90718572712E+01 -0.19104881802E+02  0.21469263853E+02  0.51100000000E-03 0. -1.
        -11    1    3    3    0    0  0.17167646281E+01 -0.71367191276E+01 -0.52671047312E+00  0.73591755570E+01  0.51100000000E-03 0.  1.
        -12    1    3    3    0    0  0.60754210193E+01  0.91318847827E+01 -0.18724487106E+02  0.21700425748E+02  0.00000000000E+00 0.  1.
</event>
<event>
 7    1  0.5753610E-013  0.5052887E+02  0.7816164E-02  0.1300439E+00
        -11   -1    0    0    0    0  0.00000000000E+00  0.00000000000E+00  0.45593999997E+02  0.45594000000E+02  0.51100000000E-03 0. -1.
         11   -1    0    0    0    0 -0.00000000000E+00 -0.00000000000E+00 -0.45593999997E+02  0.45594000000E+02  0.51100000000E-03 0.  1.
    9900012    2    1    2    0    0 -0.45210330536E+00  0.33292853466E+02  0.23335515175E+02  0.50528871162E+02  0.30000034385E+02 0.  0.
        -12    1    1    2    0    0  0.45210330536E+00 -0.33292853466E+02 -0.23335515175E+02  0.40659128838E+02  0.00000000000E+00 0.  1.
         11    1    3    3    0    0  0.14359108713E+01  0.30407503637E+02  0.21360211089E+02  0.37187857366E+02  0.51100000000E-03 0. -1.
        -11    1    3    3    0    0  0.25301516417E+01  0.65540999103E+01 -0.59210686664E+00  0.70504243678E+01  0.51100000000E-03 0.  1.
        -12    1    3    3    0    0 -0.44181658183E+01 -0.36687500810E+01  0.25674109533E+01  0.62905894285E+01  0.00000000000E+00 0.  1.
</event>
<event>
 7    1  0.5753610E-013  0.5052886E+02  0.7816164E-02  0.1300439E+00
        -11   -1    0    0    0    0  0.00000000000E+00  0.00000000000E+00  0.45593999997E+02  0.45594000000E+02  0.51100000000E-03 0.  1.
         11   -1    0    0    0    0 -0.00000000000E+00 -0.00000000000E+00 -0.45593999997E+02  0.45594000000E+02  0.51100000000E-03 0. -1.
    9900012    2    1    2    0    0 -0.28829778004E+02 -0.28145965037E+02  0.54602464139E+01  0.50528859103E+02  0.29999997729E+02 0.  0.
        -12    1    1    2    0    0  0.28829778004E+02  0.28145965037E+02 -0.54602464139E+01  0.40659140897E+02  0.00000000000E+00 0.  1.
         11    1    3    3    0    0 -0.78426341603E+01 -0.15843526540E+02 -0.68655607914E+01  0.18964708514E+02  0.51100000000E-03 0. -1.
        -11    1    3    3    0    0 -0.91772231717E+00 -0.85993674164E+01  0.38228350659E+01  0.94554430048E+01  0.51100000000E-03 0.  1.
        -12    1    3    3    0    0 -0.20069421526E+02 -0.37030710811E+01  0.85029721394E+01  0.22108707584E+02  0.00000000000E+00 0.  1.
</event>
<event>
 7    1  0.5753610E-013  0.5052885E+02  0.7816164E-02  0.1300439E+00
        -11   -1    0    0    0    0  0.00000000000E+00  0.00000000000E+00  0.45593999997E+02  0.45594000000E+02  0.51100000000E-03 0.  1.
         11   -1    0    0    0    0 -0.00000000000E+00 -0.00000000000E+00 -0.45593999997E+02  0.45594000000E+02  0.51100000000E-03 0. -1.
    9900012    2    1    2    0    0  0.37857573209E+02  0.39150683792E+01 -0.14305337081E+02  0.50528852460E+02  0.29999977538E+02 0.  0.
        -12    1    1    2    0    0 -0.37857573209E+02 -0.39150683792E+01  0.14305337081E+02  0.40659147540E+02  0.00000000000E+00 0.  1.
         11    1    3    3    0    0  0.63619491340E+01  0.43652455366E+01 -0.12724908161E+02  0.14881298779E+02  0.51100000000E-03 0. -1.
        -11    1    3    3    0    0  0.16100645312E+01  0.13992948381E+01 -0.50716302497E+01  0.55019785068E+01  0.51100000000E-03 0.  1.
         12    1    3    3    0    0  0.29885559543E+02 -0.18494719954E+01  0.34912013292E+01  0.30145575175E+02  0.00000000000E+00 0. -1.
</event>
<event>
 7    1  0.5753610E-013  0.5052886E+02  0.7816164E-02  0.1300439E+00
        -11   -1    0    0    0    0  0.00000000000E+00  0.00000000000E+00  0.45593999997E+02  0.45594000000E+02  0.51100000000E-03 0.  1.
         11   -1    0    0    0    0 -0.00000000000E+00 -0.00000000000E+00 -0.45593999997E+02  0.45594000000E+02  0.51100000000E-03 0. -1.
    9900012    2    1    2    0    0  0.28163082526E+02  0.21136703973E+02 -0.20328458135E+02  0.50528859793E+02  0.29999999828E+02 0.  0.
        -12    1    1    2    0    0 -0.28163082526E+02 -0.21136703973E+02  0.20328458135E+02  0.40659140207E+02  0.00000000000E+00 0.  1.
         11    1    3    3    0    0  0.10332722248E+02  0.16950579305E+02 -0.11663839566E+02  0.23024605133E+02  0.51100000000E-03 0. -1.
        -11    1    3    3    0    0 -0.35107298192E+01  0.15204846712E+01 -0.39252958334E+01  0.54813360725E+01  0.51100000000E-03 0.  1.
         12    1    3    3    0    0  0.21341090098E+02  0.26656399960E+01 -0.47393227355E+01  0.22022918588E+02  0.00000000000E+00 0. -1.
</event>
<event>
 7    1  0.5753610E-013  0.5052882E+02  0.7816164E-02  0.1300439E+00
        -11   -1    0    0    0    0  0.00000000000E+00  0.00000000000E+00  0.45593999997E+02  0.45594000000E+02  0.51100000000E-03 0. -1.
         11   -1    0    0    0    0 -0.00000000000E+00 -0.00000000000E+00 -0.45593999997E+02  0.45594000000E+02  0.51100000000E-03 0.  1.
    9900012    2    1    2    0    0 -0.19453682990E+02  0.34942164833E+02  0.73326755508E+01  0.50528821506E+02  0.29999883450E+02 0.  0.
        -12    1    1    2    0    0  0.19453682990E+02 -0.34942164833E+02 -0.73326755508E+01  0.40659178494E+02  0.00000000000E+00 0.  1.
         11    1    3    3    0    0 -0.47670354138E+01  0.83212088899E+01  0.11925523429E+02  0.15303112538E+02  0.51100000000E-03 0. -1.
        -11    1    3    3    0    0  0.37780214529E+01  0.24317614247E+01 -0.51248026229E+00  0.45221174250E+01  0.51100000000E-03 0.  1.
        -12    1    3    3    0    0 -0.18464669029E+02  0.24189194518E+02 -0.40803676159E+01  0.30703591543E+02  0.00000000000E+00 0.  1.
</event>
<event>
 7    1  0.5753610E-013  0.5052886E+02  0.7816164E-02  0.1300439E+00
        -11   -1    0    0    0    0  0.00000000000E+00  0.00000000000E+00  0.45593999997E+02  0.45594000000E+02  0.51100000000E-03 0.  1.
         11   -1    0    0    0    0 -0.00000000000E+00 -0.00000000000E+00 -0.45593999997E+02  0.45594000000E+02  0.51100000000E-03 0. -1.
    9900012    2    1    2    0    0  0.19762407130E+02  0.31277357933E+01 -0.35395338436E+02  0.50528862653E+02  0.30000008521E+02 0.  0.
        -12    1    1    2    0    0 -0.19762407130E+02 -0.31277357933E+01  0.35395338436E+02  0.40659137347E+02  0.00000000000E+00 0.  1.
         11    1    3    3    0    0  0.27235549166E+01  0.61780106465E+01 -0.95085439951E+01  0.11661817015E+02  0.51100000000E-03 0. -1.
        -11    1    3    3    0    0  0.18543850093E+02  0.57951424153E+01 -0.13875281461E+02  0.23874285073E+02  0.51100000000E-03 0.  1.
        -12    1    3    3    0    0 -0.15049978793E+01 -0.88454172686E+01 -0.12011512980E+02  0.14992760564E+02  0.00000000000E+00 0.  1.
</event>
<event>
 7    1  0.5753610E-013  0.5052887E+02  0.7816164E-02  0.1300439E+00
        -11   -1    0    0    0    0  0.00000000000E+00  0.00000000000E+00  0.45593999997E+02  0.45594000000E+02  0.51100000000E-03 0.  1.
         11   -1    0    0    0    0 -0.00000000000E+00 -0.00000000000E+00 -0.45593999997E+02  0.45594000000E+02  0.51100000000E-03 0. -1.
    9900012    2    1    2    0    0  0.89596061397E+01 -0.28731657750E+02 -0.27338294971E+02  0.50528867309E+02  0.30000022674E+02 0.  0.
        -12    1    1    2    0    0 -0.89596061397E+01  0.28731657750E+02  0.27338294971E+02  0.40659132691E+02  0.00000000000E+00 0.  1.
         11    1    3    3    0    0  0.43603069200E+01 -0.53979794622E+01 -0.15415391252E+01  0.71082207230E+01  0.51100000000E-03 0. -1.
        -11    1    3    3    0    0  0.88163317401E+00  0.56084279050E+01 -0.32230130354E+01  0.65283653318E+01  0.51100000000E-03 0.  1.
         12    1    3    3    0    0  0.37176660457E+01 -0.28942106193E+02 -0.22573742810E+02  0.36892281255E+02  0.00000000000E+00 0. -1.
</event>
<event>
 7    1  0.5753610E-013  0.5052886E+02  0.7816164E-02  0.1300439E+00
        -11   -1    0    0    0    0  0.00000000000E+00  0.00000000000E+00  0.45593999997E+02  0.45594000000E+02  0.51100000000E-03 0. -1.
         11   -1    0    0    0    0 -0.00000000000E+00 -0.00000000000E+00 -0.45593999997E+02  0.45594000000E+02  0.51100000000E-03 0.  1.
    9900012    2    1    2    0    0 -0.27882847325E+01  0.38564587183E+02  0.12576325816E+02  0.50528857272E+02  0.29999992163E+02 0.  0.
        -12    1    1    2    0    0  0.27882847325E+01 -0.38564587183E+02 -0.12576325816E+02  0.40659142728E+02  0.00000000000E+00 0.  1.
         11    1    3    3    0    0 -0.94914886424E+01  0.10368236650E+02  0.82462775461E+00  0.14080791848E+02  0.51100000000E-03 0.  1.
        -11    1    3    3    0    0  0.56415447609E+01 -0.36889637653E+00  0.32216125132E+00  0.56627643390E+01  0.51100000000E-03 0. -1.
         12    1    3    3    0    0  0.10616591490E+01  0.28565246910E+02  0.11429536810E+02  0.30785301085E+02  0.00000000000E+00 0. -1.
</event>
<event>
 7    1  0.5753610E-013  0.5052886E+02  0.7816164E-02  0.1300439E+00
        -11   -1    0    0    0    0  0.00000000000E+00  0.00000000000E+00  0.45593999997E+02  0.45594000000E+02  0.51100000000E-03 0. -1.
         11   -1    0    0    0    0 -0.00000000000E+00 -0.00000000000E+00 -0.45593999997E+02  0.45594000000E+02  0.51100000000E-03 0.  1.
    9900012    2    1    2    0    0  0.39402563152E+02  0.19634255567E+01  0.98360781340E+01  0.50528862578E+02  0.30000008292E+02 0.  0.
        -12    1    1    2    0    0 -0.39402563152E+02 -0.19634255567E+01 -0.98360781340E+01  0.40659137422E+02  0.00000000000E+00 0.  1.
         11    1    3    3    0    0  0.13491844255E+02 -0.14534032473E+01  0.77140428389E+01  0.15609250449E+02  0.51100000000E-03 0. -1.
        -11    1    3    3    0    0 -0.41799759308E+01  0.11221637879E+00  0.20292385425E+01  0.46478597893E+01  0.51100000000E-03 0.  1.
         12    1    3    3    0    0  0.30090694828E+02  0.33046124251E+01  0.92796752680E-01  0.30271752340E+02  0.00000000000E+00 0. -1.
</event>
<event>
 7    1  0.5753610E-013  0.5052888E+02  0.7816164E-02  0.1300439E+00
        -11   -1    0    0    0    0  0.00000000000E+00  0.00000000000E+00  0.45593999997E+02  0.45594000000E+02  0.51100000000E-03 0.  1.
         11   -1    0    0    0    0 -0.00000000000E+00 -0.00000000000E+00 -0.45593999997E+02  0.45594000000E+02  0.51100000000E-03 0. -1.
    9900012    2    1    2    0    0  0.32477345231E+02 -0.17576761899E+02 -0.17013047616E+02  0.50528876776E+02  0.30000051449E+02 0.  0.
        -12    1    1    2    0    0 -0.32477345231E+02  0.17576761899E+02  0.17013047616E+02  0.40659123224E+02  0.00000000000E+00 0.  1.
         11    1    3    3    0    0  0.12574726773E+02 -0.14983902512E-01 -0.21737455265E+01  0.12761236140E+02  0.51100000000E-03 0. -1.
        -11    1    3    3    0    0 -0.27743846788E+01  0.69823887055E-01  0.28941404981E+01  0.40097550056E+01  0.51100000000E-03 0.  1.
         12    1    3    3    0    0  0.22677003137E+02 -0.17631601884E+02 -0.17733442588E+02  0.33757885631E+02  0.00000000000E+00 0. -1.
</event>
<event>
 7    1  0.5753610E-013  0.5052877E+02  0.7816164E-02  0.1300439E+00
        -11   -1    0    0    0    0  0.00000000000E+00  0.00000000000E+00  0.45593999997E+02  0.45594000000E+02  0.51100000000E-03 0.  1.
         11   -1    0    0    0    0 -0.00000000000E+00 -0.00000000000E+00 -0.45593999997E+02  0.45594000000E+02  0.51100000000E-03 0. -1.
    9900012    2    1    2    0    0 -0.25298801748E+01 -0.40267425802E+02 -0.50306230328E+01  0.50528769282E+02  0.29999724710E+02 0.  0.
        -12    1    1    2    0    0  0.25298801748E+01  0.40267425802E+02  0.50306230328E+01  0.40659230718E+02  0.00000000000E+00 0.  1.
         11    1    3    3    0    0  0.52863764715E+01 -0.14826919148E+02 -0.10290956527E+02  0.18806570504E+02  0.51100000000E-03 0. -1.
        -11    1    3    3    0    0 -0.72711605969E+01 -0.20308662003E+02 -0.32049456288E+01  0.21807870266E+02  0.51100000000E-03 0.  1.
        -12    1    3    3    0    0 -0.54509604939E+00 -0.51318446511E+01  0.84652791229E+01  0.99143285126E+01  0.00000000000E+00 0.  1.
</event>
<event>
 7    1  0.5753610E-013  0.5052890E+02  0.7816164E-02  0.1300439E+00
        -11   -1    0    0    0    0  0.00000000000E+00  0.00000000000E+00  0.45593999997E+02  0.45594000000E+02  0.51100000000E-03 0.  1.
         11   -1    0    0    0    0 -0.00000000000E+00 -0.00000000000E+00 -0.45593999997E+02  0.45594000000E+02  0.51100000000E-03 0. -1.
    9900012    2    1    2    0    0  0.34718277336E+02 -0.58128074000E+01 -0.20347357061E+02  0.50528899538E+02  0.30000120635E+02 0.  0.
        -12    1    1    2    0    0 -0.34718277336E+02  0.58128074000E+01  0.20347357061E+02  0.40659100462E+02  0.00000000000E+00 0.  1.
         11    1    3    3    0    0  0.20110704192E+02 -0.15024121218E+01 -0.17827703292E+02  0.26916995936E+02  0.51100000000E-03 0. -1.
        -11    1    3    3    0    0  0.16921336531E+02 -0.67209647274E+01  0.16348384889E+01  0.18280473025E+02  0.51100000000E-03 0.  1.
         12    1    3    3    0    0 -0.23137633870E+01  0.24105694492E+01 -0.41544922582E+01  0.53314305776E+01  0.00000000000E+00 0. -1.
</event>
<event>
 7    1  0.5753610E-013  0.5052886E+02  0.7816164E-02  0.1300439E+00
        -11   -1    0    0    0    0  0.00000000000E+00  0.00000000000E+00  0.45593999997E+02  0.45594000000E+02  0.51100000000E-03 0. -1.
         11   -1    0    0    0    0 -0.00000000000E+00 -0.00000000000E+00 -0.45593999997E+02  0.45594000000E+02  0.51100000000E-03 0.  1.
    9900012    2    1    2    0    0 -0.23274326189E+02  0.32354702329E+02  0.80401981815E+01  0.50528858234E+02  0.29999995089E+02 0.  0.
        -12    1    1    2    0    0  0.23274326189E+02 -0.32354702329E+02 -0.80401981815E+01  0.40659141766E+02  0.00000000000E+00 0.  1.
         11    1    3    3    0    0 -0.90385327480E+00  0.10240344245E+02  0.11969159952E+02  0.15777908328E+02  0.51100000000E-03 0. -1.
        -11    1    3    3    0    0 -0.10679012113E+02  0.12291224032E+02  0.50361159551E+01  0.17043413745E+02  0.51100000000E-03 0.  1.
        -12    1    3    3    0    0 -0.11691460801E+02  0.98231340513E+01 -0.89650777253E+01  0.17707536161E+02  0.00000000000E+00 0.  1.
</event>
<event>
 7    1  0.5753610E-013  0.5052886E+02  0.7816164E-02  0.1300439E+00
        -11   -1    0    0    0    0  0.00000000000E+00  0.00000000000E+00  0.45593999997E+02  0.45594000000E+02  0.51100000000E-03 0. -1.
         11   -1    0    0    0    0 -0.00000000000E+00 -0.00000000000E+00 -0.45593999997E+02  0.45594000000E+02  0.51100000000E-03 0.  1.
    9900012    2    1    2    0    0  0.14673291955E+02  0.36504952409E+02  0.10259068121E+02  0.50528861718E+02  0.30000005677E+02 0.  0.
        -12    1    1    2    0    0 -0.14673291955E+02 -0.36504952409E+02 -0.10259068121E+02  0.40659138282E+02  0.00000000000E+00 0.  1.
         11    1    3    3    0    0  0.41772894414E+01  0.78432507507E+01  0.89070007017E+01  0.12581772179E+02  0.51100000000E-03 0. -1.
        -11    1    3    3    0    0  0.15038249950E+02  0.95469099919E+01  0.35967626400E+01  0.18172208278E+02  0.51100000000E-03 0.  1.
        -12    1    3    3    0    0 -0.45422474367E+01  0.19114791666E+02 -0.22446952211E+01  0.19774881260E+02  0.00000000000E+00 0.  1.
</event>
<event>
 7    1  0.5753610E-013  0.5052887E+02  0.7816164E-02  0.1300439E+00
        -11   -1    0    0    0    0  0.00000000000E+00  0.00000000000E+00  0.45593999997E+02  0.45594000000E+02  0.51100000000E-03 0.  1.
         11   -1    0    0    0    0 -0.00000000000E+00 -0.00000000000E+00 -0.45593999997E+02  0.45594000000E+02  0.51100000000E-03 0. -1.
    9900012    2    1    2    0    0  0.38895416088E+02  0.10517558969E+02 -0.54491028168E+01  0.50528866207E+02  0.30000019321E+02 0.  0.
        -12    1    1    2    0    0 -0.38895416088E+02 -0.10517558969E+02  0.54491028168E+01  0.40659133793E+02  0.00000000000E+00 0.  1.
         11    1    3    3    0    0  0.34756340058E+02  0.76546249219E+01 -0.42246036343E+01  0.35839136891E+02  0.51100000000E-03 0. -1.
        -11    1    3    3    0    0  0.67425655415E+01 -0.35382026443E+01 -0.15542394546E+01  0.77715332192E+01  0.51100000000E-03 0.  1.
         12    1    3    3    0    0 -0.26034895119E+01  0.64011366916E+01  0.32974027203E+00  0.69181960965E+01  0.00000000000E+00 0. -1.
</event>
<event>
 7    1  0.5753610E-013  0.5052885E+02  0.7816164E-02  0.1300439E+00
        -11   -1    0    0    0    0  0.00000000000E+00  0.00000000000E+00  0.45593999997E+02  0.45594000000E+02  0.51100000000E-03 0. -1.
         11   -1    0    0    0    0 -0.00000000000E+00 -0.00000000000E+00 -0.45593999997E+02  0.45594000000E+02  0.51100000000E-03 0.  1.
    9900012    2    1    2    0    0  0.27569032697E+02  0.73083391751E+01  0.28977633055E+02  0.50528848474E+02  0.29999965421E+02 0.  0.
        -12    1    1    2    0    0 -0.27569032697E+02 -0.73083391751E+01 -0.28977633055E+02  0.40659151526E+02  0.00000000000E+00 0.  1.
         11    1    3    3    0    0  0.11608649632E+02  0.11925170823E+02  0.76223781070E+01  0.18304947247E+02  0.51100000000E-03 0. -1.
        -11    1    3    3    0    0  0.29258704265E+01 -0.33664761103E+01 -0.24249922383E+01  0.50768559928E+01  0.51100000000E-03 0.  1.
         12    1    3    3    0    0  0.13034512639E+02 -0.12503555378E+01  0.23780247186E+02  0.27147045234E+02  0.00000000000E+00 0. -1.
</event>
<event>
 7    1  0.5753610E-013  0.5052886E+02  0.7816164E-02  0.1300439E+00
        -11   -1    0    0    0    0  0.00000000000E+00  0.00000000000E+00  0.45593999997E+02  0.45594000000E+02  0.51100000000E-03 0. -1.
         11   -1    0    0    0    0 -0.00000000000E+00 -0.00000000000E+00 -0.45593999997E+02  0.45594000000E+02  0.51100000000E-03 0.  1.
    9900012    2    1    2    0    0 -0.23714205389E+02  0.24390443236E+02  0.22268994016E+02  0.50528863844E+02  0.30000012140E+02 0.  0.
        -12    1    1    2    0    0  0.23714205389E+02 -0.24390443236E+02 -0.22268994016E+02  0.40659136156E+02  0.00000000000E+00 0.  1.
         11    1    3    3    0    0 -0.19712022732E+01 -0.27470711016E+01 -0.61778638049E+00  0.34371060956E+01  0.51100000000E-03 0. -1.
        -11    1    3    3    0    0 -0.31732274280E+01  0.19337217349E+02  0.51683787315E+01  0.20265968669E+02  0.51100000000E-03 0.  1.
         12    1    3    3    0    0 -0.18569775687E+02  0.78002969890E+01  0.17718401665E+02  0.26825789080E+02  0.00000000000E+00 0. -1.
</event>
<event>
 7    1  0.5753610E-013  0.5052885E+02  0.7816164E-02  0.1300439E+00
        -11   -1    0    0    0    0  0.00000000000E+00  0.00000000000E+00  0.45593999997E+02  0.45594000000E+02  0.51100000000E-03 0. -1.
         11   -1    0    0    0    0 -0.00000000000E+00 -0.00000000000E+00 -0.45593999997E+02  0.45594000000E+02  0.51100000000E-03 0.  1.
    9900012    2    1    2    0    0  0.24132513832E+02 -0.30205592458E+02  0.12586116422E+02  0.50528851384E+02  0.29999974266E+02 0.  0.
        -12    1    1    2    0    0 -0.24132513832E+02  0.30205592458E+02 -0.12586116422E+02  0.40659148616E+02  0.00000000000E+00 0.  1.
         11    1    3    3    0    0 -0.25544980279E+01  0.34791688955E+00  0.69524892715E+01  0.74150936385E+01  0.51100000000E-03 0. -1.
        -11    1    3    3    0    0  0.21051585824E+01 -0.10622033592E+02  0.35604268174E+01  0.11398944235E+02  0.51100000000E-03 0.  1.
         12    1    3    3    0    0  0.24581853278E+02 -0.19931475756E+02  0.20732003333E+01  0.31714813510E+02  0.00000000000E+00 0. -1.
</event>
<event>
 7    1  0.5753610E-013  0.5052886E+02  0.7816164E-02  0.1300439E+00
        -11   -1    0    0    0    0  0.00000000000E+00  0.00000000000E+00  0.45593999997E+02  0.45594000000E+02  0.51100000000E-03 0. -1.
         11   -1    0    0    0    0 -0.00000000000E+00 -0.00000000000E+00 -0.45593999997E+02  0.45594000000E+02  0.51100000000E-03 0.  1.
    9900012    2    1    2    0    0 -0.56712241211E+01 -0.35990002965E+02 -0.18047787290E+02  0.50528859299E+02  0.29999998325E+02 0.  0.
        -12    1    1    2    0    0  0.56712241211E+01  0.35990002965E+02  0.18047787290E+02  0.40659140701E+02  0.00000000000E+00 0.  1.
         11    1    3    3    0    0 -0.16750245857E+01  0.25357177161E+01  0.39086938149E+00  0.30640415848E+01  0.51100000000E-03 0.  1.
        -11    1    3    3    0    0  0.70202048127E+01 -0.68716165695E+01 -0.15883735659E+01  0.99511467046E+01  0.51100000000E-03 0. -1.
         12    1    3    3    0    0 -0.11016404348E+02 -0.31654104112E+02 -0.16850283106E+02  0.37513671010E+02  0.00000000000E+00 0. -1.
</event>
<event>
 7    1  0.5753610E-013  0.5052884E+02  0.7816164E-02  0.1300439E+00
        -11   -1    0    0    0    0  0.00000000000E+00  0.00000000000E+00  0.45593999997E+02  0.45594000000E+02  0.51100000000E-03 0.  1.
         11   -1    0    0    0    0 -0.00000000000E+00 -0.00000000000E+00 -0.45593999997E+02  0.45594000000E+02  0.51100000000E-03 0. -1.
    9900012    2    1    2    0    0  0.51147731774E+01 -0.30959633478E+02 -0.25855504257E+02  0.50528844695E+02  0.29999953934E+02 0.  0.
        -12    1    1    2    0    0 -0.51147731774E+01  0.30959633478E+02  0.25855504257E+02  0.40659155305E+02  0.00000000000E+00 0.  1.
         11    1    3    3    0    0 -0.85876514334E+01 -0.18085468232E+02 -0.16092312587E+02  0.25686464198E+02  0.51100000000E-03 0. -1.
        -11    1    3    3    0    0  0.20632488043E+01 -0.77674760149E+01  0.11135330128E+01  0.81136080323E+01  0.51100000000E-03 0.  1.
         12    1    3    3    0    0  0.11639175807E+02 -0.51066892309E+01 -0.10876724683E+02  0.16728772465E+02  0.00000000000E+00 0. -1.
</event>
<event>
 7    1  0.5753610E-013  0.5052886E+02  0.7816164E-02  0.1300439E+00
        -11   -1    0    0    0    0  0.00000000000E+00  0.00000000000E+00  0.45593999997E+02  0.45594000000E+02  0.51100000000E-03 0.  1.
         11   -1    0    0    0    0 -0.00000000000E+00 -0.00000000000E+00 -0.45593999997E+02  0.45594000000E+02  0.51100000000E-03 0. -1.
    9900012    2    1    2    0    0 -0.68111675984E+01 -0.22600108686E+02 -0.33106021007E+02  0.50528861499E+02  0.30000005013E+02 0.  0.
        -12    1    1    2    0    0  0.68111675984E+01  0.22600108686E+02  0.33106021007E+02  0.40659138501E+02  0.00000000000E+00 0.  1.
         11    1    3    3    0    0 -0.13720464892E+02 -0.10088240942E+02 -0.26452694723E+02  0.31460591548E+02  0.51100000000E-03 0. -1.
        -11    1    3    3    0    0 -0.20316932021E+01 -0.34712383517E+01  0.11075174034E+01  0.41717943408E+01  0.51100000000E-03 0.  1.
        -12    1    3    3    0    0  0.89409904961E+01 -0.90406293927E+01 -0.77608436878E+01  0.14896475611E+02  0.00000000000E+00 0.  1.
</event>
<event>
 7    1  0.5753610E-013  0.5052886E+02  0.7816164E-02  0.1300439E+00
        -11   -1    0    0    0    0  0.00000000000E+00  0.00000000000E+00  0.45593999997E+02  0.45594000000E+02  0.51100000000E-03 0.  1.
         11   -1    0    0    0    0 -0.00000000000E+00 -0.00000000000E+00 -0.45593999997E+02  0.45594000000E+02  0.51100000000E-03 0. -1.
    9900012    2    1    2    0    0  0.16296249327E+02  0.35470701266E+01 -0.37081207689E+02  0.50528863115E+02  0.30000009923E+02 0.  0.
        -12    1    1    2    0    0 -0.16296249327E+02 -0.35470701266E+01  0.37081207689E+02  0.40659136885E+02  0.00000000000E+00 0.  1.
         11    1    3    3    0    0 -0.13768008677E+01  0.23079930173E+01 -0.27790926042E+01  0.38659757321E+01  0.51100000000E-03 0.  1.
        -11    1    3    3    0    0  0.29271629860E+01 -0.11669550347E+02 -0.12594257651E+02  0.17417290676E+02  0.51100000000E-03 0. -1.
         12    1    3    3    0    0  0.14745887208E+02  0.12908627456E+02 -0.21707857434E+02  0.29245596706E+02  0.00000000000E+00 0. -1.
</event>
<event>
 7    1  0.5753610E-013  0.5052886E+02  0.7816164E-02  0.1300439E+00
        -11   -1    0    0    0    0  0.00000000000E+00  0.00000000000E+00  0.45593999997E+02  0.45594000000E+02  0.51100000000E-03 0.  1.
         11   -1    0    0    0    0 -0.00000000000E+00 -0.00000000000E+00 -0.45593999997E+02  0.45594000000E+02  0.51100000000E-03 0. -1.
    9900012    2    1    2    0    0 -0.11727778186E+02 -0.27878648477E+02 -0.27173627441E+02  0.50528857727E+02  0.29999993547E+02 0.  0.
        -12    1    1    2    0    0  0.11727778186E+02  0.27878648477E+02  0.27173627441E+02  0.40659142273E+02  0.00000000000E+00 0.  1.
         11    1    3    3    0    0 -0.44252200853E-01 -0.28056980416E+02 -0.18967746087E+02  0.33866967686E+02  0.51100000000E-03 0. -1.
        -11    1    3    3    0    0 -0.13773767914E+01 -0.52809423892E-01  0.18191242044E+01  0.22823603556E+01  0.51100000000E-03 0.  1.
        -12    1    3    3    0    0 -0.10306149194E+02  0.23114136361E+00 -0.10025005558E+02  0.14379529686E+02  0.00000000000E+00 0.  1.
</event>
<event>
 7    1  0.5753610E-013  0.5052886E+02  0.7816164E-02  0.1300439E+00
        -11   -1    0    0    0    0  0.00000000000E+00  0.00000000000E+00  0.45593999997E+02  0.45594000000E+02  0.51100000000E-03 0.  1.
         11   -1    0    0    0    0 -0.00000000000E+00 -0.00000000000E+00 -0.45593999997E+02  0.45594000000E+02  0.51100000000E-03 0. -1.
    9900012    2    1    2    0    0  0.20002325360E+02  0.69102604943E+01 -0.34717730491E+02  0.50528861662E+02  0.30000005508E+02 0.  0.
        -12    1    1    2    0    0 -0.20002325360E+02 -0.69102604943E+01  0.34717730491E+02  0.40659138338E+02  0.00000000000E+00 0.  1.
         11    1    3    3    0    0  0.86182364238E+01 -0.43733617994E+01 -0.15597095430E+02  0.18348560668E+02  0.51100000000E-03 0. -1.
        -11    1    3    3    0    0 -0.52816205183E+01  0.17233309846E+00 -0.69918343915E+01  0.87641863522E+01  0.51100000000E-03 0.  1.
         12    1    3    3    0    0  0.16665709455E+02  0.11111289195E+02 -0.12128800670E+02  0.23416114642E+02  0.00000000000E+00 0. -1.
</event>
<event>
 7    1  0.5753610E-013  0.5052887E+02  0.7816164E-02  0.1300439E+00
        -11   -1    0    0    0    0  0.00000000000E+00  0.00000000000E+00  0.45593999997E+02  0.45594000000E+02  0.51100000000E-03 0.  1.
         11   -1    0    0    0    0 -0.00000000000E+00 -0.00000000000E+00 -0.45593999997E+02  0.45594000000E+02  0.51100000000E-03 0. -1.
    9900012    2    1    2    0    0  0.18478847192E+02 -0.68267342650E+00 -0.36210927409E+02  0.50528866950E+02  0.30000021581E+02 0.  0.
        -12    1    1    2    0    0 -0.18478847192E+02  0.68267342650E+00  0.36210927409E+02  0.40659133050E+02  0.00000000000E+00 0.  1.
         11    1    3    3    0    0  0.32861030670E+01 -0.78880714330E+01 -0.63283752825E+01  0.10633366272E+02  0.51100000000E-03 0. -1.
        -11    1    3    3    0    0  0.57134841098E+01  0.94029474549E+00  0.19388374111E+01  0.61063201398E+01  0.51100000000E-03 0.  1.
         12    1    3    3    0    0  0.94792600152E+01  0.62651032610E+01 -0.31821389538E+02  0.33789180538E+02  0.00000000000E+00 0. -1.
</event>
<event>
 7    1  0.5753610E-013  0.5052885E+02  0.7816164E-02  0.1300439E+00
        -11   -1    0    0    0    0  0.00000000000E+00  0.00000000000E+00  0.45593999997E+02  0.45594000000E+02  0.51100000000E-03 0.  1.
         11   -1    0    0    0    0 -0.00000000000E+00 -0.00000000000E+00 -0.45593999997E+02  0.45594000000E+02  0.51100000000E-03 0. -1.
    9900012    2    1    2    0    0 -0.39555666428E+02  0.91053876727E+00  0.93641000579E+01  0.50528853461E+02  0.29999980579E+02 0.  0.
        -12    1    1    2    0    0  0.39555666428E+02 -0.91053876727E+00 -0.93641000579E+01  0.40659146539E+02  0.00000000000E+00 0.  1.
         11    1    3    3    0    0 -0.15922247387E+02 -0.78637089372E+01 -0.39413013368E+01  0.18190374834E+02  0.51100000000E-03 0. -1.
        -11    1    3    3    0    0 -0.20881664580E+02  0.25924727404E+01  0.50042122893E+01  0.21628845819E+02  0.51100000000E-03 0.  1.
        -12    1    3    3    0    0 -0.27517544608E+01  0.61817749641E+01  0.83011891054E+01  0.10709632808E+02  0.00000000000E+00 0.  1.
</event>
<event>
 7    1  0.5753610E-013  0.5052899E+02  0.7816164E-02  0.1300438E+00
        -11   -1    0    0    0    0  0.00000000000E+00  0.00000000000E+00  0.45593999997E+02  0.45594000000E+02  0.51100000000E-03 0. -1.
         11   -1    0    0    0    0 -0.00000000000E+00 -0.00000000000E+00 -0.45593999997E+02  0.45594000000E+02  0.51100000000E-03 0.  1.
    9900012    2    1    2    0    0  0.14390274214E+02  0.26935369154E+02  0.26843261870E+02  0.50528993479E+02  0.30000406177E+02 0.  0.
        -12    1    1    2    0    0 -0.14390274214E+02 -0.26935369154E+02 -0.26843261870E+02  0.40659006521E+02  0.00000000000E+00 0.  1.
         11    1    3    3    0    0 -0.98509569577E+00  0.16587527079E+02  0.11319127529E+02  0.20105698606E+02  0.51100000000E-03 0. -1.
        -11    1    3    3    0    0 -0.24104323127E+01 -0.33676612239E-01 -0.21915505148E+01  0.32579459738E+01  0.51100000000E-03 0.  1.
        -12    1    3    3    0    0  0.17785802222E+02  0.10381518687E+02  0.17715684856E+02  0.27165348900E+02  0.00000000000E+00 0.  1.
</event>
<event>
 7    1  0.5753610E-013  0.5052886E+02  0.7816164E-02  0.1300439E+00
        -11   -1    0    0    0    0  0.00000000000E+00  0.00000000000E+00  0.45593999997E+02  0.45594000000E+02  0.51100000000E-03 0.  1.
         11   -1    0    0    0    0 -0.00000000000E+00 -0.00000000000E+00 -0.45593999997E+02  0.45594000000E+02  0.51100000000E-03 0. -1.
    9900012    2    1    2    0    0 -0.23326961320E+02  0.84995390584E+01 -0.32199009461E+02  0.50528862049E+02  0.30000006683E+02 0.  0.
        -12    1    1    2    0    0  0.23326961320E+02 -0.84995390584E+01  0.32199009461E+02  0.40659137951E+02  0.00000000000E+00 0.  1.
         11    1    3    3    0    0 -0.14149927835E+02 -0.83674573698E+00 -0.66550478828E+01  0.15659191031E+02  0.51100000000E-03 0. -1.
        -11    1    3    3    0    0 -0.12581858738E+02  0.28725498417E+01 -0.24221694466E+02  0.27445312805E+02  0.51100000000E-03 0.  1.
        -12    1    3    3    0    0  0.34048252527E+01  0.64637349536E+01 -0.13222671128E+01  0.74243582127E+01  0.00000000000E+00 0.  1.
</event>
<event>
 7    1  0.5753610E-013  0.5052885E+02  0.7816164E-02  0.1300439E+00
        -11   -1    0    0    0    0  0.00000000000E+00  0.00000000000E+00  0.45593999997E+02  0.45594000000E+02  0.51100000000E-03 0. -1.
         11   -1    0    0    0    0 -0.00000000000E+00 -0.00000000000E+00 -0.45593999997E+02  0.45594000000E+02  0.51100000000E-03 0.  1.
    9900012    2    1    2    0    0  0.18026877991E+02 -0.19153025293E+02  0.31005797045E+02  0.50528853940E+02  0.29999982036E+02 0.  0.
        -12    1    1    2    0    0 -0.18026877991E+02  0.19153025293E+02 -0.31005797045E+02  0.40659146060E+02  0.00000000000E+00 0.  1.
         11    1    3    3    0    0  0.67441447343E+01 -0.53744216185E+01  0.26360245181E+01  0.90175673800E+01  0.51100000000E-03 0. -1.
        -11    1    3    3    0    0  0.18275841408E+01  0.60950286220E+01  0.10820731732E+01  0.64544806382E+01  0.51100000000E-03 0.  1.
         12    1    3    3    0    0  0.94551491154E+01 -0.19873632296E+02  0.27287699354E+02  0.35056805922E+02  0.00000000000E+00 0. -1.
</event>
<event>
 7    1  0.5753610E-013  0.5052887E+02  0.7816164E-02  0.1300439E+00
        -11   -1    0    0    0    0  0.00000000000E+00  0.00000000000E+00  0.45593999997E+02  0.45594000000E+02  0.51100000000E-03 0.  1.
         11   -1    0    0    0    0 -0.00000000000E+00 -0.00000000000E+00 -0.45593999997E+02  0.45594000000E+02  0.51100000000E-03 0. -1.
    9900012    2    1    2    0    0  0.15743841711E+02 -0.35684395827E+02 -0.11485661959E+02  0.50528867102E+02  0.30000022043E+02 0.  0.
        -12    1    1    2    0    0 -0.15743841711E+02  0.35684395827E+02  0.11485661959E+02  0.40659132898E+02  0.00000000000E+00 0.  1.
         11    1    3    3    0    0  0.47707138568E+01 -0.98019594439E+01  0.29755635947E+01  0.11300092859E+02  0.51100000000E-03 0. -1.
        -11    1    3    3    0    0  0.18077469398E+02 -0.15963921731E+02 -0.11254644589E+02  0.26614069999E+02  0.51100000000E-03 0.  1.
         12    1    3    3    0    0 -0.71043415436E+01 -0.99185146525E+01 -0.32065809656E+01  0.12614704244E+02  0.00000000000E+00 0. -1.
</event>
<event>
 7    1  0.5958566E-013  0.5052877E+02  0.7816164E-02  0.1300439E+00
        -11   -1    0    0    0    0  0.00000000000E+00  0.00000000000E+00  0.45593999997E+02  0.45594000000E+02  0.51100000000E-03 0. -1.
         11   -1    0    0    0    0 -0.00000000000E+00 -0.00000000000E+00 -0.45593999997E+02  0.45594000000E+02  0.51100000000E-03 0.  1.
    9900012    2    1    2    0    0 -0.18602270007E+02  0.94518619933E+01  0.34896865127E+02  0.50528765621E+02  0.29999713581E+02 0.  0.
        -12    1    1    2    0    0  0.18602270007E+02 -0.94518619933E+01 -0.34896865127E+02  0.40659234379E+02  0.00000000000E+00 0.  1.
         11    1    3    3    0    0 -0.18623684181E+02  0.62614122771E+01  0.19058972799E+02  0.27373186526E+02  0.51100000000E-03 0. -1.
        -11    1    3    3    0    0 -0.55654940460E+01 -0.36193356290E+01  0.11635257884E+02  0.13396027047E+02  0.51100000000E-03 0.  1.
        -12    1    3    3    0    0  0.55869082199E+01  0.68097853452E+01  0.42026344448E+01  0.97595520482E+01  0.00000000000E+00 0.  1.
</event>
<event>
 7    1  0.5753610E-013  0.5052886E+02  0.7816164E-02  0.1300439E+00
        -11   -1    0    0    0    0  0.00000000000E+00  0.00000000000E+00  0.45593999997E+02  0.45594000000E+02  0.51100000000E-03 0.  1.
         11   -1    0    0    0    0 -0.00000000000E+00 -0.00000000000E+00 -0.45593999997E+02  0.45594000000E+02  0.51100000000E-03 0. -1.
    9900012    2    1    2    0    0 -0.25323442136E+02  0.20268363380E+02 -0.24516978791E+02  0.50528861731E+02  0.30000005718E+02 0.  0.
        -12    1    1    2    0    0  0.25323442136E+02 -0.20268363380E+02  0.24516978791E+02  0.40659138269E+02  0.00000000000E+00 0.  1.
         11    1    3    3    0    0 -0.15237411367E+02  0.32604943759E+01 -0.99418383587E+01  0.18483767986E+02  0.51100000000E-03 0. -1.
        -11    1    3    3    0    0 -0.12830940957E+02  0.13680331744E+02 -0.18404081781E+02  0.26277266770E+02  0.51100000000E-03 0.  1.
        -12    1    3    3    0    0  0.27449101884E+01  0.33275372606E+01  0.38289413483E+01  0.57678269748E+01  0.00000000000E+00 0.  1.
</event>
<event>
 7    1  0.5753610E-013  0.5052886E+02  0.7816164E-02  0.1300439E+00
        -11   -1    0    0    0    0  0.00000000000E+00  0.00000000000E+00  0.45593999997E+02  0.45594000000E+02  0.51100000000E-03 0. -1.
         11   -1    0    0    0    0 -0.00000000000E+00 -0.00000000000E+00 -0.45593999997E+02  0.45594000000E+02  0.51100000000E-03 0.  1.
    9900012    2    1    2    0    0 -0.28057062491E+02 -0.23006040052E+02  0.18349096496E+02  0.50528856174E+02  0.29999988825E+02 0.  0.
        -12    1    1    2    0    0  0.28057062491E+02  0.23006040052E+02 -0.18349096496E+02  0.40659143826E+02  0.00000000000E+00 0.  1.
         11    1    3    3    0    0 -0.24257530439E+02 -0.90946263094E+01  0.10264688562E+02  0.27865818528E+02  0.51100000000E-03 0. -1.
        -11    1    3    3    0    0 -0.47901880936E+01 -0.15394209796E+02  0.10806400787E+02  0.19408912784E+02  0.51100000000E-03 0.  1.
        -12    1    3    3    0    0  0.99065604163E+00  0.14827960534E+01 -0.27219928525E+01  0.32541248621E+01  0.00000000000E+00 0.  1.
</event>
<event>
 7    1  0.5753610E-013  0.5052887E+02  0.7816164E-02  0.1300439E+00
        -11   -1    0    0    0    0  0.00000000000E+00  0.00000000000E+00  0.45593999997E+02  0.45594000000E+02  0.51100000000E-03 0.  1.
         11   -1    0    0    0    0 -0.00000000000E+00 -0.00000000000E+00 -0.45593999997E+02  0.45594000000E+02  0.51100000000E-03 0. -1.
    9900012    2    1    2    0    0 -0.46547277060E+01 -0.10705277413E+02 -0.38947346203E+02  0.50528865346E+02  0.30000016706E+02 0.  0.
        -12    1    1    2    0    0  0.46547277060E+01  0.10705277413E+02  0.38947346203E+02  0.40659134654E+02  0.00000000000E+00 0.  1.
         11    1    3    3    0    0 -0.70967649108E+01 -0.13903303351E+02 -0.15662633443E+02  0.22112982677E+02  0.51100000000E-03 0. -1.
        -11    1    3    3    0    0  0.57080043123E+01 -0.29119504141E+01 -0.31852004512E+01  0.71558556875E+01  0.51100000000E-03 0.  1.
         12    1    3    3    0    0 -0.32659671075E+01  0.61099763519E+01 -0.20099512310E+02  0.21260026981E+02  0.00000000000E+00 0. -1.
</event>
<event>
 7    1  0.5753610E-013  0.5052886E+02  0.7816164E-02  0.1300439E+00
        -11   -1    0    0    0    0  0.00000000000E+00  0.00000000000E+00  0.45593999997E+02  0.45594000000E+02  0.51100000000E-03 0.  1.
         11   -1    0    0    0    0 -0.00000000000E+00 -0.00000000000E+00 -0.45593999997E+02  0.45594000000E+02  0.51100000000E-03 0. -1.
    9900012    2    1    2    0    0 -0.10187398503E+02  0.16704496946E+02 -0.35641866686E+02  0.50528856289E+02  0.29999989176E+02 0.  0.
        -12    1    1    2    0    0  0.10187398503E+02 -0.16704496946E+02  0.35641866686E+02  0.40659143711E+02  0.00000000000E+00 0.  1.
         11    1    3    3    0    0 -0.72758403047E+01 -0.57319742595E+00 -0.63581101141E+01  0.96794613442E+01  0.51100000000E-03 0. -1.
        -11    1    3    3    0    0 -0.48621157453E+01  0.69544858167E+01  0.12331528929E+01  0.85747133372E+01  0.51100000000E-03 0.  1.
         12    1    3    3    0    0  0.19505575474E+01  0.10323208555E+02 -0.30516909464E+02  0.32274681608E+02  0.00000000000E+00 0. -1.
</event>
<event>
 7    1  0.5753610E-013  0.5052887E+02  0.7816164E-02  0.1300439E+00
        -11   -1    0    0    0    0  0.00000000000E+00  0.00000000000E+00  0.45593999997E+02  0.45594000000E+02  0.51100000000E-03 0.  1.
         11   -1    0    0    0    0 -0.00000000000E+00 -0.00000000000E+00 -0.45593999997E+02  0.45594000000E+02  0.51100000000E-03 0. -1.
    9900012    2    1    2    0    0  0.16255230866E+02 -0.11838307039E+02 -0.35338177025E+02  0.50528870650E+02  0.30000032828E+02 0.  0.
        -12    1    1    2    0    0 -0.16255230866E+02  0.11838307039E+02  0.35338177025E+02  0.40659129350E+02  0.00000000000E+00 0.  1.
         11    1    3    3    0    0  0.19816775258E+02 -0.28141037219E+01 -0.24943107062E+02  0.31980968584E+02  0.51100000000E-03 0. -1.
        -11    1    3    3    0    0 -0.12900515761E+01 -0.10367753453E+02 -0.11630429871E+02  0.15633983625E+02  0.51100000000E-03 0.  1.
        -12    1    3    3    0    0 -0.22714928166E+01  0.13435501364E+01  0.12353599071E+01  0.29139184417E+01  0.00000000000E+00 0.  1.
</event>
<event>
 7    1  0.5753610E-013  0.5052886E+02  0.7816164E-02  0.1300439E+00
        -11   -1    0    0    0    0  0.00000000000E+00  0.00000000000E+00  0.45593999997E+02  0.45594000000E+02  0.51100000000E-03 0.  1.
         11   -1    0    0    0    0 -0.00000000000E+00 -0.00000000000E+00 -0.45593999997E+02  0.45594000000E+02  0.51100000000E-03 0. -1.
    9900012    2    1    2    0    0 -0.19235978221E+02 -0.31305915713E+01 -0.35683925634E+02  0.50528855760E+02  0.29999987568E+02 0.  0.
        -12    1    1    2    0    0  0.19235978221E+02  0.31305915713E+01  0.35683925634E+02  0.40659144240E+02  0.00000000000E+00 0.  1.
         11    1    3    3    0    0 -0.68936048846E+01 -0.27330400706E+01 -0.17303112238E+02  0.18825222169E+02  0.51100000000E-03 0. -1.
        -11    1    3    3    0    0 -0.81633433532E+01 -0.31966213956E+01  0.33598836015E+01  0.93886836737E+01  0.51100000000E-03 0.  1.
         12    1    3    3    0    0 -0.41790299834E+01  0.27990698949E+01 -0.21740696997E+02  0.22314949917E+02  0.00000000000E+00 0. -1.
</event>
<event>
 7    1  0.5753610E-013  0.5052886E+02  0.7816164E-02  0.1300439E+00
        -11   -1    0    0    0    0  0.00000000000E+00  0.00000000000E+00  0.45593999997E+02  0.45594000000E+02  0.51100000000E-03 0.  1.
         11   -1    0    0    0    0 -0.00000000000E+00 -0.00000000000E+00 -0.45593999997E+02  0.45594000000E+02  0.51100000000E-03 0. -1.
    9900012    2    1    2    0    0  0.70740514042E+01  0.17263074289E+02 -0.36126298490E+02  0.50528863514E+02  0.30000011138E+02 0.  0.
        -12    1    1    2    0    0 -0.70740514042E+01 -0.17263074289E+02  0.36126298490E+02  0.40659136486E+02  0.00000000000E+00 0.  1.
         11    1    3    3    0    0  0.45554120886E+01  0.90982264991E+01 -0.13172916911E+02  0.16644976567E+02  0.51100000000E-03 0. -1.
        -11    1    3    3    0    0  0.10300211125E+02  0.27623300120E+01 -0.19472582371E+01  0.10840508808E+02  0.51100000000E-03 0.  1.
        -12    1    3    3    0    0 -0.77815718095E+01  0.54025177774E+01 -0.21006123342E+02  0.23043378139E+02  0.00000000000E+00 0.  1.
</event>
<event>
 7    1  0.5753610E-013  0.5052885E+02  0.7816164E-02  0.1300439E+00
        -11   -1    0    0    0    0  0.00000000000E+00  0.00000000000E+00  0.45593999997E+02  0.45594000000E+02  0.51100000000E-03 0. -1.
         11   -1    0    0    0    0 -0.00000000000E+00 -0.00000000000E+00 -0.45593999997E+02  0.45594000000E+02  0.51100000000E-03 0.  1.
    9900012    2    1    2    0    0 -0.33546118917E+02  0.18743793990E+02 -0.13285123343E+02  0.50528850848E+02  0.29999972637E+02 0.  0.
        -12    1    1    2    0    0  0.33546118917E+02 -0.18743793990E+02  0.13285123343E+02  0.40659149152E+02  0.00000000000E+00 0.  1.
         11    1    3    3    0    0 -0.33679834617E+01  0.37013242346E+00  0.37029383490E+01  0.50191695814E+01  0.51100000000E-03 0. -1.
        -11    1    3    3    0    0 -0.25635600782E+02  0.26012169960E+01 -0.94167190481E+01  0.27434010921E+02  0.51100000000E-03 0.  1.
         12    1    3    3    0    0 -0.45425346731E+01  0.15772444571E+02 -0.75713426436E+01  0.18075670345E+02  0.00000000000E+00 0. -1.
</event>
<event>
 7    1  0.5753610E-013  0.5052886E+02  0.7816164E-02  0.1300439E+00
        -11   -1    0    0    0    0  0.00000000000E+00  0.00000000000E+00  0.45593999997E+02  0.45594000000E+02  0.51100000000E-03 0.  1.
         11   -1    0    0    0    0 -0.00000000000E+00 -0.00000000000E+00 -0.45593999997E+02  0.45594000000E+02  0.51100000000E-03 0. -1.
    9900012    2    1    2    0    0  0.31345171992E+02  0.13250836281E+02 -0.22249978696E+02  0.50528855625E+02  0.29999987158E+02 0.  0.
        -12    1    1    2    0    0 -0.31345171992E+02 -0.13250836281E+02  0.22249978696E+02  0.40659144375E+02  0.00000000000E+00 0.  1.
         11    1    3    3    0    0  0.93221274270E+01 -0.56520020135E+01 -0.16404403135E+01  0.11024437909E+02  0.51100000000E-03 0. -1.
        -11    1    3    3    0    0  0.16418830273E+02  0.28132470506E+01 -0.97995599136E+01  0.19326761789E+02  0.51100000000E-03 0.  1.
        -12    1    3    3    0    0  0.56042142922E+01  0.16089591244E+02 -0.10809978469E+02  0.20177655927E+02  0.00000000000E+00 0.  1.
</event>
<event>
 7    1  0.5753610E-013  0.5052884E+02  0.7816164E-02  0.1300439E+00
        -11   -1    0    0    0    0  0.00000000000E+00  0.00000000000E+00  0.45593999997E+02  0.45594000000E+02  0.51100000000E-03 0.  1.
         11   -1    0    0    0    0 -0.00000000000E+00 -0.00000000000E+00 -0.45593999997E+02  0.45594000000E+02  0.51100000000E-03 0. -1.
    9900012    2    1    2    0    0 -0.28015506036E+02 -0.13994003627E+00  0.29466579850E+02  0.50528837568E+02  0.29999932270E+02 0.  0.
        -12    1    1    2    0    0  0.28015506036E+02  0.13994003627E+00 -0.29466579850E+02  0.40659162432E+02  0.00000000000E+00 0.  1.
         11    1    3    3    0    0  0.26434477035E+01 -0.16555121038E+01 -0.12171455887E+01  0.33481307818E+01  0.51100000000E-03 0. -1.
        -11    1    3    3    0    0 -0.10474664507E+02 -0.83124611151E+01  0.10729495411E+02  0.17144610768E+02  0.51100000000E-03 0.  1.
         12    1    3    3    0    0 -0.20184289232E+02  0.98280331826E+01  0.19954230027E+02  0.30036096018E+02  0.00000000000E+00 0. -1.
</event>
<event>
 7    1  0.5753610E-013  0.5052886E+02  0.7816164E-02  0.1300439E+00
        -11   -1    0    0    0    0  0.00000000000E+00  0.00000000000E+00  0.45593999997E+02  0.45594000000E+02  0.51100000000E-03 0. -1.
         11   -1    0    0    0    0 -0.00000000000E+00 -0.00000000000E+00 -0.45593999997E+02  0.45594000000E+02  0.51100000000E-03 0.  1.
    9900012    2    1    2    0    0 -0.16702586480E+02 -0.59055637854E+01  0.36596632390E+02  0.50528861039E+02  0.30000003615E+02 0.  0.
        -12    1    1    2    0    0  0.16702586480E+02  0.59055637854E+01 -0.36596632390E+02  0.40659138961E+02  0.00000000000E+00 0.  1.
         11    1    3    3    0    0 -0.81953840468E+01 -0.14888566647E+02  0.78482859073E+01  0.18719757702E+02  0.51100000000E-03 0.  1.
        -11    1    3    3    0    0  0.81031776950E+00  0.10151919182E+01  0.37012625985E+01  0.39225724470E+01  0.51100000000E-03 0. -1.
         12    1    3    3    0    0 -0.93175202023E+01  0.79678109437E+01  0.25047083884E+02  0.27886530890E+02  0.00000000000E+00 0. -1.
</event>
<event>
 7    1  0.5753610E-013  0.5052885E+02  0.7816164E-02  0.1300439E+00
        -11   -1    0    0    0    0  0.00000000000E+00  0.00000000000E+00  0.45593999997E+02  0.45594000000E+02  0.51100000000E-03 0. -1.
         11   -1    0    0    0    0 -0.00000000000E+00 -0.00000000000E+00 -0.45593999997E+02  0.45594000000E+02  0.51100000000E-03 0.  1.
    9900012    2    1    2    0    0 -0.19389052984E+02 -0.32348093968E+02  0.15193140545E+02  0.50528854920E+02  0.29999985016E+02 0.  0.
        -12    1    1    2    0    0  0.19389052984E+02  0.32348093968E+02 -0.15193140545E+02  0.40659145080E+02  0.00000000000E+00 0.  1.
         11    1    3    3    0    0 -0.84131926284E+01 -0.17109698427E+02 -0.53624763489E+01  0.19806053199E+02  0.51100000000E-03 0. -1.
        -11    1    3    3    0    0  0.13685528465E+01 -0.80992948908E+01  0.49826510932E+01  0.96072018194E+01  0.51100000000E-03 0.  1.
        -12    1    3    3    0    0 -0.12344413203E+02 -0.71391006504E+01  0.15572965800E+02  0.21115599902E+02  0.00000000000E+00 0.  1.
</event>
<event>
 7    1  0.5753610E-013  0.5052885E+02  0.7816164E-02  0.1300439E+00
        -11   -1    0    0    0    0  0.00000000000E+00  0.00000000000E+00  0.45593999997E+02  0.45594000000E+02  0.51100000000E-03 0.  1.
         11   -1    0    0    0    0 -0.00000000000E+00 -0.00000000000E+00 -0.45593999997E+02  0.45594000000E+02  0.51100000000E-03 0. -1.
    9900012    2    1    2    0    0 -0.14659318674E+02  0.12571831923E+02 -0.35780156076E+02  0.50528854034E+02  0.29999982322E+02 0.  0.
        -12    1    1    2    0    0  0.14659318674E+02 -0.12571831923E+02  0.35780156076E+02  0.40659145966E+02  0.00000000000E+00 0.  1.
         11    1    3    3    0    0 -0.94405478896E+01  0.13996867596E+00 -0.11462995614E+02  0.14850717302E+02  0.51100000000E-03 0. -1.
        -11    1    3    3    0    0 -0.18870865475E+01 -0.41791677895E+01  0.14772160995E+01  0.48175415635E+01  0.51100000000E-03 0.  1.
         12    1    3    3    0    0 -0.33316842371E+01  0.16611031037E+02 -0.25794376561E+02  0.30860595168E+02  0.00000000000E+00 0. -1.
</event>
<event>
 7    1  0.5753610E-013  0.5052885E+02  0.7816164E-02  0.1300439E+00
        -11   -1    0    0    0    0  0.00000000000E+00  0.00000000000E+00  0.45593999997E+02  0.45594000000E+02  0.51100000000E-03 0.  1.
         11   -1    0    0    0    0 -0.00000000000E+00 -0.00000000000E+00 -0.45593999997E+02  0.45594000000E+02  0.51100000000E-03 0. -1.
    9900012    2    1    2    0    0 -0.32110507723E+02  0.24918602186E+02 -0.10700777184E+01  0.50528849646E+02  0.29999968985E+02 0.  0.
        -12    1    1    2    0    0  0.32110507723E+02 -0.24918602186E+02  0.10700777184E+01  0.40659150354E+02  0.00000000000E+00 0.  1.
         11    1    3    3    0    0 -0.22410532840E+01  0.10925408456E+02  0.25673263665E+01  0.11444563543E+02  0.51100000000E-03 0. -1.
        -11    1    3    3    0    0 -0.42393741274E+01 -0.43319812449E+01 -0.45257100301E+01  0.75644170982E+01  0.51100000000E-03 0.  1.
        -12    1    3    3    0    0 -0.25630080312E+02  0.18325174975E+02  0.88830594519E+00  0.31519869005E+02  0.00000000000E+00 0.  1.
</event>
<event>
 7    1  0.5753610E-013  0.5052886E+02  0.7816164E-02  0.1300439E+00
        -11   -1    0    0    0    0  0.00000000000E+00  0.00000000000E+00  0.45593999997E+02  0.45594000000E+02  0.51100000000E-03 0.  1.
         11   -1    0    0    0    0 -0.00000000000E+00 -0.00000000000E+00 -0.45593999997E+02  0.45594000000E+02  0.51100000000E-03 0. -1.
    9900012    2    1    2    0    0 -0.69903177200E+01  0.29924623892E+02 -0.26623636647E+02  0.50528859758E+02  0.29999999722E+02 0.  0.
        -12    1    1    2    0    0  0.69903177200E+01 -0.29924623892E+02  0.26623636647E+02  0.40659140242E+02  0.00000000000E+00 0.  1.
         11    1    3    3    0    0  0.10838786350E+01  0.12166640561E+02 -0.69980109915E+01  0.14077432065E+02  0.51100000000E-03 0. -1.
        -11    1    3    3    0    0  0.18094138599E+01  0.40337792039E+01 -0.19020887503E+02  0.19527916296E+02  0.51100000000E-03 0.  1.
         12    1    3    3    0    0 -0.98836102150E+01  0.13724204127E+02 -0.60473815169E+00  0.16923511398E+02  0.00000000000E+00 0. -1.
</event>
<event>
 7    1  0.5753610E-013  0.5052885E+02  0.7816164E-02  0.1300439E+00
        -11   -1    0    0    0    0  0.00000000000E+00  0.00000000000E+00  0.45593999997E+02  0.45594000000E+02  0.51100000000E-03 0. -1.
         11   -1    0    0    0    0 -0.00000000000E+00 -0.00000000000E+00 -0.45593999997E+02  0.45594000000E+02  0.51100000000E-03 0.  1.
    9900012    2    1    2    0    0  0.31111339112E+02  0.25593584291E+02  0.54972199105E+01  0.50528850907E+02  0.29999972816E+02 0.  0.
        -12    1    1    2    0    0 -0.31111339112E+02 -0.25593584291E+02 -0.54972199105E+01  0.40659149093E+02  0.00000000000E+00 0.  1.
         11    1    3    3    0    0  0.80193322361E+01  0.32934250645E+01  0.13042736925E+02  0.15661076748E+02  0.51100000000E-03 0. -1.
        -11    1    3    3    0    0  0.32484238701E+01 -0.84897338557E+00 -0.19048400388E+01  0.38602369466E+01  0.51100000000E-03 0.  1.
         12    1    3    3    0    0  0.19843583006E+02  0.23149132612E+02 -0.56406769752E+01  0.31007537212E+02  0.00000000000E+00 0. -1.
</event>
<event>
 7    1  0.5753610E-013  0.5052886E+02  0.7816164E-02  0.1300439E+00
        -11   -1    0    0    0    0  0.00000000000E+00  0.00000000000E+00  0.45593999997E+02  0.45594000000E+02  0.51100000000E-03 0. -1.
         11   -1    0    0    0    0 -0.00000000000E+00 -0.00000000000E+00 -0.45593999997E+02  0.45594000000E+02  0.51100000000E-03 0.  1.
    9900012    2    1    2    0    0  0.35440854363E+02 -0.13991322577E+02 -0.14189941390E+02  0.50528859551E+02  0.29999999090E+02 0.  0.
        -12    1    1    2    0    0 -0.35440854363E+02  0.13991322577E+02  0.14189941390E+02  0.40659140449E+02  0.00000000000E+00 0.  1.
         11    1    3    3    0    0  0.11085882610E+02 -0.32973750943E+00 -0.55432280989E+01  0.12398907133E+02  0.51100000000E-03 0. -1.
        -11    1    3    3    0    0  0.19920444463E+02 -0.30305441316E+00 -0.12521610712E+02  0.23530972879E+02  0.51100000000E-03 0.  1.
         12    1    3    3    0    0  0.44345272906E+01 -0.13358530655E+02  0.38748974215E+01  0.14598979539E+02  0.00000000000E+00 0. -1.
</event>
<event>
 7    1  0.5753610E-013  0.5052886E+02  0.7816164E-02  0.1300439E+00
        -11   -1    0    0    0    0  0.00000000000E+00  0.00000000000E+00  0.45593999997E+02  0.45594000000E+02  0.51100000000E-03 0. -1.
         11   -1    0    0    0    0 -0.00000000000E+00 -0.00000000000E+00 -0.45593999997E+02  0.45594000000E+02  0.51100000000E-03 0.  1.
    9900012    2    1    2    0    0 -0.33826189302E+02  0.28562943696E+01  0.22378474499E+02  0.50528860546E+02  0.30000002116E+02 0.  0.
        -12    1    1    2    0    0  0.33826189302E+02 -0.28562943696E+01 -0.22378474499E+02  0.40659139454E+02  0.00000000000E+00 0.  1.
         11    1    3    3    0    0 -0.13853568319E+02  0.24413677489E+01 -0.41508544946E+01  0.14666670547E+02  0.51100000000E-03 0. -1.
        -11    1    3    3    0    0  0.19007318941E+01 -0.11120125333E+01  0.25561753229E+01  0.33739274073E+01  0.51100000000E-03 0.  1.
         12    1    3    3    0    0 -0.21873352878E+02  0.15269391540E+01  0.23973153670E+02  0.32488262591E+02  0.00000000000E+00 0. -1.
</event>
<event>
 7    1  0.5753610E-013  0.5052883E+02  0.7816164E-02  0.1300439E+00
        -11   -1    0    0    0    0  0.00000000000E+00  0.00000000000E+00  0.45593999997E+02  0.45594000000E+02  0.51100000000E-03 0.  1.
         11   -1    0    0    0    0 -0.00000000000E+00 -0.00000000000E+00 -0.45593999997E+02  0.45594000000E+02  0.51100000000E-03 0. -1.
    9900012    2    1    2    0    0  0.29727636022E+02  0.12647339117E+02 -0.24687660180E+02  0.50528830119E+02  0.29999909630E+02 0.  0.
        -12    1    1    2    0    0 -0.29727636022E+02 -0.12647339117E+02  0.24687660180E+02  0.40659169881E+02  0.00000000000E+00 0.  1.
         11    1    3    3    0    0  0.35556558252E+01  0.65133529786E+01 -0.58805904843E+01  0.94682522186E+01  0.51100000000E-03 0. -1.
        -11    1    3    3    0    0  0.77754189685E+01  0.14205111267E+02 -0.10629030749E+02  0.19370560683E+02  0.51100000000E-03 0.  1.
        -12    1    3    3    0    0  0.18396561229E+02 -0.80711251282E+01 -0.81780389467E+01  0.21690017217E+02  0.00000000000E+00 0.  1.
</event>
<event>
 7    1  0.5753610E-013  0.5052883E+02  0.7816164E-02  0.1300439E+00
        -11   -1    0    0    0    0  0.00000000000E+00  0.00000000000E+00  0.45593999997E+02  0.45594000000E+02  0.51100000000E-03 0.  1.
         11   -1    0    0    0    0 -0.00000000000E+00 -0.00000000000E+00 -0.45593999997E+02  0.45594000000E+02  0.51100000000E-03 0. -1.
    9900012    2    1    2    0    0 -0.20108031924E+02  0.19235546341E+02 -0.29645051490E+02  0.50528827988E+02  0.29999903152E+02 0.  0.
        -12    1    1    2    0    0  0.20108031924E+02 -0.19235546341E+02  0.29645051490E+02  0.40659172012E+02  0.00000000000E+00 0.  1.
         11    1    3    3    0    0  0.35841083055E+01  0.35289669543E+01 -0.13121425187E+02  0.14052446026E+02  0.51100000000E-03 0. -1.
        -11    1    3    3    0    0 -0.96262458933E+00 -0.15570457976E+01  0.17929503825E+01  0.25623639575E+01  0.51100000000E-03 0.  1.
         12    1    3    3    0    0 -0.22729515640E+02  0.17263625184E+02 -0.18316576685E+02  0.33914018004E+02  0.00000000000E+00 0. -1.
</event>
<event>
 7    1  0.5753610E-013  0.5052885E+02  0.7816164E-02  0.1300439E+00
        -11   -1    0    0    0    0  0.00000000000E+00  0.00000000000E+00  0.45593999997E+02  0.45594000000E+02  0.51100000000E-03 0.  1.
         11   -1    0    0    0    0 -0.00000000000E+00 -0.00000000000E+00 -0.45593999997E+02  0.45594000000E+02  0.51100000000E-03 0. -1.
    9900012    2    1    2    0    0  0.12307913975E+02 -0.34016119461E+02  0.18563003567E+02  0.50528853046E+02  0.29999979318E+02 0.  0.
        -12    1    1    2    0    0 -0.12307913975E+02  0.34016119461E+02 -0.18563003567E+02  0.40659146954E+02  0.00000000000E+00 0.  1.
         11    1    3    3    0    0  0.61232991673E+01 -0.70546015515E+01  0.14208310166E+02  0.17004066389E+02  0.51100000000E-03 0. -1.
        -11    1    3    3    0    0  0.11157877063E+01  0.20834313795E+01 -0.23014781113E+01  0.32988589355E+01  0.51100000000E-03 0.  1.
         12    1    3    3    0    0  0.50688271015E+01 -0.29044949289E+02  0.66561715122E+01  0.30225927721E+02  0.00000000000E+00 0. -1.
</event>
<event>
 7    1  0.5753610E-013  0.5052886E+02  0.7816164E-02  0.1300439E+00
        -11   -1    0    0    0    0  0.00000000000E+00  0.00000000000E+00  0.45593999997E+02  0.45594000000E+02  0.51100000000E-03 0.  1.
         11   -1    0    0    0    0 -0.00000000000E+00 -0.00000000000E+00 -0.45593999997E+02  0.45594000000E+02  0.51100000000E-03 0. -1.
    9900012    2    1    2    0    0  0.34304363495E+02 -0.21591309306E+02  0.31923893747E+01  0.50528863975E+02  0.30000012538E+02 0.  0.
        -12    1    1    2    0    0 -0.34304363495E+02  0.21591309306E+02 -0.31923893747E+01  0.40659136025E+02  0.00000000000E+00 0.  1.
         11    1    3    3    0    0  0.31504467139E+02 -0.14171695469E+02  0.93457796662E+00  0.34557804306E+02  0.51100000000E-03 0. -1.
        -11    1    3    3    0    0  0.65031506369E+01 -0.95377108188E+01  0.15825480431E+01  0.11651753277E+02  0.51100000000E-03 0.  1.
        -12    1    3    3    0    0 -0.37032542807E+01  0.21180969818E+01  0.67526336498E+00  0.43193063916E+01  0.00000000000E+00 0.  1.
</event>
<event>
 7    1  0.5753610E-013  0.5052885E+02  0.7816164E-02  0.1300439E+00
        -11   -1    0    0    0    0  0.00000000000E+00  0.00000000000E+00  0.45593999997E+02  0.45594000000E+02  0.51100000000E-03 0.  1.
         11   -1    0    0    0    0 -0.00000000000E+00 -0.00000000000E+00 -0.45593999997E+02  0.45594000000E+02  0.51100000000E-03 0. -1.
    9900012    2    1    2    0    0  0.14343083982E+02 -0.60925369133E+01 -0.37554268142E+02  0.50528854413E+02  0.29999983474E+02 0.  0.
        -12    1    1    2    0    0 -0.14343083982E+02  0.60925369133E+01  0.37554268142E+02  0.40659145587E+02  0.00000000000E+00 0.  1.
         11    1    3    3    0    0  0.30971293613E+01 -0.68340977734E+01 -0.28918664315E+02  0.29876181963E+02  0.51100000000E-03 0. -1.
        -11    1    3    3    0    0  0.83681903132E+01 -0.64233974433E+01 -0.72696577478E+01  0.12811501390E+02  0.51100000000E-03 0.  1.
        -12    1    3    3    0    0  0.28777643076E+01  0.71649583034E+01 -0.13659460793E+01  0.78411710599E+01  0.00000000000E+00 0.  1.
</event>
<event>
 7    1  0.5753610E-013  0.5052885E+02  0.7816164E-02  0.1300439E+00
        -11   -1    0    0    0    0  0.00000000000E+00  0.00000000000E+00  0.45593999997E+02  0.45594000000E+02  0.51100000000E-03 0.  1.
         11   -1    0    0    0    0 -0.00000000000E+00 -0.00000000000E+00 -0.45593999997E+02  0.45594000000E+02  0.51100000000E-03 0. -1.
    9900012    2    1    2    0    0  0.20158528607E+02  0.34677636438E+02  0.66529212218E+01  0.50528854592E+02  0.29999984018E+02 0.  0.
        -12    1    1    2    0    0 -0.20158528607E+02 -0.34677636438E+02 -0.66529212218E+01  0.40659145408E+02  0.00000000000E+00 0.  1.
         11    1    3    3    0    0 -0.50320919898E+00  0.31462433765E+00 -0.28215648942E+01  0.28833030859E+01  0.51100000000E-03 0. -1.
        -11    1    3    3    0    0  0.12545420868E+02  0.15774748674E+01  0.49065561772E+01  0.13562828079E+02  0.51100000000E-03 0.  1.
        -12    1    3    3    0    0  0.81163169377E+01  0.32785537233E+02  0.45679299388E+01  0.34082723427E+02  0.00000000000E+00 0.  1.
</event>
<event>
 7    1  0.5753610E-013  0.5052886E+02  0.7816164E-02  0.1300439E+00
        -11   -1    0    0    0    0  0.00000000000E+00  0.00000000000E+00  0.45593999997E+02  0.45594000000E+02  0.51100000000E-03 0. -1.
         11   -1    0    0    0    0 -0.00000000000E+00 -0.00000000000E+00 -0.45593999997E+02  0.45594000000E+02  0.51100000000E-03 0.  1.
    9900012    2    1    2    0    0 -0.18668615208E+02 -0.23835332852E+02 -0.27139004416E+02  0.50528857773E+02  0.29999993688E+02 0.  0.
        -12    1    1    2    0    0  0.18668615208E+02  0.23835332852E+02  0.27139004416E+02  0.40659142227E+02  0.00000000000E+00 0.  1.
         11    1    3    3    0    0 -0.30356547714E+01  0.46138399793E+01 -0.71437818242E+00  0.55689366754E+01  0.51100000000E-03 0. -1.
        -11    1    3    3    0    0  0.29985974215E+01 -0.63307577313E+01 -0.81643184281E+01  0.10757610125E+02  0.51100000000E-03 0.  1.
         12    1    3    3    0    0 -0.18631557858E+02 -0.22118415100E+02 -0.18260307805E+02  0.34202310973E+02  0.00000000000E+00 0. -1.
</event>
<event>
 7    1  0.5753610E-013  0.5052886E+02  0.7816164E-02  0.1300439E+00
        -11   -1    0    0    0    0  0.00000000000E+00  0.00000000000E+00  0.45593999997E+02  0.45594000000E+02  0.51100000000E-03 0.  1.
         11   -1    0    0    0    0 -0.00000000000E+00 -0.00000000000E+00 -0.45593999997E+02  0.45594000000E+02  0.51100000000E-03 0. -1.
    9900012    2    1    2    0    0 -0.21973784288E+02 -0.34146902531E+02  0.20754519136E+01  0.50528860202E+02  0.30000001071E+02 0.  0.
        -12    1    1    2    0    0  0.21973784288E+02  0.34146902531E+02 -0.20754519136E+01  0.40659139798E+02  0.00000000000E+00 0.  1.
         11    1    3    3    0    0 -0.22769497264E+02 -0.20514682249E+02  0.82858825244E+01  0.31748354964E+02  0.51100000000E-03 0. -1.
        -11    1    3    3    0    0 -0.14637312359E+01 -0.11453817589E+01 -0.57931938466E+01  0.60840367940E+01  0.51100000000E-03 0.  1.
        -12    1    3    3    0    0  0.22594442114E+01 -0.12486838523E+02 -0.41723676412E+00  0.12696468445E+02  0.00000000000E+00 0.  1.
</event>
<event>
 7    1  0.5753610E-013  0.5052886E+02  0.7816164E-02  0.1300439E+00
        -11   -1    0    0    0    0  0.00000000000E+00  0.00000000000E+00  0.45593999997E+02  0.45594000000E+02  0.51100000000E-03 0. -1.
         11   -1    0    0    0    0 -0.00000000000E+00 -0.00000000000E+00 -0.45593999997E+02  0.45594000000E+02  0.51100000000E-03 0.  1.
    9900012    2    1    2    0    0 -0.35096525669E+02 -0.10688013424E+02  0.17526150821E+02  0.50528859483E+02  0.29999998883E+02 0.  0.
        -12    1    1    2    0    0  0.35096525669E+02  0.10688013424E+02 -0.17526150821E+02  0.40659140517E+02  0.00000000000E+00 0.  1.
         11    1    3    3    0    0  0.12305715140E+00 -0.33932336595E+01  0.35382827887E+01  0.49039395474E+01  0.51100000000E-03 0.  1.
        -11    1    3    3    0    0 -0.24224001022E+02 -0.94358985787E+01  0.20102553329E+02  0.32862608815E+02  0.51100000000E-03 0. -1.
        -12    1    3    3    0    0 -0.10995581798E+02  0.21411188143E+01 -0.61146852962E+01  0.12762311120E+02  0.00000000000E+00 0.  1.
</event>
<event>
 7    1  0.5753610E-013  0.5052886E+02  0.7816164E-02  0.1300439E+00
        -11   -1    0    0    0    0  0.00000000000E+00  0.00000000000E+00  0.45593999997E+02  0.45594000000E+02  0.51100000000E-03 0. -1.
         11   -1    0    0    0    0 -0.00000000000E+00 -0.00000000000E+00 -0.45593999997E+02  0.45594000000E+02  0.51100000000E-03 0.  1.
    9900012    2    1    2    0    0  0.21895149064E+02  0.28525993786E+02  0.18974608470E+02  0.50528860306E+02  0.30000001387E+02 0.  0.
        -12    1    1    2    0    0 -0.21895149064E+02 -0.28525993786E+02 -0.18974608470E+02  0.40659139694E+02  0.00000000000E+00 0.  1.
         11    1    3    3    0    0 -0.87797384235E+00  0.11598187285E+02  0.10614500558E+02  0.15746631662E+02  0.51100000000E-03 0. -1.
        -11    1    3    3    0    0  0.18190600560E+02  0.19050954378E+02  0.11599997739E+02  0.28781882483E+02  0.51100000000E-03 0.  1.
        -12    1    3    3    0    0  0.45825223468E+01 -0.21231478768E+01 -0.32398898264E+01  0.60003461610E+01  0.00000000000E+00 0.  1.
</event>
<event>
 7    1  0.5753610E-013  0.5052886E+02  0.7816164E-02  0.1300439E+00
        -11   -1    0    0    0    0  0.00000000000E+00  0.00000000000E+00  0.45593999997E+02  0.45594000000E+02  0.51100000000E-03 0.  1.
         11   -1    0    0    0    0 -0.00000000000E+00 -0.00000000000E+00 -0.45593999997E+02  0.45594000000E+02  0.51100000000E-03 0. -1.
    9900012    2    1    2    0    0  0.84215440956E+01 -0.24362204927E+02 -0.31444017274E+02  0.50528860115E+02  0.30000000805E+02 0.  0.
        -12    1    1    2    0    0 -0.84215440956E+01  0.24362204927E+02  0.31444017274E+02  0.40659139885E+02  0.00000000000E+00 0.  1.
         11    1    3    3    0    0  0.13935744153E+01 -0.23309975100E+01 -0.22576677705E+02  0.22739436569E+02  0.51100000000E-03 0. -1.
        -11    1    3    3    0    0  0.20575293239E+01 -0.51742679079E+00  0.22292359304E+01  0.30774422004E+01  0.51100000000E-03 0.  1.
         12    1    3    3    0    0  0.49704403563E+01 -0.21513780627E+02 -0.11096575500E+02  0.24711981345E+02  0.00000000000E+00 0. -1.
</event>
<event>
 7    1  0.5753610E-013  0.5052886E+02  0.7816164E-02  0.1300439E+00
        -11   -1    0    0    0    0  0.00000000000E+00  0.00000000000E+00  0.45593999997E+02  0.45594000000E+02  0.51100000000E-03 0. -1.
         11   -1    0    0    0    0 -0.00000000000E+00 -0.00000000000E+00 -0.45593999997E+02  0.45594000000E+02  0.51100000000E-03 0.  1.
    9900012    2    1    2    0    0  0.27008483539E+02  0.76596890783E+01  0.29411510543E+02  0.50528856228E+02  0.29999988990E+02 0.  0.
        -12    1    1    2    0    0 -0.27008483539E+02 -0.76596890783E+01 -0.29411510543E+02  0.40659143772E+02  0.00000000000E+00 0.  1.
         11    1    3    3    0    0  0.72503623911E+01  0.27762702416E+00 -0.15233684169E+01  0.74138709971E+01  0.51100000000E-03 0.  1.
        -11    1    3    3    0    0  0.17833524049E+02  0.12361871694E+02  0.15184352726E+02  0.26484240970E+02  0.51100000000E-03 0. -1.
         12    1    3    3    0    0  0.19245970993E+01 -0.49798096396E+01  0.15750526233E+02  0.16630744261E+02  0.00000000000E+00 0. -1.
</event>
<event>
 7    1  0.5753610E-013  0.5052886E+02  0.7816164E-02  0.1300439E+00
        -11   -1    0    0    0    0  0.00000000000E+00  0.00000000000E+00  0.45593999997E+02  0.45594000000E+02  0.51100000000E-03 0.  1.
         11   -1    0    0    0    0 -0.00000000000E+00 -0.00000000000E+00 -0.45593999997E+02  0.45594000000E+02  0.51100000000E-03 0. -1.
    9900012    2    1    2    0    0  0.26216864867E+02  0.13649468155E+02 -0.27920128289E+02  0.50528861445E+02  0.30000004848E+02 0.  0.
        -12    1    1    2    0    0 -0.26216864867E+02 -0.13649468155E+02  0.27920128289E+02  0.40659138555E+02  0.00000000000E+00 0.  1.
         11    1    3    3    0    0  0.18225428199E+02  0.16702327686E+02 -0.50524471770E+01  0.25232146280E+02  0.51100000000E-03 0. -1.
        -11    1    3    3    0    0  0.27441618672E+01 -0.14467629684E+01 -0.19338678420E+01  0.36555974247E+01  0.51100000000E-03 0.  1.
        -12    1    3    3    0    0  0.52472748009E+01 -0.16060965634E+01 -0.20933813270E+02  0.21641117740E+02  0.00000000000E+00 0.  1.
</event>
<event>
 7    1  0.5753610E-013  0.5052886E+02  0.7816164E-02  0.1300439E+00
        -11   -1    0    0    0    0  0.00000000000E+00  0.00000000000E+00  0.45593999997E+02  0.45594000000E+02  0.51100000000E-03 0.  1.
         11   -1    0    0    0    0 -0.00000000000E+00 -0.00000000000E+00 -0.45593999997E+02  0.45594000000E+02  0.51100000000E-03 0. -1.
    9900012    2    1    2    0    0 -0.21642864127E+02 -0.26639766725E+02 -0.21796214946E+02  0.50528859272E+02  0.29999998242E+02 0.  0.
        -12    1    1    2    0    0  0.21642864127E+02  0.26639766725E+02  0.21796214946E+02  0.40659140728E+02  0.00000000000E+00 0.  1.
         11    1    3    3    0    0 -0.14314724418E+01 -0.17359268360E+02 -0.51119786414E+01  0.18152841024E+02  0.51100000000E-03 0. -1.
        -11    1    3    3    0    0  0.11739365471E+01  0.12669213633E+01 -0.60057944543E+01  0.62492226753E+01  0.51100000000E-03 0.  1.
         12    1    3    3    0    0 -0.21385328232E+02 -0.10547419728E+02 -0.10678441851E+02  0.26126795572E+02  0.00000000000E+00 0. -1.
</event>
<event>
 7    1  0.5753610E-013  0.5052886E+02  0.7816164E-02  0.1300439E+00
        -11   -1    0    0    0    0  0.00000000000E+00  0.00000000000E+00  0.45593999997E+02  0.45594000000E+02  0.51100000000E-03 0. -1.
         11   -1    0    0    0    0 -0.00000000000E+00 -0.00000000000E+00 -0.45593999997E+02  0.45594000000E+02  0.51100000000E-03 0.  1.
    9900012    2    1    2    0    0 -0.14603858450E+02  0.35635473147E+02  0.13038641183E+02  0.50528858446E+02  0.29999995732E+02 0.  0.
        -12    1    1    2    0    0  0.14603858450E+02 -0.35635473147E+02 -0.13038641183E+02  0.40659141554E+02  0.00000000000E+00 0.  1.
         11    1    3    3    0    0 -0.12645010977E+02  0.26860232008E+02  0.13714176678E+02  0.32702400651E+02  0.51100000000E-03 0. -1.
        -11    1    3    3    0    0  0.25772625279E+01  0.10114044327E+02  0.39985480949E+01  0.11176965684E+02  0.51100000000E-03 0.  1.
         12    1    3    3    0    0 -0.45361100014E+01 -0.13388031879E+01 -0.46740835901E+01  0.66494921105E+01  0.00000000000E+00 0. -1.
</event>
<event>
 7    1  0.5753610E-013  0.5052886E+02  0.7816164E-02  0.1300439E+00
        -11   -1    0    0    0    0  0.00000000000E+00  0.00000000000E+00  0.45593999997E+02  0.45594000000E+02  0.51100000000E-03 0.  1.
         11   -1    0    0    0    0 -0.00000000000E+00 -0.00000000000E+00 -0.45593999997E+02  0.45594000000E+02  0.51100000000E-03 0. -1.
    9900012    2    1    2    0    0 -0.12587600225E+02 -0.22609930390E+02 -0.31360942387E+02  0.50528864014E+02  0.30000012658E+02 0.  0.
        -12    1    1    2    0    0  0.12587600225E+02  0.22609930390E+02  0.31360942387E+02  0.40659135986E+02  0.00000000000E+00 0.  1.
         11    1    3    3    0    0 -0.11618320287E+02 -0.11796090148E+02 -0.30511123791E+02  0.34713999831E+02  0.51100000000E-03 0. -1.
        -11    1    3    3    0    0 -0.47456043321E+01 -0.80454206712E+00 -0.16468105953E+01  0.50872422600E+01  0.51100000000E-03 0.  1.
        -12    1    3    3    0    0  0.37763243936E+01 -0.10009298175E+02  0.79699199850E+00  0.10727621923E+02  0.00000000000E+00 0.  1.
</event>
<event>
 7    1  0.5753610E-013  0.5052890E+02  0.7816164E-02  0.1300439E+00
        -11   -1    0    0    0    0  0.00000000000E+00  0.00000000000E+00  0.45593999997E+02  0.45594000000E+02  0.51100000000E-03 0. -1.
         11   -1    0    0    0    0 -0.00000000000E+00 -0.00000000000E+00 -0.45593999997E+02  0.45594000000E+02  0.51100000000E-03 0.  1.
    9900012    2    1    2    0    0 -0.19196752671E+01  0.38476414584E+02  0.13001644063E+02  0.50528900395E+02  0.30000123240E+02 0.  0.
        -12    1    1    2    0    0  0.19196752671E+01 -0.38476414584E+02 -0.13001644063E+02  0.40659099605E+02  0.00000000000E+00 0.  1.
         11    1    3    3    0    0  0.39843132360E+01  0.14567219442E+01 -0.11462541173E+01  0.43943929670E+01  0.51100000000E-03 0. -1.
        -11    1    3    3    0    0 -0.95905864742E+01  0.53407035375E+01 -0.60669129777E+00  0.10994113779E+02  0.51100000000E-03 0.  1.
         12    1    3    3    0    0  0.36865979711E+01  0.31678989102E+02  0.14754589478E+02  0.35140393649E+02  0.00000000000E+00 0. -1.
</event>
<event>
 7    1  0.5753610E-013  0.5052885E+02  0.7816164E-02  0.1300439E+00
        -11   -1    0    0    0    0  0.00000000000E+00  0.00000000000E+00  0.45593999997E+02  0.45594000000E+02  0.51100000000E-03 0.  1.
         11   -1    0    0    0    0 -0.00000000000E+00 -0.00000000000E+00 -0.45593999997E+02  0.45594000000E+02  0.51100000000E-03 0. -1.
    9900012    2    1    2    0    0  0.24058201281E+02  0.31330855555E+02  0.96305009875E+01  0.50528854560E+02  0.29999983919E+02 0.  0.
        -12    1    1    2    0    0 -0.24058201281E+02 -0.31330855555E+02 -0.96305009875E+01  0.40659145440E+02  0.00000000000E+00 0.  1.
         11    1    3    3    0    0  0.12419118775E+02  0.15345666834E+02  0.69179447084E+01  0.20918459814E+02  0.51100000000E-03 0. -1.
        -11    1    3    3    0    0  0.17373127046E+02  0.68198404351E+01  0.13294777643E+01  0.18711046959E+02  0.51100000000E-03 0.  1.
        -12    1    3    3    0    0 -0.57340445405E+01  0.91653482863E+01  0.13830785148E+01  0.10899347787E+02  0.00000000000E+00 0.  1.
</event>
<event>
 7    1  0.5753610E-013  0.5052889E+02  0.7816164E-02  0.1300439E+00
        -11   -1    0    0    0    0  0.00000000000E+00  0.00000000000E+00  0.45593999997E+02  0.45594000000E+02  0.51100000000E-03 0.  1.
         11   -1    0    0    0    0 -0.00000000000E+00 -0.00000000000E+00 -0.45593999997E+02  0.45594000000E+02  0.51100000000E-03 0. -1.
    9900012    2    1    2    0    0 -0.30244483842E+01  0.39998194644E+02 -0.66453344106E+01  0.50528888693E+02  0.30000087673E+02 0.  0.
        -12    1    1    2    0    0  0.30244483842E+01 -0.39998194644E+02  0.66453344106E+01  0.40659111307E+02  0.00000000000E+00 0.  1.
         11    1    3    3    0    0 -0.92062680094E+01  0.19785887336E+02  0.73175284093E+01  0.23017013938E+02  0.51100000000E-03 0. -1.
        -11    1    3    3    0    0  0.21890836182E+01 -0.77360058692E+00 -0.17252743096E+01  0.28925968714E+01  0.51100000000E-03 0.  1.
        -12    1    3    3    0    0  0.39927360070E+01  0.20985907895E+02 -0.12237588510E+02  0.24619277884E+02  0.00000000000E+00 0.  1.
</event>
<event>
 7    1  0.5753610E-013  0.5052886E+02  0.7816164E-02  0.1300439E+00
        -11   -1    0    0    0    0  0.00000000000E+00  0.00000000000E+00  0.45593999997E+02  0.45594000000E+02  0.51100000000E-03 0.  1.
         11   -1    0    0    0    0 -0.00000000000E+00 -0.00000000000E+00 -0.45593999997E+02  0.45594000000E+02  0.51100000000E-03 0. -1.
    9900012    2    1    2    0    0 -0.43932082368E+01  0.93141706005E+01 -0.39333339460E+02  0.50528860244E+02  0.30000001198E+02 0.  0.
        -12    1    1    2    0    0  0.43932082368E+01 -0.93141706005E+01  0.39333339460E+02  0.40659139756E+02  0.00000000000E+00 0.  1.
         11    1    3    3    0    0 -0.29802985413E+00 -0.29705582647E+01 -0.15209656296E+02  0.15499893003E+02  0.51100000000E-03 0. -1.
        -11    1    3    3    0    0 -0.89949337686E+00  0.71561253094E+00 -0.22939548358E+02  0.22968327513E+02  0.51100000000E-03 0.  1.
         12    1    3    3    0    0 -0.31956850058E+01  0.11569116334E+02 -0.11841348064E+01  0.12060639728E+02  0.00000000000E+00 0. -1.
</event>
<event>
 7    1  0.5753610E-013  0.5052886E+02  0.7816164E-02  0.1300439E+00
        -11   -1    0    0    0    0  0.00000000000E+00  0.00000000000E+00  0.45593999997E+02  0.45594000000E+02  0.51100000000E-03 0.  1.
         11   -1    0    0    0    0 -0.00000000000E+00 -0.00000000000E+00 -0.45593999997E+02  0.45594000000E+02  0.51100000000E-03 0. -1.
    9900012    2    1    2    0    0  0.29796108235E+02 -0.22014411759E+02 -0.16754806444E+02  0.50528856748E+02  0.29999990571E+02 0.  0.
        -12    1    1    2    0    0 -0.29796108235E+02  0.22014411759E+02  0.16754806444E+02  0.40659143252E+02  0.00000000000E+00 0.  1.
         11    1    3    3    0    0  0.24318213173E+02 -0.13515029610E+02  0.30857152944E+01  0.27992019514E+02  0.51100000000E-03 0. -1.
        -11    1    3    3    0    0  0.38046242552E-01 -0.20703651340E+01 -0.24027538864E+01  0.31719214688E+01  0.51100000000E-03 0.  1.
         12    1    3    3    0    0  0.54398488186E+01 -0.64290170154E+01 -0.17437767852E+02  0.19364915765E+02  0.00000000000E+00 0. -1.
</event>
<event>
 7    1  0.5753610E-013  0.5052886E+02  0.7816164E-02  0.1300439E+00
        -11   -1    0    0    0    0  0.00000000000E+00  0.00000000000E+00  0.45593999997E+02  0.45594000000E+02  0.51100000000E-03 0.  1.
         11   -1    0    0    0    0 -0.00000000000E+00 -0.00000000000E+00 -0.45593999997E+02  0.45594000000E+02  0.51100000000E-03 0. -1.
    9900012    2    1    2    0    0 -0.12882581632E+02 -0.32437967306E+01 -0.38427626766E+02  0.50528860491E+02  0.30000001949E+02 0.  0.
        -12    1    1    2    0    0  0.12882581632E+02  0.32437967306E+01  0.38427626766E+02  0.40659139509E+02  0.00000000000E+00 0.  1.
         11    1    3    3    0    0 -0.64937823489E+00 -0.92905445611E+01 -0.13308810323E+02  0.16243778588E+02  0.51100000000E-03 0. -1.
        -11    1    3    3    0    0 -0.48813678366E+00  0.10441577070E+02 -0.85423528807E+01  0.13499503777E+02  0.51100000000E-03 0.  1.
         12    1    3    3    0    0 -0.11745066614E+02 -0.43948292397E+01 -0.16576463562E+02  0.20785578126E+02  0.00000000000E+00 0. -1.
</event>
<event>
 7    1  0.5753610E-013  0.5052890E+02  0.7816164E-02  0.1300439E+00
        -11   -1    0    0    0    0  0.00000000000E+00  0.00000000000E+00  0.45593999997E+02  0.45594000000E+02  0.51100000000E-03 0. -1.
         11   -1    0    0    0    0 -0.00000000000E+00 -0.00000000000E+00 -0.45593999997E+02  0.45594000000E+02  0.51100000000E-03 0.  1.
    9900012    2    1    2    0    0  0.26313569731E+02  0.29155309357E+02  0.10522645852E+02  0.50528903952E+02  0.30000134051E+02 0.  0.
        -12    1    1    2    0    0 -0.26313569731E+02 -0.29155309357E+02 -0.10522645852E+02  0.40659096048E+02  0.00000000000E+00 0.  1.
         11    1    3    3    0    0  0.12981779525E+01 -0.31200193580E+01  0.40340516136E+01  0.52624480494E+01  0.51100000000E-03 0. -1.
        -11    1    3    3    0    0  0.14105372991E+02  0.24387714483E+02  0.12125095794E+02  0.30671486974E+02  0.51100000000E-03 0.  1.
         12    1    3    3    0    0  0.10910018787E+02  0.78876142326E+01 -0.56365015556E+01  0.14594968928E+02  0.00000000000E+00 0. -1.
</event>
<event>
 7    1  0.5753610E-013  0.5052886E+02  0.7816164E-02  0.1300439E+00
        -11   -1    0    0    0    0  0.00000000000E+00  0.00000000000E+00  0.45593999997E+02  0.45594000000E+02  0.51100000000E-03 0.  1.
         11   -1    0    0    0    0 -0.00000000000E+00 -0.00000000000E+00 -0.45593999997E+02  0.45594000000E+02  0.51100000000E-03 0. -1.
    9900012    2    1    2    0    0 -0.21563270359E+02  0.29029613688E+02 -0.18586889683E+02  0.50528861205E+02  0.30000004118E+02 0.  0.
        -12    1    1    2    0    0  0.21563270359E+02 -0.29029613688E+02  0.18586889683E+02  0.40659138795E+02  0.00000000000E+00 0.  1.
         11    1    3    3    0    0 -0.77569476851E+01  0.63486910252E+01 -0.29140126300E+01  0.10438753996E+02  0.51100000000E-03 0. -1.
        -11    1    3    3    0    0 -0.13919403074E+02  0.14804433560E+02  0.23160773147E+01  0.20452023111E+02  0.51100000000E-03 0.  1.
        -12    1    3    3    0    0  0.11308039971E+00  0.78764891030E+01 -0.17988954368E+02  0.19638084097E+02  0.00000000000E+00 0.  1.
</event>
<event>
 7    1  0.1068558E-012  0.5052886E+02  0.7816164E-02  0.1300439E+00
        -11   -1    0    0    0    0  0.00000000000E+00  0.00000000000E+00  0.45593999997E+02  0.45594000000E+02  0.51100000000E-03 0. -1.
         11   -1    0    0    0    0 -0.00000000000E+00 -0.00000000000E+00 -0.45593999997E+02  0.45594000000E+02  0.51100000000E-03 0.  1.
    9900012    2    1    2    0    0  0.20807850103E+02 -0.14783206995E+02  0.31648946310E+02  0.50528860345E+02  0.30000001504E+02 0.  0.
        -12    1    1    2    0    0 -0.20807850103E+02  0.14783206995E+02 -0.31648946310E+02  0.40659139655E+02  0.00000000000E+00 0.  1.
         11    1    3    3    0    0  0.11945892916E+02 -0.34030731137E+00  0.12307343670E+02  0.17154908193E+02  0.51100000000E-03 0. -1.
        -11    1    3    3    0    0  0.70062280008E+01 -0.63604171107E+00 -0.25014933768E+01  0.74665419863E+01  0.51100000000E-03 0.  1.
        -12    1    3    3    0    0  0.18557291856E+01 -0.13806857972E+02  0.21843096017E+02  0.25907410166E+02  0.00000000000E+00 0.  1.
</event>
<event>
 7    1  0.6752593E-013  0.5052883E+02  0.7816164E-02  0.1300439E+00
        -11   -1    0    0    0    0  0.00000000000E+00  0.00000000000E+00  0.45593999997E+02  0.45594000000E+02  0.51100000000E-03 0. -1.
         11   -1    0    0    0    0 -0.00000000000E+00 -0.00000000000E+00 -0.45593999997E+02  0.45594000000E+02  0.51100000000E-03 0.  1.
    9900012    2    1    2    0    0 -0.36711375660E+02 -0.96996243344E+01  0.14538244159E+02  0.50528826886E+02  0.29999899802E+02 0.  0.
        -12    1    1    2    0    0  0.36711375660E+02  0.96996243344E+01 -0.14538244159E+02  0.40659173114E+02  0.00000000000E+00 0.  1.
         11    1    3    3    0    0 -0.26437909799E+02 -0.63302042258E+01  0.65706911020E+01  0.27967991382E+02  0.51100000000E-03 0. -1.
        -11    1    3    3    0    0 -0.88988434272E+01 -0.10407067753E+02  0.35756366304E+01  0.14152089992E+02  0.51100000000E-03 0.  1.
        -12    1    3    3    0    0 -0.13746224338E+01  0.70376476445E+01  0.43919164262E+01  0.84087455127E+01  0.00000000000E+00 0.  1.
</event>
<event>
 7    1  0.5753610E-013  0.5052886E+02  0.7816164E-02  0.1300439E+00
        -11   -1    0    0    0    0  0.00000000000E+00  0.00000000000E+00  0.45593999997E+02  0.45594000000E+02  0.51100000000E-03 0. -1.
         11   -1    0    0    0    0 -0.00000000000E+00 -0.00000000000E+00 -0.45593999997E+02  0.45594000000E+02  0.51100000000E-03 0.  1.
    9900012    2    1    2    0    0  0.68059530226E+01 -0.26395712926E+02  0.30168046340E+02  0.50528859854E+02  0.30000000012E+02 0.  0.
        -12    1    1    2    0    0 -0.68059530226E+01  0.26395712926E+02 -0.30168046340E+02  0.40659140146E+02  0.00000000000E+00 0.  1.
         11    1    3    3    0    0 -0.71691038165E+01 -0.77834393172E+01  0.13566847300E+02  0.17205735180E+02  0.51100000000E-03 0. -1.
        -11    1    3    3    0    0 -0.24461594035E+00 -0.11239672776E+02  0.15590053943E+01  0.11349915381E+02  0.51100000000E-03 0.  1.
         12    1    3    3    0    0  0.14219672779E+02 -0.73726008330E+01  0.15042193646E+02  0.21973209294E+02  0.00000000000E+00 0. -1.
</event>
<event>
 7    1  0.5753610E-013  0.5052886E+02  0.7816164E-02  0.1300439E+00
        -11   -1    0    0    0    0  0.00000000000E+00  0.00000000000E+00  0.45593999997E+02  0.45594000000E+02  0.51100000000E-03 0.  1.
         11   -1    0    0    0    0 -0.00000000000E+00 -0.00000000000E+00 -0.45593999997E+02  0.45594000000E+02  0.51100000000E-03 0. -1.
    9900012    2    1    2    0    0  0.37188506817E+02 -0.11876743466E+02  0.11363255537E+02  0.50528860178E+02  0.30000000998E+02 0.  0.
        -12    1    1    2    0    0 -0.37188506817E+02  0.11876743466E+02 -0.11363255537E+02  0.40659139822E+02  0.00000000000E+00 0.  1.
         11    1    3    3    0    0  0.23588459226E+02 -0.69246729306E+01  0.20497271202E+02  0.32007883885E+02  0.51100000000E-03 0. -1.
        -11    1    3    3    0    0  0.15797910535E+01 -0.34066041929E+01 -0.87658746636E+00  0.38560469067E+01  0.51100000000E-03 0.  1.
        -12    1    3    3    0    0  0.12020256538E+02 -0.15454663421E+01 -0.82574281982E+01  0.14664929386E+02  0.00000000000E+00 0.  1.
</event>
<event>
 7    1  0.5949076E-013  0.5052889E+02  0.7816164E-02  0.1300439E+00
        -11   -1    0    0    0    0  0.00000000000E+00  0.00000000000E+00  0.45593999997E+02  0.45594000000E+02  0.51100000000E-03 0. -1.
         11   -1    0    0    0    0 -0.00000000000E+00 -0.00000000000E+00 -0.45593999997E+02  0.45594000000E+02  0.51100000000E-03 0.  1.
    9900012    2    1    2    0    0  0.40525906592E+02 -0.13030266105E+01 -0.30193577324E+01  0.50528886574E+02  0.30000081230E+02 0.  0.
        -12    1    1    2    0    0 -0.40525906592E+02  0.13030266105E+01  0.30193577324E+01  0.40659113426E+02  0.00000000000E+00 0.  1.
         11    1    3    3    0    0  0.31295426778E+02 -0.66558373896E+01 -0.18372235072E+01  0.32048077931E+02  0.51100000000E-03 0. -1.
        -11    1    3    3    0    0  0.13780925034E+01 -0.38472950047E+01  0.36272249610E+01  0.54642089071E+01  0.51100000000E-03 0.  1.
        -12    1    3    3    0    0  0.78523873107E+01  0.92001057837E+01 -0.48093591862E+01  0.13016599736E+02  0.00000000000E+00 0.  1.
</event>
<event>
 7    1  0.5753610E-013  0.5052886E+02  0.7816164E-02  0.1300439E+00
        -11   -1    0    0    0    0  0.00000000000E+00  0.00000000000E+00  0.45593999997E+02  0.45594000000E+02  0.51100000000E-03 0.  1.
         11   -1    0    0    0    0 -0.00000000000E+00 -0.00000000000E+00 -0.45593999997E+02  0.45594000000E+02  0.51100000000E-03 0. -1.
    9900012    2    1    2    0    0 -0.65965999598E+01  0.13409512076E+02 -0.37813161154E+02  0.50528864475E+02  0.30000014059E+02 0.  0.
        -12    1    1    2    0    0  0.65965999598E+01 -0.13409512076E+02  0.37813161154E+02  0.40659135525E+02  0.00000000000E+00 0.  1.
         11    1    3    3    0    0  0.36960171890E+01  0.64081854869E+01 -0.90911896179E+01  0.11720713000E+02  0.51100000000E-03 0. -1.
        -11    1    3    3    0    0  0.16112132875E+01 -0.24465535280E+01  0.26491973293E+01  0.39496682359E+01  0.51100000000E-03 0.  1.
        -12    1    3    3    0    0 -0.11903830436E+02  0.94478801174E+01 -0.31371168866E+02  0.34858483239E+02  0.00000000000E+00 0.  1.
</event>
<event>
 7    1  0.5753610E-013  0.5052884E+02  0.7816164E-02  0.1300439E+00
        -11   -1    0    0    0    0  0.00000000000E+00  0.00000000000E+00  0.45593999997E+02  0.45594000000E+02  0.51100000000E-03 0. -1.
         11   -1    0    0    0    0 -0.00000000000E+00 -0.00000000000E+00 -0.45593999997E+02  0.45594000000E+02  0.51100000000E-03 0.  1.
    9900012    2    1    2    0    0  0.33828061651E+02 -0.31924630643E+01  0.22330197634E+02  0.50528839878E+02  0.29999939292E+02 0.  0.
        -12    1    1    2    0    0 -0.33828061651E+02  0.31924630643E+01 -0.22330197634E+02  0.40659160122E+02  0.00000000000E+00 0.  1.
         11    1    3    3    0    0  0.14531083593E+02  0.56401623135E+01  0.14800610210E+02  0.21494694326E+02  0.51100000000E-03 0. -1.
        -11    1    3    3    0    0  0.18467465865E+02 -0.64412028769E+01  0.12670391847E+02  0.23303974335E+02  0.51100000000E-03 0.  1.
        -12    1    3    3    0    0  0.82951219331E+00 -0.23914225009E+01 -0.51408044235E+01  0.57301712171E+01  0.00000000000E+00 0.  1.
</event>
<event>
 7    1  0.5753610E-013  0.5052886E+02  0.7816164E-02  0.1300439E+00
        -11   -1    0    0    0    0  0.00000000000E+00  0.00000000000E+00  0.45593999997E+02  0.45594000000E+02  0.51100000000E-03 0.  1.
         11   -1    0    0    0    0 -0.00000000000E+00 -0.00000000000E+00 -0.45593999997E+02  0.45594000000E+02  0.51100000000E-03 0. -1.
    9900012    2    1    2    0    0 -0.58981510738E+01 -0.10808766712E+02 -0.38749809914E+02  0.50528863360E+02  0.30000010670E+02 0.  0.
        -12    1    1    2    0    0  0.58981510738E+01  0.10808766712E+02  0.38749809914E+02  0.40659136640E+02  0.00000000000E+00 0.  1.
         11    1    3    3    0    0  0.52733128389E+01  0.20865348386E+01 -0.10117255204E+02  0.11598289057E+02  0.51100000000E-03 0. -1.
        -11    1    3    3    0    0 -0.87294583273E+01  0.37097852720E+01 -0.86752061518E+01  0.12853993601E+02  0.51100000000E-03 0.  1.
         12    1    3    3    0    0 -0.24420055854E+01 -0.16605086823E+02 -0.19957348558E+02  0.26076580703E+02  0.00000000000E+00 0. -1.
</event>
<event>
 7    1  0.5753610E-013  0.5052892E+02  0.7816164E-02  0.1300439E+00
        -11   -1    0    0    0    0  0.00000000000E+00  0.00000000000E+00  0.45593999997E+02  0.45594000000E+02  0.51100000000E-03 0. -1.
         11   -1    0    0    0    0 -0.00000000000E+00 -0.00000000000E+00 -0.45593999997E+02  0.45594000000E+02  0.51100000000E-03 0.  1.
    9900012    2    1    2    0    0 -0.12945322349E+02  0.11871951779E+02  0.36669286471E+02  0.50528915160E+02  0.30000168119E+02 0.  0.
        -12    1    1    2    0    0  0.12945322349E+02 -0.11871951779E+02 -0.36669286471E+02  0.40659084840E+02  0.00000000000E+00 0.  1.
         11    1    3    3    0    0 -0.40373523273E+01  0.15155030383E+02  0.15374813858E+02  0.21962697037E+02  0.51100000000E-03 0. -1.
        -11    1    3    3    0    0  0.46686503249E+01 -0.29339038300E+00  0.83492323451E+01  0.95703738060E+01  0.51100000000E-03 0.  1.
        -12    1    3    3    0    0 -0.13576620347E+02 -0.29896882211E+01  0.12945240268E+02  0.18995844316E+02  0.00000000000E+00 0.  1.
</event>
<event>
 7    1  0.5753610E-013  0.5052886E+02  0.7816164E-02  0.1300439E+00
        -11   -1    0    0    0    0  0.00000000000E+00  0.00000000000E+00  0.45593999997E+02  0.45594000000E+02  0.51100000000E-03 0.  1.
         11   -1    0    0    0    0 -0.00000000000E+00 -0.00000000000E+00 -0.45593999997E+02  0.45594000000E+02  0.51100000000E-03 0. -1.
    9900012    2    1    2    0    0 -0.34778513919E+02 -0.15729191305E+02  0.14007622120E+02  0.50528856293E+02  0.29999989188E+02 0.  0.
        -12    1    1    2    0    0  0.34778513919E+02  0.15729191305E+02 -0.14007622120E+02  0.40659143707E+02  0.00000000000E+00 0.  1.
         11    1    3    3    0    0 -0.18557312591E+02  0.10016207784E+01  0.56975133652E+01  0.19438074842E+02  0.51100000000E-03 0. -1.
        -11    1    3    3    0    0  0.10662063904E+01  0.26000025235E+01 -0.17094477667E+01  0.32892280427E+01  0.51100000000E-03 0.  1.
         12    1    3    3    0    0 -0.17287407719E+02 -0.19330814607E+02  0.10019556522E+02  0.27801553408E+02  0.00000000000E+00 0. -1.
</event>
<event>
 7    1  0.5753610E-013  0.5052886E+02  0.7816164E-02  0.1300439E+00
        -11   -1    0    0    0    0  0.00000000000E+00  0.00000000000E+00  0.45593999997E+02  0.45594000000E+02  0.51100000000E-03 0.  1.
         11   -1    0    0    0    0 -0.00000000000E+00 -0.00000000000E+00 -0.45593999997E+02  0.45594000000E+02  0.51100000000E-03 0. -1.
    9900012    2    1    2    0    0  0.98292637528E+01  0.35532898269E+02  0.17145385168E+02  0.50528861815E+02  0.30000005974E+02 0.  0.
        -12    1    1    2    0    0 -0.98292637528E+01 -0.35532898269E+02 -0.17145385168E+02  0.40659138185E+02  0.00000000000E+00 0.  1.
         11    1    3    3    0    0  0.40386540134E+01 -0.97045338621E+00 -0.30585428403E+01  0.51582158332E+01  0.51100000000E-03 0. -1.
        -11    1    3    3    0    0 -0.53406943068E+01  0.57226294083E+01  0.29084460823E+01  0.83504827344E+01  0.51100000000E-03 0.  1.
        -12    1    3    3    0    0  0.11131304046E+02  0.30780722247E+02  0.17295481926E+02  0.37020163248E+02  0.00000000000E+00 0.  1.
</event>
<event>
 7    1  0.5753610E-013  0.5052885E+02  0.7816164E-02  0.1300439E+00
        -11   -1    0    0    0    0  0.00000000000E+00  0.00000000000E+00  0.45593999997E+02  0.45594000000E+02  0.51100000000E-03 0.  1.
         11   -1    0    0    0    0 -0.00000000000E+00 -0.00000000000E+00 -0.45593999997E+02  0.45594000000E+02  0.51100000000E-03 0. -1.
    9900012    2    1    2    0    0 -0.36739581915E+02  0.64795102597E+01  0.16167412523E+02  0.50528853917E+02  0.29999981965E+02 0.  0.
        -12    1    1    2    0    0  0.36739581915E+02 -0.64795102597E+01 -0.16167412523E+02  0.40659146083E+02  0.00000000000E+00 0.  1.
         11    1    3    3    0    0 -0.40729873485E+01 -0.30626971060E+01 -0.42186122114E+01  0.66155898267E+01  0.51100000000E-03 0. -1.
        -11    1    3    3    0    0 -0.56940507788E+00  0.66309891399E+01  0.38715869412E+01  0.76995730284E+01  0.51100000000E-03 0.  1.
        -12    1    3    3    0    0 -0.32097189489E+02  0.29112182258E+01  0.16514437794E+02  0.36213691061E+02  0.00000000000E+00 0.  1.
</event>
<event>
 7    1  0.5753610E-013  0.5052887E+02  0.7816164E-02  0.1300439E+00
        -11   -1    0    0    0    0  0.00000000000E+00  0.00000000000E+00  0.45593999997E+02  0.45594000000E+02  0.51100000000E-03 0.  1.
         11   -1    0    0    0    0 -0.00000000000E+00 -0.00000000000E+00 -0.45593999997E+02  0.45594000000E+02  0.51100000000E-03 0. -1.
    9900012    2    1    2    0    0 -0.36665472700E+02 -0.49286191206E+01 -0.16867619195E+02  0.50528871234E+02  0.30000034602E+02 0.  0.
        -12    1    1    2    0    0  0.36665472700E+02  0.49286191206E+01  0.16867619195E+02  0.40659128766E+02  0.00000000000E+00 0.  1.
         11    1    3    3    0    0 -0.17124980276E+02  0.15541426803E+01  0.10254375304E+01  0.17225905820E+02  0.51100000000E-03 0. -1.
        -11    1    3    3    0    0  0.10867941528E+01 -0.76959434461E+00 -0.10611032621E+02  0.10694269986E+02  0.51100000000E-03 0.  1.
         12    1    3    3    0    0 -0.20627286577E+02 -0.57131674563E+01 -0.72820241041E+01  0.22608695428E+02  0.00000000000E+00 0. -1.
</event>
<event>
 7    1  0.5753610E-013  0.5052885E+02  0.7816164E-02  0.1300439E+00
        -11   -1    0    0    0    0  0.00000000000E+00  0.00000000000E+00  0.45593999997E+02  0.45594000000E+02  0.51100000000E-03 0. -1.
         11   -1    0    0    0    0 -0.00000000000E+00 -0.00000000000E+00 -0.45593999997E+02  0.45594000000E+02  0.51100000000E-03 0.  1.
    9900012    2    1    2    0    0  0.23941586405E+02 -0.13236399906E+01  0.32836179050E+02  0.50528852973E+02  0.29999979096E+02 0.  0.
        -12    1    1    2    0    0 -0.23941586405E+02  0.13236399906E+01 -0.32836179050E+02  0.40659147027E+02  0.00000000000E+00 0.  1.
         11    1    3    3    0    0  0.94602041114E+01  0.77555916308E+01  0.54522147955E+01  0.13392957471E+02  0.51100000000E-03 0. -1.
        -11    1    3    3    0    0  0.16350177651E+02 -0.10377677042E+02  0.14868121951E+02  0.24414863109E+02  0.51100000000E-03 0.  1.
        -12    1    3    3    0    0 -0.18687953574E+01  0.12984454205E+01  0.12515842303E+02  0.12721032393E+02  0.00000000000E+00 0.  1.
</event>
<event>
 7    1  0.5753610E-013  0.5052887E+02  0.7816164E-02  0.1300439E+00
        -11   -1    0    0    0    0  0.00000000000E+00  0.00000000000E+00  0.45593999997E+02  0.45594000000E+02  0.51100000000E-03 0.  1.
         11   -1    0    0    0    0 -0.00000000000E+00 -0.00000000000E+00 -0.45593999997E+02  0.45594000000E+02  0.51100000000E-03 0. -1.
    9900012    2    1    2    0    0  0.16108351973E+02 -0.14471094659E+02 -0.34413268188E+02  0.50528872965E+02  0.30000039863E+02 0.  0.
        -12    1    1    2    0    0 -0.16108351973E+02  0.14471094659E+02  0.34413268188E+02  0.40659127035E+02  0.00000000000E+00 0.  1.
         11    1    3    3    0    0  0.98588190548E+01 -0.13012265426E+01 -0.13716141025E+02  0.16941724485E+02  0.51100000000E-03 0. -1.
        -11    1    3    3    0    0  0.70793863400E+01 -0.15456010694E+02 -0.50247932020E+01  0.17727225516E+02  0.51100000000E-03 0.  1.
        -12    1    3    3    0    0 -0.82985342172E+00  0.22861425780E+01 -0.15672333961E+02  0.15859922963E+02  0.00000000000E+00 0.  1.
</event>
<event>
 7    1  0.5753610E-013  0.5052886E+02  0.7816164E-02  0.1300439E+00
        -11   -1    0    0    0    0  0.00000000000E+00  0.00000000000E+00  0.45593999997E+02  0.45594000000E+02  0.51100000000E-03 0.  1.
         11   -1    0    0    0    0 -0.00000000000E+00 -0.00000000000E+00 -0.45593999997E+02  0.45594000000E+02  0.51100000000E-03 0. -1.
    9900012    2    1    2    0    0 -0.38815863605E+02 -0.71143754512E+00 -0.12082552274E+02  0.50528862279E+02  0.30000007383E+02 0.  0.
        -12    1    1    2    0    0  0.38815863605E+02  0.71143754512E+00  0.12082552274E+02  0.40659137721E+02  0.00000000000E+00 0.  1.
         11    1    3    3    0    0 -0.27405773827E+02  0.11644658415E+02 -0.69517983581E+01  0.30577802559E+02  0.51100000000E-03 0. -1.
        -11    1    3    3    0    0  0.36937005268E+00  0.41844584303E+00 -0.22736865571E+01  0.23411924270E+01  0.51100000000E-03 0.  1.
        -12    1    3    3    0    0 -0.11779459830E+02 -0.12774541803E+02 -0.28570673591E+01  0.17609867292E+02  0.00000000000E+00 0.  1.
</event>
<event>
 7    1  0.5753610E-013  0.5052888E+02  0.7816164E-02  0.1300439E+00
        -11   -1    0    0    0    0  0.00000000000E+00  0.00000000000E+00  0.45593999997E+02  0.45594000000E+02  0.51100000000E-03 0.  1.
         11   -1    0    0    0    0 -0.00000000000E+00 -0.00000000000E+00 -0.45593999997E+02  0.45594000000E+02  0.51100000000E-03 0. -1.
    9900012    2    1    2    0    0 -0.14440720487E+01 -0.21744797926E+02 -0.34325531055E+02  0.50528884624E+02  0.30000075303E+02 0.  0.
        -12    1    1    2    0    0  0.14440720487E+01  0.21744797926E+02  0.34325531055E+02  0.40659115376E+02  0.00000000000E+00 0.  1.
         11    1    3    3    0    0  0.11463137905E+02 -0.14913136494E+02 -0.10621732522E+02  0.21601536352E+02  0.51100000000E-03 0. -1.
        -11    1    3    3    0    0 -0.10947913772E+01 -0.42406292074E+01 -0.78319289261E+01  0.89733279891E+01  0.51100000000E-03 0.  1.
        -12    1    3    3    0    0 -0.11812418577E+02 -0.25910322240E+01 -0.15871869608E+02  0.19954020283E+02  0.00000000000E+00 0.  1.
</event>
<event>
 7    1  0.5753610E-013  0.5052886E+02  0.7816164E-02  0.1300439E+00
        -11   -1    0    0    0    0  0.00000000000E+00  0.00000000000E+00  0.45593999997E+02  0.45594000000E+02  0.51100000000E-03 0. -1.
         11   -1    0    0    0    0 -0.00000000000E+00 -0.00000000000E+00 -0.45593999997E+02  0.45594000000E+02  0.51100000000E-03 0.  1.
    9900012    2    1    2    0    0 -0.67352214822E+01 -0.22112100451E+01  0.40036393893E+02  0.50528862107E+02  0.30000006860E+02 0.  0.
        -12    1    1    2    0    0  0.67352214822E+01  0.22112100451E+01 -0.40036393893E+02  0.40659137893E+02  0.00000000000E+00 0.  1.
         11    1    3    3    0    0 -0.20886053859E+01 -0.29130324035E+01  0.18141596663E+02  0.18492310834E+02  0.51100000000E-03 0. -1.
        -11    1    3    3    0    0  0.59153248455E+01 -0.77045634417E+01  0.11117238887E+02  0.14762938955E+02  0.51100000000E-03 0.  1.
         12    1    3    3    0    0 -0.10561940942E+02  0.84063858001E+01  0.10777558342E+02  0.17273612318E+02  0.00000000000E+00 0. -1.
</event>
<event>
 7    1  0.5753610E-013  0.5052889E+02  0.7816164E-02  0.1300439E+00
        -11   -1    0    0    0    0  0.00000000000E+00  0.00000000000E+00  0.45593999997E+02  0.45594000000E+02  0.51100000000E-03 0. -1.
         11   -1    0    0    0    0 -0.00000000000E+00 -0.00000000000E+00 -0.45593999997E+02  0.45594000000E+02  0.51100000000E-03 0.  1.
    9900012    2    1    2    0    0 -0.15926143627E+02 -0.30051339789E+02  0.22280890170E+02  0.50528891048E+02  0.30000094830E+02 0.  0.
        -12    1    1    2    0    0  0.15926143627E+02  0.30051339789E+02 -0.22280890170E+02  0.40659108952E+02  0.00000000000E+00 0.  1.
         11    1    3    3    0    0 -0.17411391721E+02 -0.61806423010E+01  0.74456210399E+01  0.19919693116E+02  0.51100000000E-03 0. -1.
        -11    1    3    3    0    0 -0.36616983069E+01 -0.85997829493E+01  0.10559747445E+01  0.94063480793E+01  0.51100000000E-03 0.  1.
        -12    1    3    3    0    0  0.51469464004E+01 -0.15270914539E+02  0.13779294386E+02  0.21202849853E+02  0.00000000000E+00 0.  1.
</event>
<event>
 7    1  0.5753610E-013  0.5052881E+02  0.7816164E-02  0.1300439E+00
        -11   -1    0    0    0    0  0.00000000000E+00  0.00000000000E+00  0.45593999997E+02  0.45594000000E+02  0.51100000000E-03 0. -1.
         11   -1    0    0    0    0 -0.00000000000E+00 -0.00000000000E+00 -0.45593999997E+02  0.45594000000E+02  0.51100000000E-03 0.  1.
    9900012    2    1    2    0    0  0.18956682415E+02  0.35577909701E+02 -0.52939537765E+01  0.50528813910E+02  0.29999860361E+02 0.  0.
        -12    1    1    2    0    0 -0.18956682415E+02 -0.35577909701E+02  0.52939537765E+01  0.40659186090E+02  0.00000000000E+00 0.  1.
         11    1    3    3    0    0  0.42165126945E+01  0.16005127841E+02  0.27735490776E+01  0.16782004388E+02  0.51100000000E-03 0. -1.
        -11    1    3    3    0    0  0.34434591766E+01  0.95472021693E+01 -0.14192678162E+02  0.17448168788E+02  0.51100000000E-03 0.  1.
         12    1    3    3    0    0  0.11296710544E+02  0.10025579690E+02  0.61251753082E+01  0.16298640735E+02  0.00000000000E+00 0. -1.
</event>
<event>
 7    1  0.5753610E-013  0.5052887E+02  0.7816164E-02  0.1300439E+00
        -11   -1    0    0    0    0  0.00000000000E+00  0.00000000000E+00  0.45593999997E+02  0.45594000000E+02  0.51100000000E-03 0.  1.
         11   -1    0    0    0    0 -0.00000000000E+00 -0.00000000000E+00 -0.45593999997E+02  0.45594000000E+02  0.51100000000E-03 0. -1.
    9900012    2    1    2    0    0  0.13669784018E+02 -0.27403649145E+02 -0.26745875982E+02  0.50528869862E+02  0.30000030432E+02 0.  0.
        -12    1    1    2    0    0 -0.13669784018E+02  0.27403649145E+02  0.26745875982E+02  0.40659130138E+02  0.00000000000E+00 0.  1.
         11    1    3    3    0    0 -0.11774489034E+01 -0.78515111519E+01 -0.27801888229E+01  0.84120189872E+01  0.51100000000E-03 0. -1.
        -11    1    3    3    0    0 -0.11111056059E+01 -0.74740401466E+01 -0.20443918780E+02  0.21795633671E+02  0.51100000000E-03 0.  1.
        -12    1    3    3    0    0  0.15958338527E+02 -0.12078097847E+02 -0.35217683794E+01  0.20321217204E+02  0.00000000000E+00 0.  1.
</event>
<event>
 7    1  0.5753610E-013  0.5052886E+02  0.7816164E-02  0.1300439E+00
        -11   -1    0    0    0    0  0.00000000000E+00  0.00000000000E+00  0.45593999997E+02  0.45594000000E+02  0.51100000000E-03 0.  1.
         11   -1    0    0    0    0 -0.00000000000E+00 -0.00000000000E+00 -0.45593999997E+02  0.45594000000E+02  0.51100000000E-03 0. -1.
    9900012    2    1    2    0    0  0.32532610116E+02 -0.13571507492E+02 -0.20263500568E+02  0.50528855988E+02  0.29999988261E+02 0.  0.
        -12    1    1    2    0    0 -0.32532610116E+02  0.13571507492E+02  0.20263500568E+02  0.40659144012E+02  0.00000000000E+00 0.  1.
         11    1    3    3    0    0  0.15546651691E+02 -0.19125778775E+02 -0.15880543184E+02  0.29320392982E+02  0.51100000000E-03 0. -1.
        -11    1    3    3    0    0  0.49567112418E+01 -0.21616917317E+01  0.17115761631E+01  0.56719829602E+01  0.51100000000E-03 0.  1.
         12    1    3    3    0    0  0.12029247183E+02  0.77159630152E+01 -0.60945335468E+01  0.15536480045E+02  0.00000000000E+00 0. -1.
</event>
<event>
 7    1  0.5753610E-013  0.5052886E+02  0.7816164E-02  0.1300439E+00
        -11   -1    0    0    0    0  0.00000000000E+00  0.00000000000E+00  0.45593999997E+02  0.45594000000E+02  0.51100000000E-03 0.  1.
         11   -1    0    0    0    0 -0.00000000000E+00 -0.00000000000E+00 -0.45593999997E+02  0.45594000000E+02  0.51100000000E-03 0. -1.
    9900012    2    1    2    0    0  0.40500880713E+02 -0.26294199834E+01 -0.24353320623E+01  0.50528855515E+02  0.29999986823E+02 0.  0.
        -12    1    1    2    0    0 -0.40500880713E+02  0.26294199834E+01  0.24353320623E+01  0.40659144485E+02  0.00000000000E+00 0.  1.
         11    1    3    3    0    0  0.16627487271E+02  0.83062979064E+01  0.65956979395E+01  0.19722351519E+02  0.51100000000E-03 0. -1.
        -11    1    3    3    0    0  0.17684876417E+02 -0.11482036639E+02 -0.16367488849E+01  0.21148781677E+02  0.51100000000E-03 0.  1.
        -12    1    3    3    0    0  0.61885170255E+01  0.54631874930E+00 -0.73942811169E+01  0.96577223188E+01  0.00000000000E+00 0.  1.
</event>
<event>
 7    1  0.5753610E-013  0.5052886E+02  0.7816164E-02  0.1300439E+00
        -11   -1    0    0    0    0  0.00000000000E+00  0.00000000000E+00  0.45593999997E+02  0.45594000000E+02  0.51100000000E-03 0.  1.
         11   -1    0    0    0    0 -0.00000000000E+00 -0.00000000000E+00 -0.45593999997E+02  0.45594000000E+02  0.51100000000E-03 0. -1.
    9900012    2    1    2    0    0 -0.36710506545E+02 -0.11591718720E+02  0.13081916747E+02  0.50528858599E+02  0.29999996198E+02 0.  0.
        -12    1    1    2    0    0  0.36710506545E+02  0.11591718720E+02 -0.13081916747E+02  0.40659141401E+02  0.00000000000E+00 0.  1.
         11    1    3    3    0    0 -0.24046878637E+02  0.34077394812E+01  0.25121134931E+01  0.24416710979E+02  0.51100000000E-03 0. -1.
        -11    1    3    3    0    0 -0.57635764220E+01  0.31250010619E+00  0.67630097657E+01  0.88912749840E+01  0.51100000000E-03 0.  1.
        -12    1    3    3    0    0 -0.69000514864E+01 -0.15311958307E+02  0.38067934878E+01  0.17220872637E+02  0.00000000000E+00 0.  1.
</event>
<event>
 7    1  0.5753610E-013  0.5052886E+02  0.7816164E-02  0.1300439E+00
        -11   -1    0    0    0    0  0.00000000000E+00  0.00000000000E+00  0.45593999997E+02  0.45594000000E+02  0.51100000000E-03 0. -1.
         11   -1    0    0    0    0 -0.00000000000E+00 -0.00000000000E+00 -0.45593999997E+02  0.45594000000E+02  0.51100000000E-03 0.  1.
    9900012    2    1    2    0    0  0.16682199540E+01 -0.39473702780E+02 -0.96025606513E+01  0.50528864002E+02  0.30000012622E+02 0.  0.
        -12    1    1    2    0    0 -0.16682199540E+01  0.39473702780E+02  0.96025606513E+01  0.40659135998E+02  0.00000000000E+00 0.  1.
         11    1    3    3    0    0 -0.77590964264E+01 -0.17395096622E+02  0.65287775632E+00  0.19058310877E+02  0.51100000000E-03 0. -1.
        -11    1    3    3    0    0  0.55144990652E+01 -0.17983080879E+02 -0.15018533404E+02  0.24069840957E+02  0.51100000000E-03 0.  1.
        -12    1    3    3    0    0  0.39128173152E+01 -0.40955252794E+01  0.47630949963E+01  0.74007121685E+01  0.00000000000E+00 0.  1.
</event>
<event>
 7    1  0.5753610E-013  0.5052884E+02  0.7816164E-02  0.1300439E+00
        -11   -1    0    0    0    0  0.00000000000E+00  0.00000000000E+00  0.45593999997E+02  0.45594000000E+02  0.51100000000E-03 0. -1.
         11   -1    0    0    0    0 -0.00000000000E+00 -0.00000000000E+00 -0.45593999997E+02  0.45594000000E+02  0.51100000000E-03 0.  1.
    9900012    2    1    2    0    0 -0.12753071528E+02  0.35690772649E+02  0.14720577581E+02  0.50528837564E+02  0.29999932259E+02 0.  0.
        -12    1    1    2    0    0  0.12753071528E+02 -0.35690772649E+02 -0.14720577581E+02  0.40659162436E+02  0.00000000000E+00 0.  1.
         11    1    3    3    0    0 -0.75100490252E+01  0.43699188081E+01 -0.31628441912E+01  0.92466540105E+01  0.51100000000E-03 0. -1.
        -11    1    3    3    0    0 -0.36089628282E+01  0.35910640439E+01 -0.35414181487E+01  0.62017736518E+01  0.51100000000E-03 0.  1.
        -12    1    3    3    0    0 -0.16340596747E+01  0.27729789797E+02  0.21424839921E+02  0.35080409902E+02  0.00000000000E+00 0.  1.
</event>
<event>
 7    1  0.5753610E-013  0.5052886E+02  0.7816164E-02  0.1300439E+00
        -11   -1    0    0    0    0  0.00000000000E+00  0.00000000000E+00  0.45593999997E+02  0.45594000000E+02  0.51100000000E-03 0.  1.
         11   -1    0    0    0    0 -0.00000000000E+00 -0.00000000000E+00 -0.45593999997E+02  0.45594000000E+02  0.51100000000E-03 0. -1.
    9900012    2    1    2    0    0 -0.17067194781E+02 -0.22429682291E+02 -0.29305052407E+02  0.50528857338E+02  0.29999992366E+02 0.  0.
        -12    1    1    2    0    0  0.17067194781E+02  0.22429682291E+02  0.29305052407E+02  0.40659142662E+02  0.00000000000E+00 0.  1.
         11    1    3    3    0    0 -0.10980611906E+02 -0.95317054335E+01 -0.99494323608E+01  0.17618696060E+02  0.51100000000E-03 0. -1.
        -11    1    3    3    0    0 -0.85782853203E+01 -0.45175242474E+01 -0.21777332716E+02  0.23837936673E+02  0.51100000000E-03 0.  1.
        -12    1    3    3    0    0  0.24917024451E+01 -0.83804526103E+01  0.24217126691E+01  0.90722246048E+01  0.00000000000E+00 0.  1.
</event>
<event>
 7    1  0.5753610E-013  0.5052886E+02  0.7816164E-02  0.1300439E+00
        -11   -1    0    0    0    0  0.00000000000E+00  0.00000000000E+00  0.45593999997E+02  0.45594000000E+02  0.51100000000E-03 0.  1.
         11   -1    0    0    0    0 -0.00000000000E+00 -0.00000000000E+00 -0.45593999997E+02  0.45594000000E+02  0.51100000000E-03 0. -1.
    9900012    2    1    2    0    0 -0.38156961753E+02  0.53405615948E+01  0.12988087332E+02  0.50528859073E+02  0.29999997637E+02 0.  0.
        -12    1    1    2    0    0  0.38156961753E+02 -0.53405615948E+01 -0.12988087332E+02  0.40659140927E+02  0.00000000000E+00 0.  1.
         11    1    3    3    0    0 -0.94504476388E+01  0.16955234088E+01 -0.26231510153E+01  0.99532246892E+01  0.51100000000E-03 0. -1.
        -11    1    3    3    0    0 -0.18427075621E+02 -0.15906030918E+00 -0.32968384671E+01  0.18720351500E+02  0.51100000000E-03 0.  1.
        -12    1    3    3    0    0 -0.10279438493E+02  0.38040984952E+01  0.18908076815E+02  0.21855282884E+02  0.00000000000E+00 0.  1.
</event>
<event>
 7    1  0.5753610E-013  0.5052885E+02  0.7816164E-02  0.1300439E+00
        -11   -1    0    0    0    0  0.00000000000E+00  0.00000000000E+00  0.45593999997E+02  0.45594000000E+02  0.51100000000E-03 0.  1.
         11   -1    0    0    0    0 -0.00000000000E+00 -0.00000000000E+00 -0.45593999997E+02  0.45594000000E+02  0.51100000000E-03 0. -1.
    9900012    2    1    2    0    0  0.33138185694E+02  0.84187970765E+01 -0.22003439702E+02  0.50528845384E+02  0.29999956030E+02 0.  0.
        -12    1    1    2    0    0 -0.33138185694E+02 -0.84187970765E+01  0.22003439702E+02  0.40659154616E+02  0.00000000000E+00 0.  1.
         11    1    3    3    0    0  0.21344195573E+01 -0.36571635014E+00 -0.75149201638E+01  0.78207110051E+01  0.51100000000E-03 0. -1.
        -11    1    3    3    0    0  0.58248795903E+00 -0.39985945036E+01  0.33034304546E+01  0.52192627119E+01  0.51100000000E-03 0.  1.
        -12    1    3    3    0    0  0.30421278178E+02  0.12783107930E+02 -0.17791949993E+02  0.37488871667E+02  0.00000000000E+00 0.  1.
</event>
<event>
 7    1  0.5753610E-013  0.5052884E+02  0.7816164E-02  0.1300439E+00
        -11   -1    0    0    0    0  0.00000000000E+00  0.00000000000E+00  0.45593999997E+02  0.45594000000E+02  0.51100000000E-03 0. -1.
         11   -1    0    0    0    0 -0.00000000000E+00 -0.00000000000E+00 -0.45593999997E+02  0.45594000000E+02  0.51100000000E-03 0.  1.
    9900012    2    1    2    0    0 -0.31143263215E+02  0.24034163540E+02  0.10277311436E+02  0.50528843699E+02  0.29999950908E+02 0.  0.
        -12    1    1    2    0    0  0.31143263215E+02 -0.24034163540E+02 -0.10277311436E+02  0.40659156301E+02  0.00000000000E+00 0.  1.
         11    1    3    3    0    0 -0.42947229167E+01 -0.28165294524E+01 -0.18635313359E+01  0.54635366191E+01  0.51100000000E-03 0. -1.
        -11    1    3    3    0    0 -0.36704072643E+01  0.52523370119E+01  0.11747472030E+02  0.13381406238E+02  0.51100000000E-03 0.  1.
        -12    1    3    3    0    0 -0.23178133034E+02  0.21598355980E+02  0.39337074246E+00  0.31683900842E+02  0.00000000000E+00 0.  1.
</event>
<event>
 7    1  0.5753610E-013  0.5052886E+02  0.7816164E-02  0.1300439E+00
        -11   -1    0    0    0    0  0.00000000000E+00  0.00000000000E+00  0.45593999997E+02  0.45594000000E+02  0.51100000000E-03 0.  1.
         11   -1    0    0    0    0 -0.00000000000E+00 -0.00000000000E+00 -0.45593999997E+02  0.45594000000E+02  0.51100000000E-03 0. -1.
    9900012    2    1    2    0    0  0.18875704529E+02  0.13876534903E+02 -0.33231235228E+02  0.50528862808E+02  0.30000008992E+02 0.  0.
        -12    1    1    2    0    0 -0.18875704529E+02 -0.13876534903E+02  0.33231235228E+02  0.40659137192E+02  0.00000000000E+00 0.  1.
         11    1    3    3    0    0  0.50021056821E+01  0.22922557599E+01 -0.69760551448E+01  0.88848659736E+01  0.51100000000E-03 0. -1.
        -11    1    3    3    0    0  0.21285490724E+02  0.47809900064E+01 -0.14617035207E+02  0.26260001891E+02  0.51100000000E-03 0.  1.
        -12    1    3    3    0    0 -0.74118918771E+01  0.68032891367E+01 -0.11638144876E+02  0.15383994944E+02  0.00000000000E+00 0.  1.
</event>
<event>
 7    1  0.5753610E-013  0.5052887E+02  0.7816164E-02  0.1300439E+00
        -11   -1    0    0    0    0  0.00000000000E+00  0.00000000000E+00  0.45593999997E+02  0.45594000000E+02  0.51100000000E-03 0.  1.
         11   -1    0    0    0    0 -0.00000000000E+00 -0.00000000000E+00 -0.45593999997E+02  0.45594000000E+02  0.51100000000E-03 0. -1.
    9900012    2    1    2    0    0  0.17154263525E+02  0.11168778060E+02 -0.35130536004E+02  0.50528869164E+02  0.30000028310E+02 0.  0.
        -12    1    1    2    0    0 -0.17154263525E+02 -0.11168778060E+02  0.35130536004E+02  0.40659130836E+02  0.00000000000E+00 0.  1.
         11    1    3    3    0    0  0.11117166484E+02 -0.30708685386E+01 -0.32636118878E+01  0.11986358372E+02  0.51100000000E-03 0. -1.
        -11    1    3    3    0    0 -0.33663683704E+01 -0.11668400196E+01 -0.41879885632E+01  0.54984725246E+01  0.51100000000E-03 0.  1.
         12    1    3    3    0    0  0.94034654118E+01  0.15406486618E+02 -0.27678935553E+02  0.33044038267E+02  0.00000000000E+00 0. -1.
</event>
<event>
 7    1  0.5753610E-013  0.5052885E+02  0.7816164E-02  0.1300439E+00
        -11   -1    0    0    0    0  0.00000000000E+00  0.00000000000E+00  0.45593999997E+02  0.45594000000E+02  0.51100000000E-03 0.  1.
         11   -1    0    0    0    0 -0.00000000000E+00 -0.00000000000E+00 -0.45593999997E+02  0.45594000000E+02  0.51100000000E-03 0. -1.
    9900012    2    1    2    0    0 -0.26851568986E+02 -0.15235381713E+02 -0.26458327781E+02  0.50528847009E+02  0.29999960969E+02 0.  0.
        -12    1    1    2    0    0  0.26851568986E+02  0.15235381713E+02  0.26458327781E+02  0.40659152991E+02  0.00000000000E+00 0.  1.
         11    1    3    3    0    0 -0.23131176179E+02 -0.18866069478E+02 -0.21227306067E+02  0.36627563557E+02  0.51100000000E-03 0. -1.
        -11    1    3    3    0    0 -0.29279477782E+01 -0.40912498610E+01 -0.12808501085E+01  0.51915104621E+01  0.51100000000E-03 0.  1.
         12    1    3    3    0    0 -0.79244502932E+00  0.77219376263E+01 -0.39501716050E+01  0.87097729900E+01  0.00000000000E+00 0. -1.
</event>
<event>
 7    1  0.5753610E-013  0.5052886E+02  0.7816164E-02  0.1300439E+00
        -11   -1    0    0    0    0  0.00000000000E+00  0.00000000000E+00  0.45593999997E+02  0.45594000000E+02  0.51100000000E-03 0. -1.
         11   -1    0    0    0    0 -0.00000000000E+00 -0.00000000000E+00 -0.45593999997E+02  0.45594000000E+02  0.51100000000E-03 0.  1.
    9900012    2    1    2    0    0  0.24781780025E+02 -0.27952108161E+02  0.16053298323E+02  0.50528863771E+02  0.30000011918E+02 0.  0.
        -12    1    1    2    0    0 -0.24781780025E+02  0.27952108161E+02 -0.16053298323E+02  0.40659136229E+02  0.00000000000E+00 0.  1.
         11    1    3    3    0    0  0.41953904096E+01 -0.39417736767E+01  0.12376366620E+02  0.13649664149E+02  0.51100000000E-03 0. -1.
        -11    1    3    3    0    0  0.12357281401E+02 -0.24918455732E+01 -0.28702320130E+01  0.12928647650E+02  0.51100000000E-03 0.  1.
         12    1    3    3    0    0  0.82291082143E+01 -0.21518488911E+02  0.65471637156E+01  0.23950551971E+02  0.00000000000E+00 0. -1.
</event>
<event>
 7    1  0.5753610E-013  0.5052888E+02  0.7816164E-02  0.1300439E+00
        -11   -1    0    0    0    0  0.00000000000E+00  0.00000000000E+00  0.45593999997E+02  0.45594000000E+02  0.51100000000E-03 0.  1.
         11   -1    0    0    0    0 -0.00000000000E+00 -0.00000000000E+00 -0.45593999997E+02  0.45594000000E+02  0.51100000000E-03 0. -1.
    9900012    2    1    2    0    0  0.57626332156E+01  0.22402684140E+02 -0.33437646198E+02  0.50528875790E+02  0.30000048452E+02 0.  0.
        -12    1    1    2    0    0 -0.57626332156E+01 -0.22402684140E+02  0.33437646198E+02  0.40659124210E+02  0.00000000000E+00 0.  1.
         11    1    3    3    0    0  0.72579578271E+01  0.14423372251E+02 -0.69122807826E+01  0.17563918833E+02  0.51100000000E-03 0. -1.
        -11    1    3    3    0    0 -0.46563318487E+01  0.12789707270E+02 -0.20712743022E+02  0.24784587188E+02  0.51100000000E-03 0.  1.
        -12    1    3    3    0    0  0.31610072372E+01 -0.48103953803E+01 -0.58126223928E+01  0.81803697686E+01  0.00000000000E+00 0.  1.
</event>
<event>
 7    1  0.5753610E-013  0.5052886E+02  0.7816164E-02  0.1300439E+00
        -11   -1    0    0    0    0  0.00000000000E+00  0.00000000000E+00  0.45593999997E+02  0.45594000000E+02  0.51100000000E-03 0.  1.
         11   -1    0    0    0    0 -0.00000000000E+00 -0.00000000000E+00 -0.45593999997E+02  0.45594000000E+02  0.51100000000E-03 0. -1.
    9900012    2    1    2    0    0 -0.16205043086E+02 -0.34069340622E+02 -0.15160551468E+02  0.50528859421E+02  0.29999998695E+02 0.  0.
        -12    1    1    2    0    0  0.16205043086E+02  0.34069340622E+02  0.15160551468E+02  0.40659140579E+02  0.00000000000E+00 0.  1.
         11    1    3    3    0    0 -0.48541557711E+01 -0.27953143194E+02 -0.18076129396E+02  0.33640563266E+02  0.51100000000E-03 0. -1.
        -11    1    3    3    0    0 -0.10615924943E+02 -0.88392919527E+01  0.24331772833E+01  0.14026806357E+02  0.51100000000E-03 0.  1.
        -12    1    3    3    0    0 -0.73496237184E+00  0.27230945245E+01  0.48240064524E+00  0.28614897973E+01  0.00000000000E+00 0.  1.
</event>
<event>
 7    1  0.5753610E-013  0.5052885E+02  0.7816164E-02  0.1300439E+00
        -11   -1    0    0    0    0  0.00000000000E+00  0.00000000000E+00  0.45593999997E+02  0.45594000000E+02  0.51100000000E-03 0.  1.
         11   -1    0    0    0    0 -0.00000000000E+00 -0.00000000000E+00 -0.45593999997E+02  0.45594000000E+02  0.51100000000E-03 0. -1.
    9900012    2    1    2    0    0 -0.36988836635E+02  0.15938604125E+02 -0.55635771973E+01  0.50528849390E+02  0.29999968207E+02 0.  0.
        -12    1    1    2    0    0  0.36988836635E+02 -0.15938604125E+02  0.55635771973E+01  0.40659150610E+02  0.00000000000E+00 0.  1.
         11    1    3    3    0    0  0.42845905848E+01 -0.20771635232E+01 -0.14425869787E+01  0.49752771012E+01  0.51100000000E-03 0.  1.
        -11    1    3    3    0    0 -0.86364094882E+01  0.39278660639E+01 -0.31347839436E+01  0.99921254645E+01  0.51100000000E-03 0. -1.
        -12    1    3    3    0    0 -0.32637017731E+02  0.14087901585E+02 -0.98620627502E+00  0.35561446825E+02  0.00000000000E+00 0.  1.
</event>
<event>
 7    1  0.5753610E-013  0.5052886E+02  0.7816164E-02  0.1300439E+00
        -11   -1    0    0    0    0  0.00000000000E+00  0.00000000000E+00  0.45593999997E+02  0.45594000000E+02  0.51100000000E-03 0.  1.
         11   -1    0    0    0    0 -0.00000000000E+00 -0.00000000000E+00 -0.45593999997E+02  0.45594000000E+02  0.51100000000E-03 0. -1.
    9900012    2    1    2    0    0  0.22324991017E+02  0.28414154705E+02 -0.18638573471E+02  0.50528857946E+02  0.29999994214E+02 0.  0.
        -12    1    1    2    0    0 -0.22324991017E+02 -0.28414154705E+02  0.18638573471E+02  0.40659142054E+02  0.00000000000E+00 0.  1.
         11    1    3    3    0    0  0.13374864140E+02  0.21832041026E+02  0.30894150259E+01  0.25788941265E+02  0.51100000000E-03 0.  1.
        -11    1    3    3    0    0  0.69705385050E+01  0.27536472738E+01 -0.12997799510E+02  0.15003791945E+02  0.51100000000E-03 0. -1.
        -12    1    3    3    0    0  0.19795883718E+01  0.38284664055E+01 -0.87301889869E+01  0.97361247366E+01  0.00000000000E+00 0.  1.
</event>
<event>
 7    1  0.5753610E-013  0.5052886E+02  0.7816164E-02  0.1300439E+00
        -11   -1    0    0    0    0  0.00000000000E+00  0.00000000000E+00  0.45593999997E+02  0.45594000000E+02  0.51100000000E-03 0. -1.
         11   -1    0    0    0    0 -0.00000000000E+00 -0.00000000000E+00 -0.45593999997E+02  0.45594000000E+02  0.51100000000E-03 0.  1.
    9900012    2    1    2    0    0  0.38349344170E+02 -0.76133287583E+01  0.11159344550E+02  0.50528856578E+02  0.29999990053E+02 0.  0.
        -12    1    1    2    0    0 -0.38349344170E+02  0.76133287583E+01 -0.11159344550E+02  0.40659143422E+02  0.00000000000E+00 0.  1.
         11    1    3    3    0    0  0.79016931021E+01 -0.12059481611E+02  0.68560554985E+01  0.15964753298E+02  0.51100000000E-03 0. -1.
        -11    1    3    3    0    0  0.64556931259E+00  0.18230462096E+01  0.42251136658E+01  0.46467023759E+01  0.51100000000E-03 0.  1.
        -12    1    3    3    0    0  0.29802081755E+02  0.26231066435E+01  0.78175385746E-01  0.29917400903E+02  0.00000000000E+00 0.  1.
</event>
<event>
 7    1  0.5753610E-013  0.5052886E+02  0.7816164E-02  0.1300439E+00
        -11   -1    0    0    0    0  0.00000000000E+00  0.00000000000E+00  0.45593999997E+02  0.45594000000E+02  0.51100000000E-03 0.  1.
         11   -1    0    0    0    0 -0.00000000000E+00 -0.00000000000E+00 -0.45593999997E+02  0.45594000000E+02  0.51100000000E-03 0. -1.
    9900012    2    1    2    0    0  0.17129285317E+02  0.18444559476E+02 -0.31930410660E+02  0.50528864315E+02  0.30000013571E+02 0.  0.
        -12    1    1    2    0    0 -0.17129285317E+02 -0.18444559476E+02  0.31930410660E+02  0.40659135685E+02  0.00000000000E+00 0.  1.
         11    1    3    3    0    0  0.11696044177E+02  0.10515418726E+02 -0.22732943584E+02  0.27643411595E+02  0.51100000000E-03 0. -1.
        -11    1    3    3    0    0  0.97358908261E+01  0.54217051804E+01  0.13463405644E+01  0.11224753468E+02  0.51100000000E-03 0.  1.
         12    1    3    3    0    0 -0.43026496867E+01  0.25074355693E+01 -0.10543807641E+02  0.11660699252E+02  0.00000000000E+00 0. -1.
</event>
<event>
 7    1  0.5753610E-013  0.5052886E+02  0.7816164E-02  0.1300439E+00
        -11   -1    0    0    0    0  0.00000000000E+00  0.00000000000E+00  0.45593999997E+02  0.45594000000E+02  0.51100000000E-03 0.  1.
         11   -1    0    0    0    0 -0.00000000000E+00 -0.00000000000E+00 -0.45593999997E+02  0.45594000000E+02  0.51100000000E-03 0. -1.
    9900012    2    1    2    0    0 -0.37471910624E+00  0.12237135934E+02 -0.38772128209E+02  0.50528857902E+02  0.29999994080E+02 0.  0.
        -12    1    1    2    0    0  0.37471910624E+00 -0.12237135934E+02  0.38772128209E+02  0.40659142098E+02  0.00000000000E+00 0.  1.
         11    1    3    3    0    0 -0.28227602654E+01  0.96539603992E+01 -0.13616754260E+02  0.16928760254E+02  0.51100000000E-03 0. -1.
        -11    1    3    3    0    0  0.94058138257E+01  0.84111700104E+01 -0.18288116819E+02  0.22218738302E+02  0.51100000000E-03 0.  1.
        -12    1    3    3    0    0 -0.69577726666E+01 -0.58279944758E+01 -0.68672571298E+01  0.11381359347E+02  0.00000000000E+00 0.  1.
</event>
<event>
 7    1  0.5753610E-013  0.5052887E+02  0.7816164E-02  0.1300439E+00
        -11   -1    0    0    0    0  0.00000000000E+00  0.00000000000E+00  0.45593999997E+02  0.45594000000E+02  0.51100000000E-03 0.  1.
         11   -1    0    0    0    0 -0.00000000000E+00 -0.00000000000E+00 -0.45593999997E+02  0.45594000000E+02  0.51100000000E-03 0. -1.
    9900012    2    1    2    0    0  0.30485720694E+02  0.22405512141E+02 -0.14892237196E+02  0.50528869793E+02  0.30000030223E+02 0.  0.
        -12    1    1    2    0    0 -0.30485720694E+02 -0.22405512141E+02  0.14892237196E+02  0.40659130207E+02  0.00000000000E+00 0.  1.
         11    1    3    3    0    0  0.17132396837E+02  0.14205288537E+02 -0.14253009420E+02  0.26428346933E+02  0.51100000000E-03 0. -1.
        -11    1    3    3    0    0  0.54564984725E+01  0.13512943711E+02 -0.51428586166E+00  0.14582095650E+02  0.51100000000E-03 0.  1.
         12    1    3    3    0    0  0.78968253840E+01 -0.53127201074E+01 -0.12494191393E+00  0.95184272108E+01  0.00000000000E+00 0. -1.
</event>
<event>
 7    1  0.5753610E-013  0.5052886E+02  0.7816164E-02  0.1300439E+00
        -11   -1    0    0    0    0  0.00000000000E+00  0.00000000000E+00  0.45593999997E+02  0.45594000000E+02  0.51100000000E-03 0. -1.
         11   -1    0    0    0    0 -0.00000000000E+00 -0.00000000000E+00 -0.45593999997E+02  0.45594000000E+02  0.51100000000E-03 0.  1.
    9900012    2    1    2    0    0 -0.22883687258E+02 -0.30630167924E+02  0.13830962045E+02  0.50528857847E+02  0.29999993911E+02 0.  0.
        -12    1    1    2    0    0  0.22883687258E+02  0.30630167924E+02 -0.13830962045E+02  0.40659142153E+02  0.00000000000E+00 0.  1.
         11    1    3    3    0    0 -0.64670917117E+01  0.32147030942E+01 -0.19791401212E+00  0.72247326185E+01  0.51100000000E-03 0.  1.
        -11    1    3    3    0    0 -0.13160838227E+02 -0.95996937881E+01  0.34466099723E+01  0.16650552670E+02  0.51100000000E-03 0. -1.
        -12    1    3    3    0    0 -0.32557573194E+01 -0.24245177230E+02  0.10582266084E+02  0.26653572558E+02  0.00000000000E+00 0.  1.
</event>
<event>
 7    1  0.5753610E-013  0.5052886E+02  0.7816164E-02  0.1300439E+00
        -11   -1    0    0    0    0  0.00000000000E+00  0.00000000000E+00  0.45593999997E+02  0.45594000000E+02  0.51100000000E-03 0.  1.
         11   -1    0    0    0    0 -0.00000000000E+00 -0.00000000000E+00 -0.45593999997E+02  0.45594000000E+02  0.51100000000E-03 0. -1.
    9900012    2    1    2    0    0 -0.59719799630E+01 -0.34565119359E+02 -0.20560968550E+02  0.50528862667E+02  0.30000008562E+02 0.  0.
        -12    1    1    2    0    0  0.59719799630E+01  0.34565119359E+02  0.20560968550E+02  0.40659137333E+02  0.00000000000E+00 0.  1.
         11    1    3    3    0    0 -0.17099447787E+01 -0.93112050055E+01 -0.72896958556E+01  0.11948310162E+02  0.51100000000E-03 0. -1.
        -11    1    3    3    0    0 -0.15376306112E+01 -0.20825181010E+02 -0.20771999440E+02  0.29453835624E+02  0.51100000000E-03 0.  1.
        -12    1    3    3    0    0 -0.27244045731E+01 -0.44287333435E+01  0.75007267455E+01  0.91267168805E+01  0.00000000000E+00 0.  1.
</event>
<event>
 7    1  0.5753610E-013  0.5052886E+02  0.7816164E-02  0.1300439E+00
        -11   -1    0    0    0    0  0.00000000000E+00  0.00000000000E+00  0.45593999997E+02  0.45594000000E+02  0.51100000000E-03 0.  1.
         11   -1    0    0    0    0 -0.00000000000E+00 -0.00000000000E+00 -0.45593999997E+02  0.45594000000E+02  0.51100000000E-03 0. -1.
    9900012    2    1    2    0    0  0.28489096285E+01 -0.63523993382E+01 -0.40058660323E+02  0.50528861663E+02  0.30000005511E+02 0.  0.
        -12    1    1    2    0    0 -0.28489096285E+01  0.63523993382E+01  0.40058660323E+02  0.40659138337E+02  0.00000000000E+00 0.  1.
         11    1    3    3    0    0 -0.80978967572E+01  0.25561243011E+01 -0.10868593487E+02  0.13792607730E+02  0.51100000000E-03 0. -1.
        -11    1    3    3    0    0  0.55924423812E+01 -0.24218133246E+01  0.26870758510E+00  0.61002291427E+01  0.51100000000E-03 0.  1.
        -12    1    3    3    0    0  0.53543640046E+01 -0.64867103146E+01 -0.29458774421E+02  0.30636024791E+02  0.00000000000E+00 0.  1.
</event>
<event>
 7    1  0.5753610E-013  0.5052886E+02  0.7816164E-02  0.1300439E+00
        -11   -1    0    0    0    0  0.00000000000E+00  0.00000000000E+00  0.45593999997E+02  0.45594000000E+02  0.51100000000E-03 0.  1.
         11   -1    0    0    0    0 -0.00000000000E+00 -0.00000000000E+00 -0.45593999997E+02  0.45594000000E+02  0.51100000000E-03 0. -1.
    9900012    2    1    2    0    0  0.25933998163E+02  0.20700840975E+02  0.23496136232E+02  0.50528862089E+02  0.30000006807E+02 0.  0.
        -12    1    1    2    0    0 -0.25933998163E+02 -0.20700840975E+02 -0.23496136232E+02  0.40659137911E+02  0.00000000000E+00 0.  1.
         11    1    3    3    0    0  0.78633850403E+01  0.14856237365E+01  0.18888405354E+01  0.82223853600E+01  0.51100000000E-03 0.  1.
        -11    1    3    3    0    0  0.19285892729E+02  0.19820013514E+02  0.25848105859E+02  0.37853707491E+02  0.51100000000E-03 0. -1.
         12    1    3    3    0    0 -0.12152796060E+01 -0.60479627523E+00 -0.42408101628E+01  0.44527692386E+01  0.00000000000E+00 0. -1.
</event>
<event>
 7    1  0.5753610E-013  0.5052886E+02  0.7816164E-02  0.1300439E+00
        -11   -1    0    0    0    0  0.00000000000E+00  0.00000000000E+00  0.45593999997E+02  0.45594000000E+02  0.51100000000E-03 0. -1.
         11   -1    0    0    0    0 -0.00000000000E+00 -0.00000000000E+00 -0.45593999997E+02  0.45594000000E+02  0.51100000000E-03 0.  1.
    9900012    2    1    2    0    0  0.34394676063E+02 -0.14567268015E+02  0.16061330341E+02  0.50528863619E+02  0.30000011457E+02 0.  0.
        -12    1    1    2    0    0 -0.34394676063E+02  0.14567268015E+02 -0.16061330341E+02  0.40659136381E+02  0.00000000000E+00 0.  1.
         11    1    3    3    0    0  0.11514051715E+02 -0.15077755501E+01  0.14210488402E+02  0.18351696240E+02  0.51100000000E-03 0.  1.
        -11    1    3    3    0    0  0.22166598356E+02 -0.49056671339E+01  0.52701864500E+01  0.23306619621E+02  0.51100000000E-03 0. -1.
        -12    1    3    3    0    0  0.71402599274E+00 -0.81538253305E+01 -0.34193445110E+01  0.88705477578E+01  0.00000000000E+00 0.  1.
</event>
<event>
 7    1  0.5753610E-013  0.5052886E+02  0.7816164E-02  0.1300439E+00
        -11   -1    0    0    0    0  0.00000000000E+00  0.00000000000E+00  0.45593999997E+02  0.45594000000E+02  0.51100000000E-03 0. -1.
         11   -1    0    0    0    0 -0.00000000000E+00 -0.00000000000E+00 -0.45593999997E+02  0.45594000000E+02  0.51100000000E-03 0.  1.
    9900012    2    1    2    0    0 -0.16814406826E+02  0.13231896186E+01  0.36995819203E+02  0.50528859008E+02  0.29999997442E+02 0.  0.
        -12    1    1    2    0    0  0.16814406826E+02 -0.13231896186E+01 -0.36995819203E+02  0.40659140992E+02  0.00000000000E+00 0.  1.
         11    1    3    3    0    0  0.50383981250E+01 -0.15664815100E+01  0.30190901872E+00  0.52849285050E+01  0.51100000000E-03 0.  1.
        -11    1    3    3    0    0 -0.14016107142E+01  0.39686219854E+01  0.14259391614E+02  0.14867572852E+02  0.51100000000E-03 0. -1.
         12    1    3    3    0    0 -0.20451194237E+02 -0.10789508568E+01  0.22434518570E+02  0.30376357651E+02  0.00000000000E+00 0. -1.
</event>
<event>
 7    1  0.5753610E-013  0.5052888E+02  0.7816164E-02  0.1300439E+00
        -11   -1    0    0    0    0  0.00000000000E+00  0.00000000000E+00  0.45593999997E+02  0.45594000000E+02  0.51100000000E-03 0.  1.
         11   -1    0    0    0    0 -0.00000000000E+00 -0.00000000000E+00 -0.45593999997E+02  0.45594000000E+02  0.51100000000E-03 0. -1.
    9900012    2    1    2    0    0 -0.18376624042E+02 -0.26235050886E+02 -0.25043679956E+02  0.50528879106E+02  0.30000058529E+02 0.  0.
        -12    1    1    2    0    0  0.18376624042E+02  0.26235050886E+02  0.25043679956E+02  0.40659120894E+02  0.00000000000E+00 0.  1.
         11    1    3    3    0    0  0.34494128832E+01  0.13055231161E+01 -0.40950162790E+01  0.55110796068E+01  0.51100000000E-03 0. -1.
        -11    1    3    3    0    0 -0.25309683350E+01 -0.77261434758E+01  0.27638868738E+01  0.85870929094E+01  0.51100000000E-03 0.  1.
        -12    1    3    3    0    0 -0.19295068590E+02 -0.19814430527E+02 -0.23712550551E+02  0.36430706589E+02  0.00000000000E+00 0.  1.
</event>
<event>
 7    1  0.5753610E-013  0.5052885E+02  0.7816164E-02  0.1300439E+00
        -11   -1    0    0    0    0  0.00000000000E+00  0.00000000000E+00  0.45593999997E+02  0.45594000000E+02  0.51100000000E-03 0.  1.
         11   -1    0    0    0    0 -0.00000000000E+00 -0.00000000000E+00 -0.45593999997E+02  0.45594000000E+02  0.51100000000E-03 0. -1.
    9900012    2    1    2    0    0  0.25920635447E+02 -0.94516030323E+01 -0.29865604384E+02  0.50528850143E+02  0.29999970495E+02 0.  0.
        -12    1    1    2    0    0 -0.25920635447E+02  0.94516030323E+01  0.29865604384E+02  0.40659149857E+02  0.00000000000E+00 0.  1.
         11    1    3    3    0    0  0.46355669278E+01 -0.67109637147E+01 -0.84989418059E+01  0.11779538480E+02  0.51100000000E-03 0. -1.
        -11    1    3    3    0    0  0.47804887519E+00 -0.71118319714E+01 -0.14915130215E+02  0.16530813480E+02  0.51100000000E-03 0.  1.
        -12    1    3    3    0    0  0.20807019644E+02  0.43711926538E+01 -0.64515323635E+01  0.22218498183E+02  0.00000000000E+00 0.  1.
</event>
<event>
 7    1  0.5753610E-013  0.5052886E+02  0.7816164E-02  0.1300439E+00
        -11   -1    0    0    0    0  0.00000000000E+00  0.00000000000E+00  0.45593999997E+02  0.45594000000E+02  0.51100000000E-03 0. -1.
         11   -1    0    0    0    0 -0.00000000000E+00 -0.00000000000E+00 -0.45593999997E+02  0.45594000000E+02  0.51100000000E-03 0.  1.
    9900012    2    1    2    0    0 -0.10722249136E+02 -0.37615461510E+02  0.11102994179E+02  0.50528855261E+02  0.29999986051E+02 0.  0.
        -12    1    1    2    0    0  0.10722249136E+02  0.37615461510E+02 -0.11102994179E+02  0.40659144739E+02  0.00000000000E+00 0.  1.
         11    1    3    3    0    0  0.10468855938E+01 -0.11709023668E+02 -0.34285769073E+01  0.12245503035E+02  0.51100000000E-03 0. -1.
        -11    1    3    3    0    0 -0.14426860078E+01 -0.24983288076E+02  0.10933590779E+02  0.27309145603E+02  0.51100000000E-03 0.  1.
        -12    1    3    3    0    0 -0.10326448722E+02 -0.92314976638E+00  0.35979803079E+01  0.10974206623E+02  0.00000000000E+00 0.  1.
</event>
<event>
 7    1  0.5753610E-013  0.5052886E+02  0.7816164E-02  0.1300439E+00
        -11   -1    0    0    0    0  0.00000000000E+00  0.00000000000E+00  0.45593999997E+02  0.45594000000E+02  0.51100000000E-03 0.  1.
         11   -1    0    0    0    0 -0.00000000000E+00 -0.00000000000E+00 -0.45593999997E+02  0.45594000000E+02  0.51100000000E-03 0. -1.
    9900012    2    1    2    0    0  0.95635412983E+01  0.10658783844E+02 -0.38053841440E+02  0.50528857811E+02  0.29999993802E+02 0.  0.
        -12    1    1    2    0    0 -0.95635412983E+01 -0.10658783844E+02  0.38053841440E+02  0.40659142189E+02  0.00000000000E+00 0.  1.
         11    1    3    3    0    0 -0.13733737288E+00  0.18202968720E+01  0.23661338123E+01  0.29884664520E+01  0.51100000000E-03 0. -1.
        -11    1    3    3    0    0 -0.29201116356E+01  0.88119166039E+00  0.12374824685E+01  0.32916430286E+01  0.51100000000E-03 0.  1.
         12    1    3    3    0    0  0.12620990307E+02  0.79572953118E+01 -0.41657457721E+02  0.44248748330E+02  0.00000000000E+00 0. -1.
</event>
<event>
 7    1  0.5753610E-013  0.5052885E+02  0.7816164E-02  0.1300439E+00
        -11   -1    0    0    0    0  0.00000000000E+00  0.00000000000E+00  0.45593999997E+02  0.45594000000E+02  0.51100000000E-03 0. -1.
         11   -1    0    0    0    0 -0.00000000000E+00 -0.00000000000E+00 -0.45593999997E+02  0.45594000000E+02  0.51100000000E-03 0.  1.
    9900012    2    1    2    0    0 -0.15505983433E+02 -0.87491727640E+01  0.36553835998E+02  0.50528850077E+02  0.29999970295E+02 0.  0.
        -12    1    1    2    0    0  0.15505983433E+02  0.87491727640E+01 -0.36553835998E+02  0.40659149923E+02  0.00000000000E+00 0.  1.
         11    1    3    3    0    0  0.37515517037E+01  0.28318220117E+01  0.47692261806E+00  0.47244906113E+01  0.51100000000E-03 0.  1.
        -11    1    3    3    0    0 -0.19619926186E+01 -0.11531182460E+00  0.18516275292E+02  0.18620289009E+02  0.51100000000E-03 0. -1.
         12    1    3    3    0    0 -0.17295542518E+02 -0.11465682951E+02  0.17560638088E+02  0.27184070457E+02  0.00000000000E+00 0. -1.
</event>
<event>
 7    1  0.5753610E-013  0.5052886E+02  0.7816164E-02  0.1300439E+00
        -11   -1    0    0    0    0  0.00000000000E+00  0.00000000000E+00  0.45593999997E+02  0.45594000000E+02  0.51100000000E-03 0.  1.
         11   -1    0    0    0    0 -0.00000000000E+00 -0.00000000000E+00 -0.45593999997E+02  0.45594000000E+02  0.51100000000E-03 0. -1.
    9900012    2    1    2    0    0 -0.35805223933E+02 -0.19167959521E+02 -0.19341437078E+01  0.50528860253E+02  0.30000001224E+02 0.  0.
        -12    1    1    2    0    0  0.35805223933E+02  0.19167959521E+02  0.19341437078E+01  0.40659139747E+02  0.00000000000E+00 0.  1.
         11    1    3    3    0    0 -0.21090561425E+02 -0.93321499330E+01  0.41523619126E+01  0.23433798525E+02  0.51100000000E-03 0. -1.
        -11    1    3    3    0    0 -0.99515940579E+01  0.40212762119E+01 -0.62903711014E+01  0.12440806064E+02  0.51100000000E-03 0.  1.
         12    1    3    3    0    0 -0.47630684499E+01 -0.13857085800E+02  0.20386548094E+00  0.14654255664E+02  0.00000000000E+00 0. -1.
</event>
<event>
 7    1  0.5753610E-013  0.5052887E+02  0.7816164E-02  0.1300439E+00
        -11   -1    0    0    0    0  0.00000000000E+00  0.00000000000E+00  0.45593999997E+02  0.45594000000E+02  0.51100000000E-03 0. -1.
         11   -1    0    0    0    0 -0.00000000000E+00 -0.00000000000E+00 -0.45593999997E+02  0.45594000000E+02  0.51100000000E-03 0.  1.
    9900012    2    1    2    0    0  0.22069558694E+02  0.31358646414E+02  0.13517932018E+02  0.50528872956E+02  0.30000039838E+02 0.  0.
        -12    1    1    2    0    0 -0.22069558694E+02 -0.31358646414E+02 -0.13517932018E+02  0.40659127044E+02  0.00000000000E+00 0.  1.
         11    1    3    3    0    0  0.12527325294E+02  0.12401566003E+02  0.14158679756E+02  0.22609753007E+02  0.51100000000E-03 0. -1.
        -11    1    3    3    0    0 -0.54246229443E+01  0.59119491537E+01  0.44071347568E+00  0.80356645969E+01  0.51100000000E-03 0.  1.
        -12    1    3    3    0    0  0.14966856345E+02  0.13045131258E+02 -0.10814612136E+01  0.19883455352E+02  0.00000000000E+00 0.  1.
</event>
<event>
 7    1  0.5753610E-013  0.5052884E+02  0.7816164E-02  0.1300439E+00
        -11   -1    0    0    0    0  0.00000000000E+00  0.00000000000E+00  0.45593999997E+02  0.45594000000E+02  0.51100000000E-03 0.  1.
         11   -1    0    0    0    0 -0.00000000000E+00 -0.00000000000E+00 -0.45593999997E+02  0.45594000000E+02  0.51100000000E-03 0. -1.
    9900012    2    1    2    0    0  0.84818153335E+00  0.18786582006E+02 -0.36048742798E+02  0.50528844418E+02  0.29999953091E+02 0.  0.
        -12    1    1    2    0    0 -0.84818153335E+00 -0.18786582006E+02  0.36048742798E+02  0.40659155582E+02  0.00000000000E+00 0.  1.
         11    1    3    3    0    0  0.80518545542E+01  0.18386006933E+01 -0.12915121360E+02  0.15330139408E+02  0.51100000000E-03 0. -1.
        -11    1    3    3    0    0 -0.35444643234E+01 -0.34423486826E+01 -0.85126645633E+01  0.98426851022E+01  0.51100000000E-03 0.  1.
         12    1    3    3    0    0 -0.36592086975E+01  0.20390329995E+02 -0.14620956875E+02  0.25356019907E+02  0.00000000000E+00 0. -1.
</event>
<event>
 7    1  0.5753610E-013  0.5052885E+02  0.7816164E-02  0.1300439E+00
        -11   -1    0    0    0    0  0.00000000000E+00  0.00000000000E+00  0.45593999997E+02  0.45594000000E+02  0.51100000000E-03 0.  1.
         11   -1    0    0    0    0 -0.00000000000E+00 -0.00000000000E+00 -0.45593999997E+02  0.45594000000E+02  0.51100000000E-03 0. -1.
    9900012    2    1    2    0    0  0.15696357383E+02 -0.37464761601E+02  0.17838841424E+01  0.50528852941E+02  0.29999978999E+02 0.  0.
        -12    1    1    2    0    0 -0.15696357383E+02  0.37464761601E+02 -0.17838841424E+01  0.40659147059E+02  0.00000000000E+00 0.  1.
         11    1    3    3    0    0  0.16165863070E+02 -0.30877708571E+02  0.85982773029E+01  0.35898445485E+02  0.51100000000E-03 0. -1.
        -11    1    3    3    0    0  0.86720413058E+00  0.23446711945E+01  0.99536401475E+00  0.26907760586E+01  0.51100000000E-03 0.  1.
        -12    1    3    3    0    0 -0.13367098178E+01 -0.89317242250E+01 -0.78097571753E+01  0.11939631397E+02  0.00000000000E+00 0.  1.
</event>
<event>
 7    1  0.5753610E-013  0.5052887E+02  0.7816164E-02  0.1300439E+00
        -11   -1    0    0    0    0  0.00000000000E+00  0.00000000000E+00  0.45593999997E+02  0.45594000000E+02  0.51100000000E-03 0.  1.
         11   -1    0    0    0    0 -0.00000000000E+00 -0.00000000000E+00 -0.45593999997E+02  0.45594000000E+02  0.51100000000E-03 0. -1.
    9900012    2    1    2    0    0  0.33368805210E+02 -0.13241974854E+02 -0.19087636904E+02  0.50528868900E+02  0.30000027510E+02 0.  0.
        -12    1    1    2    0    0 -0.33368805210E+02  0.13241974854E+02  0.19087636904E+02  0.40659131100E+02  0.00000000000E+00 0.  1.
         11    1    3    3    0    0  0.31241221772E+01  0.20012092258E+01 -0.12300707606E+02  0.12848049876E+02  0.51100000000E-03 0. -1.
        -11    1    3    3    0    0  0.67560741562E+01  0.21939441215E+01  0.15335528948E+01  0.72670292111E+01  0.51100000000E-03 0.  1.
         12    1    3    3    0    0  0.23488608877E+02 -0.17437128202E+02 -0.83204821929E+01  0.30413789813E+02  0.00000000000E+00 0. -1.
</event>
<event>
 7    1  0.5753610E-013  0.5052886E+02  0.7816164E-02  0.1300439E+00
        -11   -1    0    0    0    0  0.00000000000E+00  0.00000000000E+00  0.45593999997E+02  0.45594000000E+02  0.51100000000E-03 0.  1.
         11   -1    0    0    0    0 -0.00000000000E+00 -0.00000000000E+00 -0.45593999997E+02  0.45594000000E+02  0.51100000000E-03 0. -1.
    9900012    2    1    2    0    0  0.17867526256E+02  0.29999354546E+01 -0.36399420586E+02  0.50528856794E+02  0.29999990711E+02 0.  0.
        -12    1    1    2    0    0 -0.17867526256E+02 -0.29999354546E+01  0.36399420586E+02  0.40659143206E+02  0.00000000000E+00 0.  1.
         11    1    3    3    0    0  0.11076687430E+02  0.21566997894E+01 -0.17581500341E+02  0.20891469860E+02  0.51100000000E-03 0. -1.
        -11    1    3    3    0    0  0.12676427611E+02  0.23696227324E+01 -0.38138650735E+01  0.13448140984E+02  0.51100000000E-03 0.  1.
        -12    1    3    3    0    0 -0.58855887853E+01 -0.15263870672E+01 -0.15004055172E+02  0.16189245950E+02  0.00000000000E+00 0.  1.
</event>
<event>
 7    1  0.5753610E-013  0.5052887E+02  0.7816164E-02  0.1300439E+00
        -11   -1    0    0    0    0  0.00000000000E+00  0.00000000000E+00  0.45593999997E+02  0.45594000000E+02  0.51100000000E-03 0.  1.
         11   -1    0    0    0    0 -0.00000000000E+00 -0.00000000000E+00 -0.45593999997E+02  0.45594000000E+02  0.51100000000E-03 0. -1.
    9900012    2    1    2    0    0 -0.40396369659E+02  0.36918683025E+01 -0.27692242172E+01  0.50528866020E+02  0.30000018755E+02 0.  0.
        -12    1    1    2    0    0  0.40396369659E+02 -0.36918683025E+01  0.27692242172E+01  0.40659133980E+02  0.00000000000E+00 0.  1.
         11    1    3    3    0    0 -0.84398658301E+00  0.46843239091E+01 -0.16662189782E+01  0.50429643844E+01  0.51100000000E-03 0.  1.
        -11    1    3    3    0    0 -0.35443844133E+02 -0.35494597255E+01  0.67563143044E+01  0.36256206842E+02  0.51100000000E-03 0. -1.
         12    1    3    3    0    0 -0.41085389430E+01  0.25570041189E+01 -0.78593195434E+01  0.92296947942E+01  0.00000000000E+00 0. -1.
</event>
<event>
 7    1  0.5753610E-013  0.5052886E+02  0.7816164E-02  0.1300439E+00
        -11   -1    0    0    0    0  0.00000000000E+00  0.00000000000E+00  0.45593999997E+02  0.45594000000E+02  0.51100000000E-03 0.  1.
         11   -1    0    0    0    0 -0.00000000000E+00 -0.00000000000E+00 -0.45593999997E+02  0.45594000000E+02  0.51100000000E-03 0. -1.
    9900012    2    1    2    0    0  0.15598399224E+02  0.84050647998E+01 -0.36595228213E+02  0.50528857109E+02  0.29999991669E+02 0.  0.
        -12    1    1    2    0    0 -0.15598399224E+02 -0.84050647998E+01  0.36595228213E+02  0.40659142891E+02  0.00000000000E+00 0.  1.
         11    1    3    3    0    0  0.29077172713E+01  0.83708927604E+01 -0.75867283916E+00  0.88939445733E+01  0.51100000000E-03 0. -1.
        -11    1    3    3    0    0 -0.16577896592E+01 -0.40056678975E+01 -0.22394050218E+01  0.48794033418E+01  0.51100000000E-03 0.  1.
         12    1    3    3    0    0  0.14348471612E+02  0.40398399369E+01 -0.33597150353E+02  0.36755509194E+02  0.00000000000E+00 0. -1.
</event>
<event>
 7    1  0.5753610E-013  0.5052886E+02  0.7816164E-02  0.1300439E+00
        -11   -1    0    0    0    0  0.00000000000E+00  0.00000000000E+00  0.45593999997E+02  0.45594000000E+02  0.51100000000E-03 0.  1.
         11   -1    0    0    0    0 -0.00000000000E+00 -0.00000000000E+00 -0.45593999997E+02  0.45594000000E+02  0.51100000000E-03 0. -1.
    9900012    2    1    2    0    0  0.30798020780E+02 -0.11415545853E+02 -0.23965248310E+02  0.50528857146E+02  0.29999991780E+02 0.  0.
        -12    1    1    2    0    0 -0.30798020780E+02  0.11415545853E+02  0.23965248310E+02  0.40659142854E+02  0.00000000000E+00 0.  1.
         11    1    3    3    0    0  0.27919880138E+01 -0.20217563946E+00 -0.99892308412E+01  0.10374044781E+02  0.51100000000E-03 0. -1.
        -11    1    3    3    0    0  0.35151667780E+01 -0.12086112265E+02 -0.80536056165E+01  0.14942927118E+02  0.51100000000E-03 0.  1.
        -12    1    3    3    0    0  0.24490865988E+02  0.87274205191E+00 -0.59224118520E+01  0.25211885247E+02  0.00000000000E+00 0.  1.
</event>
<event>
 7    1  0.5753610E-013  0.5052886E+02  0.7816164E-02  0.1300439E+00
        -11   -1    0    0    0    0  0.00000000000E+00  0.00000000000E+00  0.45593999997E+02  0.45594000000E+02  0.51100000000E-03 0.  1.
         11   -1    0    0    0    0 -0.00000000000E+00 -0.00000000000E+00 -0.45593999997E+02  0.45594000000E+02  0.51100000000E-03 0. -1.
    9900012    2    1    2    0    0  0.34310749978E+02 -0.18999979786E+02 -0.10720966471E+02  0.50528856896E+02  0.29999991021E+02 0.  0.
        -12    1    1    2    0    0 -0.34310749978E+02  0.18999979786E+02  0.10720966471E+02  0.40659143104E+02  0.00000000000E+00 0.  1.
         11    1    3    3    0    0  0.26470653732E+02 -0.34550330513E+01  0.18328416227E+01  0.26758028161E+02  0.51100000000E-03 0. -1.
        -11    1    3    3    0    0  0.10419481679E+01  0.20133129983E+00 -0.48575009054E+01  0.49720725642E+01  0.51100000000E-03 0.  1.
        -12    1    3    3    0    0  0.67981480775E+01 -0.15746278035E+02 -0.76963071879E+01  0.18798756171E+02  0.00000000000E+00 0.  1.
</event>
<event>
 7    1  0.5753610E-013  0.5052886E+02  0.7816164E-02  0.1300439E+00
        -11   -1    0    0    0    0  0.00000000000E+00  0.00000000000E+00  0.45593999997E+02  0.45594000000E+02  0.51100000000E-03 0. -1.
         11   -1    0    0    0    0 -0.00000000000E+00 -0.00000000000E+00 -0.45593999997E+02  0.45594000000E+02  0.51100000000E-03 0.  1.
    9900012    2    1    2    0    0  0.31945643304E+02  0.19261934569E+02  0.16174654706E+02  0.50528859523E+02  0.29999999006E+02 0.  0.
        -12    1    1    2    0    0 -0.31945643304E+02 -0.19261934569E+02 -0.16174654706E+02  0.40659140477E+02  0.00000000000E+00 0.  1.
         11    1    3    3    0    0  0.11383315255E+02  0.10804432802E+02 -0.98424798699E+00  0.15725278335E+02  0.51100000000E-03 0.  1.
        -11    1    3    3    0    0  0.19020507501E+02  0.13873669630E+02  0.17226066953E+02  0.29171832262E+02  0.51100000000E-03 0. -1.
        -12    1    3    3    0    0  0.15418205488E+01 -0.54161678631E+01 -0.67164259592E-01  0.56317489258E+01  0.00000000000E+00 0.  1.
</event>
<event>
 7    1  0.5753610E-013  0.5052886E+02  0.7816164E-02  0.1300439E+00
        -11   -1    0    0    0    0  0.00000000000E+00  0.00000000000E+00  0.45593999997E+02  0.45594000000E+02  0.51100000000E-03 0.  1.
         11   -1    0    0    0    0 -0.00000000000E+00 -0.00000000000E+00 -0.45593999997E+02  0.45594000000E+02  0.51100000000E-03 0. -1.
    9900012    2    1    2    0    0 -0.22582128687E+01 -0.32043315723E+02 -0.24925731208E+02  0.50528859771E+02  0.29999999759E+02 0.  0.
        -12    1    1    2    0    0  0.22582128687E+01  0.32043315723E+02  0.24925731208E+02  0.40659140229E+02  0.00000000000E+00 0.  1.
         11    1    3    3    0    0  0.54688380621E+01 -0.79875004579E+01 -0.15133552024E+02  0.17964764135E+02  0.51100000000E-03 0. -1.
        -11    1    3    3    0    0  0.56510523746E+01 -0.91697127778E+01 -0.14006600910E+01  0.10861854092E+02  0.51100000000E-03 0.  1.
         12    1    3    3    0    0 -0.13378103305E+02 -0.14886102488E+02 -0.83915190937E+01  0.21702241544E+02  0.00000000000E+00 0. -1.
</event>
<event>
 7    1  0.5753610E-013  0.5052886E+02  0.7816164E-02  0.1300439E+00
        -11   -1    0    0    0    0  0.00000000000E+00  0.00000000000E+00  0.45593999997E+02  0.45594000000E+02  0.51100000000E-03 0.  1.
         11   -1    0    0    0    0 -0.00000000000E+00 -0.00000000000E+00 -0.45593999997E+02  0.45594000000E+02  0.51100000000E-03 0. -1.
    9900012    2    1    2    0    0  0.11547981163E+01  0.39599989878E+02  0.91472878046E+01  0.50528860422E+02  0.30000001740E+02 0.  0.
        -12    1    1    2    0    0 -0.11547981163E+01 -0.39599989878E+02 -0.91472878046E+01  0.40659139578E+02  0.00000000000E+00 0.  1.
         11    1    3    3    0    0  0.16355772178E+01  0.72322633456E+01  0.82979560001E+01  0.11128199314E+02  0.51100000000E-03 0.  1.
        -11    1    3    3    0    0  0.94200539409E+01  0.22024645740E+02  0.50459768222E+01  0.24480284283E+02  0.51100000000E-03 0. -1.
         12    1    3    3    0    0 -0.99008330424E+01  0.10343080792E+02 -0.41966450177E+01  0.14920376826E+02  0.00000000000E+00 0. -1.
</event>
<event>
 7    1  0.5753610E-013  0.5052884E+02  0.7816164E-02  0.1300439E+00
        -11   -1    0    0    0    0  0.00000000000E+00  0.00000000000E+00  0.45593999997E+02  0.45594000000E+02  0.51100000000E-03 0. -1.
         11   -1    0    0    0    0 -0.00000000000E+00 -0.00000000000E+00 -0.45593999997E+02  0.45594000000E+02  0.51100000000E-03 0.  1.
    9900012    2    1    2    0    0 -0.39841156435E+02  0.73867079023E+01 -0.33594987812E+01  0.50528838280E+02  0.29999934436E+02 0.  0.
        -12    1    1    2    0    0  0.39841156435E+02 -0.73867079023E+01  0.33594987812E+01  0.40659161720E+02  0.00000000000E+00 0.  1.
         11    1    3    3    0    0 -0.12148657569E+02  0.12892880861E+01 -0.43337664204E+01  0.12962780417E+02  0.51100000000E-03 0. -1.
        -11    1    3    3    0    0  0.98084276692E+00  0.41487050366E+01 -0.65891681730E+01  0.78479897737E+01  0.51100000000E-03 0.  1.
        -12    1    3    3    0    0 -0.28673341633E+02  0.19487147795E+01  0.75634358121E+01  0.29718068089E+02  0.00000000000E+00 0.  1.
</event>
<event>
 7    1  0.5753610E-013  0.5052879E+02  0.7816164E-02  0.1300439E+00
        -11   -1    0    0    0    0  0.00000000000E+00  0.00000000000E+00  0.45593999997E+02  0.45594000000E+02  0.51100000000E-03 0.  1.
         11   -1    0    0    0    0 -0.00000000000E+00 -0.00000000000E+00 -0.45593999997E+02  0.45594000000E+02  0.51100000000E-03 0. -1.
    9900012    2    1    2    0    0 -0.19941912808E+02 -0.34711445488E+02 -0.71138828987E+01  0.50528786232E+02  0.29999776231E+02 0.  0.
        -12    1    1    2    0    0  0.19941912808E+02  0.34711445488E+02  0.71138828987E+01  0.40659213768E+02  0.00000000000E+00 0.  1.
         11    1    3    3    0    0 -0.92364978409E+01 -0.54495286112E+01  0.42198807471E+01  0.11524653931E+02  0.51100000000E-03 0.  1.
        -11    1    3    3    0    0 -0.11398829158E+02 -0.68879689161E+01 -0.98600191244E+01  0.16570980639E+02  0.51100000000E-03 0. -1.
        -12    1    3    3    0    0  0.69341419029E+00 -0.22373947960E+02 -0.14737445214E+01  0.22433151662E+02  0.00000000000E+00 0.  1.
</event>
<event>
 7    1  0.5753610E-013  0.5052886E+02  0.7816164E-02  0.1300439E+00
        -11   -1    0    0    0    0  0.00000000000E+00  0.00000000000E+00  0.45593999997E+02  0.45594000000E+02  0.51100000000E-03 0.  1.
         11   -1    0    0    0    0 -0.00000000000E+00 -0.00000000000E+00 -0.45593999997E+02  0.45594000000E+02  0.51100000000E-03 0. -1.
    9900012    2    1    2    0    0 -0.10660611655E+02 -0.77779542522E+01 -0.38458036078E+02  0.50528858935E+02  0.29999997218E+02 0.  0.
        -12    1    1    2    0    0  0.10660611655E+02  0.77779542522E+01  0.38458036078E+02  0.40659141065E+02  0.00000000000E+00 0.  1.
         11    1    3    3    0    0 -0.11458887988E+00 -0.10376252744E+02 -0.89526756704E+01  0.13705114138E+02  0.51100000000E-03 0.  1.
        -11    1    3    3    0    0 -0.11830017965E+02 -0.55494308060E+01 -0.13328001689E+02  0.18664970844E+02  0.51100000000E-03 0. -1.
         12    1    3    3    0    0  0.12839951899E+01  0.81477292980E+01 -0.16177358718E+02  0.18158773953E+02  0.00000000000E+00 0. -1.
</event>
<event>
 7    1  0.5753610E-013  0.5052886E+02  0.7816164E-02  0.1300439E+00
        -11   -1    0    0    0    0  0.00000000000E+00  0.00000000000E+00  0.45593999997E+02  0.45594000000E+02  0.51100000000E-03 0.  1.
         11   -1    0    0    0    0 -0.00000000000E+00 -0.00000000000E+00 -0.45593999997E+02  0.45594000000E+02  0.51100000000E-03 0. -1.
    9900012    2    1    2    0    0 -0.21237338078E+02  0.34482797324E+02 -0.36163329791E+01  0.50528859525E+02  0.29999999012E+02 0.  0.
        -12    1    1    2    0    0  0.21237338078E+02 -0.34482797324E+02  0.36163329791E+01  0.40659140475E+02  0.00000000000E+00 0.  1.
         11    1    3    3    0    0 -0.24514942501E+02  0.15684831621E+02  0.21845269155E+00  0.29104021554E+02  0.51100000000E-03 0.  1.
        -11    1    3    3    0    0 -0.27666366050E+01  0.86785757087E+01 -0.30725884297E+01  0.96131552757E+01  0.51100000000E-03 0. -1.
        -12    1    3    3    0    0  0.60442410273E+01  0.10119389994E+02 -0.76219724099E+00  0.11811682695E+02  0.00000000000E+00 0.  1.
</event>
<event>
 7    1  0.5753610E-013  0.5052890E+02  0.7816164E-02  0.1300439E+00
        -11   -1    0    0    0    0  0.00000000000E+00  0.00000000000E+00  0.45593999997E+02  0.45594000000E+02  0.51100000000E-03 0.  1.
         11   -1    0    0    0    0 -0.00000000000E+00 -0.00000000000E+00 -0.45593999997E+02  0.45594000000E+02  0.51100000000E-03 0. -1.
    9900012    2    1    2    0    0 -0.88436572940E+01  0.28252704427E+02 -0.27870003730E+02  0.50528896595E+02  0.30000111690E+02 0.  0.
        -12    1    1    2    0    0  0.88436572940E+01 -0.28252704427E+02  0.27870003730E+02  0.40659103405E+02  0.00000000000E+00 0.  1.
         11    1    3    3    0    0 -0.46518935219E+01  0.20768047522E+02 -0.26842046051E+02  0.34255617754E+02  0.51100000000E-03 0. -1.
        -11    1    3    3    0    0 -0.20286784040E+01  0.56881398759E+01 -0.72557447182E+01  0.94401431659E+01  0.51100000000E-03 0.  1.
        -12    1    3    3    0    0 -0.21630853681E+01  0.17965170290E+01  0.62277870394E+01  0.68331356750E+01  0.00000000000E+00 0.  1.
</event>
<event>
 7    1  0.5753610E-013  0.5052884E+02  0.7816164E-02  0.1300439E+00
        -11   -1    0    0    0    0  0.00000000000E+00  0.00000000000E+00  0.45593999997E+02  0.45594000000E+02  0.51100000000E-03 0. -1.
         11   -1    0    0    0    0 -0.00000000000E+00 -0.00000000000E+00 -0.45593999997E+02  0.45594000000E+02  0.51100000000E-03 0.  1.
    9900012    2    1    2    0    0 -0.30121024714E+02 -0.23892944967E+02 -0.13229451609E+02  0.50528839423E+02  0.29999937909E+02 0.  0.
        -12    1    1    2    0    0  0.30121024714E+02  0.23892944967E+02  0.13229451609E+02  0.40659160577E+02  0.00000000000E+00 0.  1.
         11    1    3    3    0    0 -0.64243274100E+01 -0.88363103981E+01  0.22782815584E+01  0.11159880431E+02  0.51100000000E-03 0. -1.
        -11    1    3    3    0    0  0.35329805579E+01 -0.64839316065E+01 -0.51421348550E+01  0.89980482233E+01  0.51100000000E-03 0.  1.
        -12    1    3    3    0    0 -0.27229677861E+02 -0.85727029621E+01 -0.10365598312E+02  0.30370910768E+02  0.00000000000E+00 0.  1.
</event>
<event>
 7    1  0.5753610E-013  0.5052885E+02  0.7816164E-02  0.1300439E+00
        -11   -1    0    0    0    0  0.00000000000E+00  0.00000000000E+00  0.45593999997E+02  0.45594000000E+02  0.51100000000E-03 0.  1.
         11   -1    0    0    0    0 -0.00000000000E+00 -0.00000000000E+00 -0.45593999997E+02  0.45594000000E+02  0.51100000000E-03 0. -1.
    9900012    2    1    2    0    0 -0.95522556653E+01  0.82720322212E+01 -0.38645752926E+02  0.50528851896E+02  0.29999975822E+02 0.  0.
        -12    1    1    2    0    0  0.95522556653E+01 -0.82720322212E+01  0.38645752926E+02  0.40659148104E+02  0.00000000000E+00 0.  1.
         11    1    3    3    0    0 -0.16031223751E+01 -0.65348625663E+01 -0.14009910700E+02  0.15541944158E+02  0.51100000000E-03 0. -1.
        -11    1    3    3    0    0 -0.40065584158E-01  0.47478918410E+01 -0.21217416997E+02  0.21742190931E+02  0.51100000000E-03 0.  1.
        -12    1    3    3    0    0 -0.79090677060E+01  0.10059002946E+02 -0.34184252288E+01  0.13244716807E+02  0.00000000000E+00 0.  1.
</event>
<event>
 7    1  0.5753610E-013  0.5052886E+02  0.7816164E-02  0.1300439E+00
        -11   -1    0    0    0    0  0.00000000000E+00  0.00000000000E+00  0.45593999997E+02  0.45594000000E+02  0.51100000000E-03 0.  1.
         11   -1    0    0    0    0 -0.00000000000E+00 -0.00000000000E+00 -0.45593999997E+02  0.45594000000E+02  0.51100000000E-03 0. -1.
    9900012    2    1    2    0    0  0.23749451615E+02  0.12101677469E+02 -0.30703069466E+02  0.50528861738E+02  0.30000005739E+02 0.  0.
        -12    1    1    2    0    0 -0.23749451615E+02 -0.12101677469E+02  0.30703069466E+02  0.40659138262E+02  0.00000000000E+00 0.  1.
         11    1    3    3    0    0  0.10668245111E+02  0.57362102674E+01 -0.13537135482E+02  0.18165065353E+02  0.51100000000E-03 0.  1.
        -11    1    3    3    0    0  0.32743634651E+01  0.49408288815E+00 -0.20254777293E+02  0.20523683331E+02  0.51100000000E-03 0. -1.
        -12    1    3    3    0    0  0.98068430390E+01  0.58713843132E+01  0.30888433087E+01  0.11840113054E+02  0.00000000000E+00 0.  1.
</event>
<event>
 7    1  0.5753610E-013  0.5052886E+02  0.7816164E-02  0.1300439E+00
        -11   -1    0    0    0    0  0.00000000000E+00  0.00000000000E+00  0.45593999997E+02  0.45594000000E+02  0.51100000000E-03 0.  1.
         11   -1    0    0    0    0 -0.00000000000E+00 -0.00000000000E+00 -0.45593999997E+02  0.45594000000E+02  0.51100000000E-03 0. -1.
    9900012    2    1    2    0    0 -0.31900304405E+02 -0.70176794048E+01 -0.24213393463E+02  0.50528859965E+02  0.30000000351E+02 0.  0.
        -12    1    1    2    0    0  0.31900304405E+02  0.70176794048E+01  0.24213393463E+02  0.40659140035E+02  0.00000000000E+00 0.  1.
         11    1    3    3    0    0 -0.25809727703E+02 -0.56385840573E+00 -0.11385732373E+02  0.28215153417E+02  0.51100000000E-03 0. -1.
        -11    1    3    3    0    0 -0.43316667715E+01 -0.37484477691E+01  0.27861068133E+01  0.63699755991E+01  0.51100000000E-03 0.  1.
        -12    1    3    3    0    0 -0.17589099305E+01 -0.27053732299E+01 -0.15613767903E+02  0.15943730949E+02  0.00000000000E+00 0.  1.
</event>
<event>
 7    1  0.5753610E-013  0.5052886E+02  0.7816164E-02  0.1300439E+00
        -11   -1    0    0    0    0  0.00000000000E+00  0.00000000000E+00  0.45593999997E+02  0.45594000000E+02  0.51100000000E-03 0.  1.
         11   -1    0    0    0    0 -0.00000000000E+00 -0.00000000000E+00 -0.45593999997E+02  0.45594000000E+02  0.51100000000E-03 0. -1.
    9900012    2    1    2    0    0  0.31320678202E+02  0.25014756927E+02 -0.68148995090E+01  0.50528858316E+02  0.29999995337E+02 0.  0.
        -12    1    1    2    0    0 -0.31320678202E+02 -0.25014756927E+02  0.68148995090E+01  0.40659141684E+02  0.00000000000E+00 0.  1.
         11    1    3    3    0    0  0.20974516523E+02  0.22419956822E+02 -0.14638653648E+01  0.30736423171E+02  0.51100000000E-03 0. -1.
        -11    1    3    3    0    0  0.11325969645E+02  0.77609354410E+01 -0.31167158445E+01  0.14079191214E+02  0.51100000000E-03 0.  1.
        -12    1    3    3    0    0 -0.97980796636E+00 -0.51661353352E+01 -0.22343182997E+01  0.57132439312E+01  0.00000000000E+00 0.  1.
</event>
<event>
 7    1  0.5753610E-013  0.5052887E+02  0.7816164E-02  0.1300439E+00
        -11   -1    0    0    0    0  0.00000000000E+00  0.00000000000E+00  0.45593999997E+02  0.45594000000E+02  0.51100000000E-03 0.  1.
         11   -1    0    0    0    0 -0.00000000000E+00 -0.00000000000E+00 -0.45593999997E+02  0.45594000000E+02  0.51100000000E-03 0. -1.
    9900012    2    1    2    0    0 -0.26497943861E+02 -0.29538011549E+02  0.88616881588E+01  0.50528872216E+02  0.30000037587E+02 0.  0.
        -12    1    1    2    0    0  0.26497943861E+02  0.29538011549E+02 -0.88616881588E+01  0.40659127784E+02  0.00000000000E+00 0.  1.
         11    1    3    3    0    0 -0.89124805059E+01 -0.24462676516E+02  0.83296529544E+01  0.27335653819E+02  0.51100000000E-03 0. -1.
        -11    1    3    3    0    0 -0.28064382897E+01 -0.48619149923E+01 -0.48946352306E+01  0.74479371351E+01  0.51100000000E-03 0.  1.
        -12    1    3    3    0    0 -0.14779025065E+02 -0.21342004059E+00  0.54266704350E+01  0.15745281262E+02  0.00000000000E+00 0.  1.
</event>
<event>
 7    1  0.5753610E-013  0.5052887E+02  0.7816164E-02  0.1300439E+00
        -11   -1    0    0    0    0  0.00000000000E+00  0.00000000000E+00  0.45593999997E+02  0.45594000000E+02  0.51100000000E-03 0.  1.
         11   -1    0    0    0    0 -0.00000000000E+00 -0.00000000000E+00 -0.45593999997E+02  0.45594000000E+02  0.51100000000E-03 0. -1.
    9900012    2    1    2    0    0 -0.43380382571E+01  0.16581998554E+02 -0.36869820775E+02  0.50528868972E+02  0.30000027728E+02 0.  0.
        -12    1    1    2    0    0  0.43380382571E+01 -0.16581998554E+02  0.36869820775E+02  0.40659131028E+02  0.00000000000E+00 0.  1.
         11    1    3    3    0    0 -0.79019799934E+01  0.12238466717E+02 -0.36317714319E+01  0.15013697725E+02  0.51100000000E-03 0. -1.
        -11    1    3    3    0    0 -0.19380126517E+01  0.19315248091E+01 -0.25843365590E+02  0.25987809188E+02  0.51100000000E-03 0.  1.
        -12    1    3    3    0    0  0.55019543880E+01  0.24120070283E+01 -0.73946837534E+01  0.95273620591E+01  0.00000000000E+00 0.  1.
</event>
<event>
 7    1  0.5753610E-013  0.5052886E+02  0.7816164E-02  0.1300439E+00
        -11   -1    0    0    0    0  0.00000000000E+00  0.00000000000E+00  0.45593999997E+02  0.45594000000E+02  0.51100000000E-03 0. -1.
         11   -1    0    0    0    0 -0.00000000000E+00 -0.00000000000E+00 -0.45593999997E+02  0.45594000000E+02  0.51100000000E-03 0.  1.
    9900012    2    1    2    0    0  0.11601322898E+02 -0.38913922893E+02  0.20692865498E+01  0.50528855460E+02  0.29999986655E+02 0.  0.
        -12    1    1    2    0    0 -0.11601322898E+02  0.38913922893E+02 -0.20692865498E+01  0.40659144540E+02  0.00000000000E+00 0.  1.
         11    1    3    3    0    0  0.93600348357E+01 -0.14317160609E+02  0.84658796363E+01  0.19085661065E+02  0.51100000000E-03 0. -1.
        -11    1    3    3    0    0 -0.48816645859E+01 -0.18235210107E+02  0.16578707396E+01  0.18949988718E+02  0.51100000000E-03 0.  1.
        -12    1    3    3    0    0  0.71229526485E+01 -0.63615521779E+01 -0.80544638261E+01  0.12493205676E+02  0.00000000000E+00 0.  1.
</event>
<event>
 7    1  0.5753610E-013  0.5052886E+02  0.7816164E-02  0.1300439E+00
        -11   -1    0    0    0    0  0.00000000000E+00  0.00000000000E+00  0.45593999997E+02  0.45594000000E+02  0.51100000000E-03 0. -1.
         11   -1    0    0    0    0 -0.00000000000E+00 -0.00000000000E+00 -0.45593999997E+02  0.45594000000E+02  0.51100000000E-03 0.  1.
    9900012    2    1    2    0    0 -0.33967898788E+02  0.91982365456E+01  0.20365167343E+02  0.50528859028E+02  0.29999997503E+02 0.  0.
        -12    1    1    2    0    0  0.33967898788E+02 -0.91982365456E+01 -0.20365167343E+02  0.40659140972E+02  0.00000000000E+00 0.  1.
         11    1    3    3    0    0 -0.55539261037E+01  0.23607238124E+01  0.13259024376E+02  0.14567801473E+02  0.51100000000E-03 0. -1.
        -11    1    3    3    0    0  0.30652913820E+01  0.76021024815E+00  0.19557024411E+00  0.31642027210E+01  0.51100000000E-03 0.  1.
         12    1    3    3    0    0 -0.31479264067E+02  0.60773024851E+01  0.69105727226E+01  0.32796854834E+02  0.00000000000E+00 0. -1.
</event>
<event>
 7    1  0.5753610E-013  0.5052885E+02  0.7816164E-02  0.1300439E+00
        -11   -1    0    0    0    0  0.00000000000E+00  0.00000000000E+00  0.45593999997E+02  0.45594000000E+02  0.51100000000E-03 0.  1.
         11   -1    0    0    0    0 -0.00000000000E+00 -0.00000000000E+00 -0.45593999997E+02  0.45594000000E+02  0.51100000000E-03 0. -1.
    9900012    2    1    2    0    0  0.27774449633E+02 -0.10494448621E+02 -0.27777917964E+02  0.50528853050E+02  0.29999979332E+02 0.  0.
        -12    1    1    2    0    0 -0.27774449633E+02  0.10494448621E+02  0.27777917964E+02  0.40659146950E+02  0.00000000000E+00 0.  1.
         11    1    3    3    0    0  0.14902544522E+02 -0.10276566001E+02 -0.28652860755E+02  0.33892183048E+02  0.51100000000E-03 0. -1.
        -11    1    3    3    0    0 -0.17231804021E+01 -0.79327688129E-01  0.10878433781E+01  0.20393741826E+01  0.51100000000E-03 0.  1.
        -12    1    3    3    0    0  0.14595085513E+02 -0.13855493140E+00 -0.21290058675E+00  0.14597295820E+02  0.00000000000E+00 0.  1.
</event>
<event>
 7    1  0.5753610E-013  0.5052886E+02  0.7816164E-02  0.1300439E+00
        -11   -1    0    0    0    0  0.00000000000E+00  0.00000000000E+00  0.45593999997E+02  0.45594000000E+02  0.51100000000E-03 0.  1.
         11   -1    0    0    0    0 -0.00000000000E+00 -0.00000000000E+00 -0.45593999997E+02  0.45594000000E+02  0.51100000000E-03 0. -1.
    9900012    2    1    2    0    0  0.13032626644E+02 -0.32796064969E+02 -0.20192435975E+02  0.50528859511E+02  0.29999998969E+02 0.  0.
        -12    1    1    2    0    0 -0.13032626644E+02  0.32796064969E+02  0.20192435975E+02  0.40659140489E+02  0.00000000000E+00 0.  1.
         11    1    3    3    0    0 -0.53746897829E+01 -0.97169734722E+01 -0.35683961206E+01  0.11663632147E+02  0.51100000000E-03 0. -1.
        -11    1    3    3    0    0  0.54198115767E+01 -0.21190572826E+02 -0.87340210191E+01  0.23552024492E+02  0.51100000000E-03 0.  1.
        -12    1    3    3    0    0  0.12987504850E+02 -0.18885186710E+01 -0.78900188353E+01  0.15313202873E+02  0.00000000000E+00 0.  1.
</event>
<event>
 7    1  0.5753610E-013  0.5052886E+02  0.7816164E-02  0.1300439E+00
        -11   -1    0    0    0    0  0.00000000000E+00  0.00000000000E+00  0.45593999997E+02  0.45594000000E+02  0.51100000000E-03 0. -1.
         11   -1    0    0    0    0 -0.00000000000E+00 -0.00000000000E+00 -0.45593999997E+02  0.45594000000E+02  0.51100000000E-03 0.  1.
    9900012    2    1    2    0    0 -0.66248303821E+01  0.33107390263E+02  0.22653439997E+02  0.50528855748E+02  0.29999987531E+02 0.  0.
        -12    1    1    2    0    0  0.66248303821E+01 -0.33107390263E+02 -0.22653439997E+02  0.40659144252E+02  0.00000000000E+00 0.  1.
         11    1    3    3    0    0 -0.99572242726E+01  0.15968249458E+02  0.14479489666E+02  0.23744197759E+02  0.51100000000E-03 0. -1.
        -11    1    3    3    0    0  0.15325733973E+01 -0.77701792504E+00  0.86032896079E+01  0.87732052530E+01  0.51100000000E-03 0.  1.
        -12    1    3    3    0    0  0.17998204932E+01  0.17916158730E+02 -0.42933927651E+00  0.18011452736E+02  0.00000000000E+00 0.  1.
</event>
<event>
 7    1  0.5753610E-013  0.5052887E+02  0.7816164E-02  0.1300439E+00
        -11   -1    0    0    0    0  0.00000000000E+00  0.00000000000E+00  0.45593999997E+02  0.45594000000E+02  0.51100000000E-03 0.  1.
         11   -1    0    0    0    0 -0.00000000000E+00 -0.00000000000E+00 -0.45593999997E+02  0.45594000000E+02  0.51100000000E-03 0. -1.
    9900012    2    1    2    0    0  0.20226565436E+02  0.91438712426E+01 -0.34065243121E+02  0.50528866715E+02  0.30000020866E+02 0.  0.
        -12    1    1    2    0    0 -0.20226565436E+02 -0.91438712426E+01  0.34065243121E+02  0.40659133285E+02  0.00000000000E+00 0.  1.
         11    1    3    3    0    0  0.63174424794E+00  0.11216101214E+02 -0.77883933763E+01  0.13669641505E+02  0.51100000000E-03 0. -1.
        -11    1    3    3    0    0  0.67745826113E+01 -0.14419451998E+01  0.72264301305E+00  0.69639348577E+01  0.51100000000E-03 0.  1.
         12    1    3    3    0    0  0.12820238577E+02 -0.63028477140E+00 -0.26999492757E+02  0.29895290352E+02  0.00000000000E+00 0. -1.
</event>
<event>
 7    1  0.5753610E-013  0.5052886E+02  0.7816164E-02  0.1300439E+00
        -11   -1    0    0    0    0  0.00000000000E+00  0.00000000000E+00  0.45593999997E+02  0.45594000000E+02  0.51100000000E-03 0.  1.
         11   -1    0    0    0    0 -0.00000000000E+00 -0.00000000000E+00 -0.45593999997E+02  0.45594000000E+02  0.51100000000E-03 0. -1.
    9900012    2    1    2    0    0  0.45769570041E+01 -0.37842679638E+02 -0.14147380873E+02  0.50528864210E+02  0.30000013253E+02 0.  0.
        -12    1    1    2    0    0 -0.45769570041E+01  0.37842679638E+02  0.14147380873E+02  0.40659135790E+02  0.00000000000E+00 0.  1.
         11    1    3    3    0    0  0.72262274851E+01 -0.11583964818E+02 -0.66134495437E+01  0.15170508222E+02  0.51100000000E-03 0. -1.
        -11    1    3    3    0    0  0.43865301212E+01 -0.20675358837E+02  0.31844077278E+01  0.21374109628E+02  0.51100000000E-03 0.  1.
        -12    1    3    3    0    0 -0.70358006022E+01 -0.55833559831E+01 -0.10718339057E+02  0.13984246361E+02  0.00000000000E+00 0.  1.
</event>
<event>
 7    1  0.5753610E-013  0.5052886E+02  0.7816164E-02  0.1300439E+00
        -11   -1    0    0    0    0  0.00000000000E+00  0.00000000000E+00  0.45593999997E+02  0.45594000000E+02  0.51100000000E-03 0.  1.
         11   -1    0    0    0    0 -0.00000000000E+00 -0.00000000000E+00 -0.45593999997E+02  0.45594000000E+02  0.51100000000E-03 0. -1.
    9900012    2    1    2    0    0 -0.64270678816E+01 -0.40139578177E+02  0.82007924454E+00  0.50528862433E+02  0.30000007850E+02 0.  0.
        -12    1    1    2    0    0  0.64270678816E+01  0.40139578177E+02 -0.82007924454E+00  0.40659137567E+02  0.00000000000E+00 0.  1.
         11    1    3    3    0    0  0.32125733124E+01  0.15780996764E+01 -0.19478934592E+01  0.40749619711E+01  0.51100000000E-03 0. -1.
        -11    1    3    3    0    0 -0.95020622344E+01 -0.95342515724E+01  0.45817080315E+01  0.14219113492E+02  0.51100000000E-03 0.  1.
         12    1    3    3    0    0 -0.13757895961E+00 -0.32183426281E+02 -0.18137353277E+01  0.32234786970E+02  0.00000000000E+00 0. -1.
</event>
<event>
 7    1  0.5753610E-013  0.5052885E+02  0.7816164E-02  0.1300439E+00
        -11   -1    0    0    0    0  0.00000000000E+00  0.00000000000E+00  0.45593999997E+02  0.45594000000E+02  0.51100000000E-03 0.  1.
         11   -1    0    0    0    0 -0.00000000000E+00 -0.00000000000E+00 -0.45593999997E+02  0.45594000000E+02  0.51100000000E-03 0. -1.
    9900012    2    1    2    0    0  0.21186682736E+02 -0.28898025389E+02 -0.19214448806E+02  0.50528850480E+02  0.29999971518E+02 0.  0.
        -12    1    1    2    0    0 -0.21186682736E+02  0.28898025389E+02  0.19214448806E+02  0.40659149520E+02  0.00000000000E+00 0.  1.
         11    1    3    3    0    0  0.10201567863E+02 -0.23960862036E+01 -0.65079390396E+01  0.12335578088E+02  0.51100000000E-03 0. -1.
        -11    1    3    3    0    0 -0.34265514632E+01  0.20499803740E+01 -0.84320660591E+00  0.40810136125E+01  0.51100000000E-03 0.  1.
         12    1    3    3    0    0  0.14411666336E+02 -0.28551919560E+02 -0.11863303161E+02  0.34112258779E+02  0.00000000000E+00 0. -1.
</event>
<event>
 7    1  0.5753610E-013  0.5052895E+02  0.7816164E-02  0.1300438E+00
        -11   -1    0    0    0    0  0.00000000000E+00  0.00000000000E+00  0.45593999997E+02  0.45594000000E+02  0.51100000000E-03 0. -1.
         11   -1    0    0    0    0 -0.00000000000E+00 -0.00000000000E+00 -0.45593999997E+02  0.45594000000E+02  0.51100000000E-03 0.  1.
    9900012    2    1    2    0    0  0.25790378904E+02  0.30173194159E+02  0.88087052633E+01  0.50528947156E+02  0.30000265374E+02 0.  0.
        -12    1    1    2    0    0 -0.25790378904E+02 -0.30173194159E+02 -0.88087052633E+01  0.40659052844E+02  0.00000000000E+00 0.  1.
         11    1    3    3    0    0  0.75416294712E+01  0.74237486975E+01  0.47463847674E+01  0.11598120038E+02  0.51100000000E-03 0. -1.
        -11    1    3    3    0    0  0.18824735129E+02  0.11211496962E+02 -0.69342030638E+01  0.22981546710E+02  0.51100000000E-03 0.  1.
         12    1    3    3    0    0 -0.57598569629E+00  0.11537948500E+02  0.10996523560E+02  0.15949280407E+02  0.00000000000E+00 0. -1.
</event>
<event>
 7    1  0.5753610E-013  0.5052886E+02  0.7816164E-02  0.1300439E+00
        -11   -1    0    0    0    0  0.00000000000E+00  0.00000000000E+00  0.45593999997E+02  0.45594000000E+02  0.51100000000E-03 0.  1.
         11   -1    0    0    0    0 -0.00000000000E+00 -0.00000000000E+00 -0.45593999997E+02  0.45594000000E+02  0.51100000000E-03 0. -1.
    9900012    2    1    2    0    0 -0.39341667977E+02 -0.41398129231E+01 -0.93947364057E+01  0.50528856349E+02  0.29999989360E+02 0.  0.
        -12    1    1    2    0    0  0.39341667977E+02  0.41398129231E+01  0.93947364057E+01  0.40659143651E+02  0.00000000000E+00 0.  1.
         11    1    3    3    0    0 -0.80703891047E+01  0.80789597829E+01 -0.68943558109E+01  0.13339149665E+02  0.51100000000E-03 0. -1.
        -11    1    3    3    0    0 -0.59047392521E+01 -0.84957815915E+01 -0.48836074958E+01  0.11440886020E+02  0.51100000000E-03 0.  1.
        -12    1    3    3    0    0 -0.25366539620E+02 -0.37229911146E+01  0.23832269010E+01  0.25748820665E+02  0.00000000000E+00 0.  1.
</event>
<event>
 7    1  0.5753610E-013  0.5052883E+02  0.7816164E-02  0.1300439E+00
        -11   -1    0    0    0    0  0.00000000000E+00  0.00000000000E+00  0.45593999997E+02  0.45594000000E+02  0.51100000000E-03 0.  1.
         11   -1    0    0    0    0 -0.00000000000E+00 -0.00000000000E+00 -0.45593999997E+02  0.45594000000E+02  0.51100000000E-03 0. -1.
    9900012    2    1    2    0    0 -0.45996607191E+00 -0.14870362019E+02 -0.37839513549E+02  0.50528831034E+02  0.29999912412E+02 0.  0.
        -12    1    1    2    0    0  0.45996607191E+00  0.14870362019E+02  0.37839513549E+02  0.40659168966E+02  0.00000000000E+00 0.  1.
         11    1    3    3    0    0  0.47596202401E+01 -0.67104110224E+01 -0.12366233612E+02  0.14852856120E+02  0.51100000000E-03 0. -1.
        -11    1    3    3    0    0  0.70067784249E+01 -0.63190349912E+01 -0.27855617243E+01  0.98379114398E+01  0.51100000000E-03 0.  1.
         12    1    3    3    0    0 -0.12226364737E+02 -0.18409160056E+01 -0.22687718212E+02  0.25838063474E+02  0.00000000000E+00 0. -1.
</event>
<event>
 7    1  0.5753610E-013  0.5052885E+02  0.7816164E-02  0.1300439E+00
        -11   -1    0    0    0    0  0.00000000000E+00  0.00000000000E+00  0.45593999997E+02  0.45594000000E+02  0.51100000000E-03 0.  1.
         11   -1    0    0    0    0 -0.00000000000E+00 -0.00000000000E+00 -0.45593999997E+02  0.45594000000E+02  0.51100000000E-03 0. -1.
    9900012    2    1    2    0    0  0.23051293204E+02 -0.43003485300E+01 -0.33216134987E+02  0.50528846795E+02  0.29999960319E+02 0.  0.
        -12    1    1    2    0    0 -0.23051293204E+02  0.43003485300E+01  0.33216134987E+02  0.40659153205E+02  0.00000000000E+00 0.  1.
         11    1    3    3    0    0  0.34887117822E+01  0.32162634366E+01 -0.91179865966E+01  0.10278771339E+02  0.51100000000E-03 0. -1.
        -11    1    3    3    0    0  0.15818542588E+02  0.67665263532E+01 -0.15536319784E+02  0.23181660881E+02  0.51100000000E-03 0.  1.
         12    1    3    3    0    0  0.37440388340E+01 -0.14283138320E+02 -0.85618286061E+01  0.17068414576E+02  0.00000000000E+00 0. -1.
</event>
<event>
 7    1  0.5753610E-013  0.5052886E+02  0.7816164E-02  0.1300439E+00
        -11   -1    0    0    0    0  0.00000000000E+00  0.00000000000E+00  0.45593999997E+02  0.45594000000E+02  0.51100000000E-03 0.  1.
         11   -1    0    0    0    0 -0.00000000000E+00 -0.00000000000E+00 -0.45593999997E+02  0.45594000000E+02  0.51100000000E-03 0. -1.
    9900012    2    1    2    0    0  0.34897324022E+02  0.16034631433E+00 -0.20864239235E+02  0.50528863097E+02  0.30000009871E+02 0.  0.
        -12    1    1    2    0    0 -0.34897324022E+02 -0.16034631433E+00  0.20864239235E+02  0.40659136903E+02  0.00000000000E+00 0.  1.
         11    1    3    3    0    0  0.10327693577E+02 -0.40646154907E+01 -0.10869596099E+02  0.15534814879E+02  0.51100000000E-03 0. -1.
        -11    1    3    3    0    0  0.22761393133E+02  0.42204166633E+01  0.16516564680E+01  0.23208207676E+02  0.51100000000E-03 0.  1.
         12    1    3    3    0    0  0.18082373117E+01  0.45451416672E-02 -0.11646299604E+02  0.11785840543E+02  0.00000000000E+00 0. -1.
</event>
<event>
 7    1  0.5753610E-013  0.5052886E+02  0.7816164E-02  0.1300439E+00
        -11   -1    0    0    0    0  0.00000000000E+00  0.00000000000E+00  0.45593999997E+02  0.45594000000E+02  0.51100000000E-03 0.  1.
         11   -1    0    0    0    0 -0.00000000000E+00 -0.00000000000E+00 -0.45593999997E+02  0.45594000000E+02  0.51100000000E-03 0. -1.
    9900012    2    1    2    0    0  0.23837542055E+01  0.29217490973E+02 -0.28174845219E+02  0.50528856305E+02  0.29999989225E+02 0.  0.
        -12    1    1    2    0    0 -0.23837542055E+01 -0.29217490973E+02  0.28174845219E+02  0.40659143695E+02  0.00000000000E+00 0.  1.
         11    1    3    3    0    0  0.79062138334E+01  0.30184515974E+02 -0.18904175881E+02  0.36482613500E+02  0.51100000000E-03 0. -1.
        -11    1    3    3    0    0  0.24202214554E+01 -0.38634653845E+00 -0.32090699158E+01  0.40379283707E+01  0.51100000000E-03 0.  1.
        -12    1    3    3    0    0 -0.79426810832E+01 -0.58067846246E+00 -0.60615994223E+01  0.10008314435E+02  0.00000000000E+00 0.  1.
</event>
<event>
 7    1  0.5753610E-013  0.5052886E+02  0.7816164E-02  0.1300439E+00
        -11   -1    0    0    0    0  0.00000000000E+00  0.00000000000E+00  0.45593999997E+02  0.45594000000E+02  0.51100000000E-03 0.  1.
         11   -1    0    0    0    0 -0.00000000000E+00 -0.00000000000E+00 -0.45593999997E+02  0.45594000000E+02  0.51100000000E-03 0. -1.
    9900012    2    1    2    0    0  0.24379127907E+02 -0.22388702756E+01 -0.32462457380E+02  0.50528861338E+02  0.30000004522E+02 0.  0.
        -12    1    1    2    0    0 -0.24379127907E+02  0.22388702756E+01  0.32462457380E+02  0.40659138662E+02  0.00000000000E+00 0.  1.
         11    1    3    3    0    0  0.80455100655E+01 -0.27051157242E+01 -0.28568592846E+01  0.89559772514E+01  0.51100000000E-03 0. -1.
        -11    1    3    3    0    0 -0.45387075553E+01 -0.58151572625E+01 -0.80124756916E+01  0.10891082923E+02  0.51100000000E-03 0.  1.
         12    1    3    3    0    0  0.20872325397E+02  0.62814027111E+01 -0.21593122404E+02  0.30681801163E+02  0.00000000000E+00 0. -1.
</event>
<event>
 7    1  0.5753610E-013  0.5052888E+02  0.7816164E-02  0.1300439E+00
        -11   -1    0    0    0    0  0.00000000000E+00  0.00000000000E+00  0.45593999997E+02  0.45594000000E+02  0.51100000000E-03 0. -1.
         11   -1    0    0    0    0 -0.00000000000E+00 -0.00000000000E+00 -0.45593999997E+02  0.45594000000E+02  0.51100000000E-03 0.  1.
    9900012    2    1    2    0    0 -0.35275325938E+02 -0.83590190419E+01  0.18410383093E+02  0.50528880174E+02  0.30000061777E+02 0.  0.
        -12    1    1    2    0    0  0.35275325938E+02  0.83590190419E+01 -0.18410383093E+02  0.40659119826E+02  0.00000000000E+00 0.  1.
         11    1    3    3    0    0 -0.38782523145E+01  0.23278670665E+01  0.12808989728E+02  0.13584182869E+02  0.51100000000E-03 0. -1.
        -11    1    3    3    0    0 -0.22908887423E+01 -0.20277609457E+01 -0.40547693800E+01  0.50794823229E+01  0.51100000000E-03 0.  1.
         12    1    3    3    0    0 -0.29106184881E+02 -0.86591251627E+01  0.96561627447E+01  0.31865214983E+02  0.00000000000E+00 0. -1.
</event>
<event>
 7    1  0.5753610E-013  0.5052886E+02  0.7816164E-02  0.1300439E+00
        -11   -1    0    0    0    0  0.00000000000E+00  0.00000000000E+00  0.45593999997E+02  0.45594000000E+02  0.51100000000E-03 0.  1.
         11   -1    0    0    0    0 -0.00000000000E+00 -0.00000000000E+00 -0.45593999997E+02  0.45594000000E+02  0.51100000000E-03 0. -1.
    9900012    2    1    2    0    0  0.36148557930E+02 -0.41542387145E+01 -0.18143577961E+02  0.50528863746E+02  0.30000011843E+02 0.  0.
        -12    1    1    2    0    0 -0.36148557930E+02  0.41542387145E+01  0.18143577961E+02  0.40659136254E+02  0.00000000000E+00 0.  1.
         11    1    3    3    0    0  0.17951574052E+02 -0.46195433737E+01 -0.14643391199E+02  0.23622618357E+02  0.51100000000E-03 0. -1.
        -11    1    3    3    0    0  0.19562865580E+02  0.19982029014E+01 -0.85590791349E+01  0.21446593213E+02  0.51100000000E-03 0.  1.
        -12    1    3    3    0    0 -0.13658817023E+01 -0.15328982421E+01  0.50588923737E+01  0.54596521771E+01  0.00000000000E+00 0.  1.
</event>
<event>
 7    1  0.5753610E-013  0.5052886E+02  0.7816164E-02  0.1300439E+00
        -11   -1    0    0    0    0  0.00000000000E+00  0.00000000000E+00  0.45593999997E+02  0.45594000000E+02  0.51100000000E-03 0.  1.
         11   -1    0    0    0    0 -0.00000000000E+00 -0.00000000000E+00 -0.45593999997E+02  0.45594000000E+02  0.51100000000E-03 0. -1.
    9900012    2    1    2    0    0 -0.21758617319E+02 -0.24860837812E+02 -0.23699507526E+02  0.50528863987E+02  0.30000012575E+02 0.  0.
        -12    1    1    2    0    0  0.21758617319E+02  0.24860837812E+02  0.23699507526E+02  0.40659136013E+02  0.00000000000E+00 0.  1.
         11    1    3    3    0    0  0.41798673787E+01 -0.10731903574E+01 -0.19988155528E+01  0.47558692920E+01  0.51100000000E-03 0. -1.
        -11    1    3    3    0    0 -0.33745805745E+01 -0.15442396472E+02 -0.53614986410E+01  0.16691347183E+02  0.51100000000E-03 0.  1.
         12    1    3    3    0    0 -0.22563904123E+02 -0.83452509827E+01 -0.16339193332E+02  0.29081647512E+02  0.00000000000E+00 0. -1.
</event>
<event>
 7    1  0.5753610E-013  0.5052887E+02  0.7816164E-02  0.1300439E+00
        -11   -1    0    0    0    0  0.00000000000E+00  0.00000000000E+00  0.45593999997E+02  0.45594000000E+02  0.51100000000E-03 0. -1.
         11   -1    0    0    0    0 -0.00000000000E+00 -0.00000000000E+00 -0.45593999997E+02  0.45594000000E+02  0.51100000000E-03 0.  1.
    9900012    2    1    2    0    0  0.34855004788E+02  0.12127571946E+02  0.17065044320E+02  0.50528866982E+02  0.30000021679E+02 0.  0.
        -12    1    1    2    0    0 -0.34855004788E+02 -0.12127571946E+02 -0.17065044320E+02  0.40659133018E+02  0.00000000000E+00 0.  1.
         11    1    3    3    0    0  0.15083447956E+02  0.95532310757E+00  0.12317183750E+02  0.19497078249E+02  0.51100000000E-03 0. -1.
        -11    1    3    3    0    0  0.10856802486E+02 -0.20274648329E+01 -0.52469642805E+01  0.12227485771E+02  0.51100000000E-03 0.  1.
         12    1    3    3    0    0  0.89147543470E+01  0.13199713672E+02  0.99948248508E+01  0.18804302962E+02  0.00000000000E+00 0. -1.
</event>
<event>
 7    1  0.6750622E-013  0.5052887E+02  0.7816164E-02  0.1300439E+00
        -11   -1    0    0    0    0  0.00000000000E+00  0.00000000000E+00  0.45593999997E+02  0.45594000000E+02  0.51100000000E-03 0.  1.
         11   -1    0    0    0    0 -0.00000000000E+00 -0.00000000000E+00 -0.45593999997E+02  0.45594000000E+02  0.51100000000E-03 0. -1.
    9900012    2    1    2    0    0  0.86210986448E+01 -0.39511290692E+02  0.42070714561E+01  0.50528869608E+02  0.30000029660E+02 0.  0.
        -12    1    1    2    0    0 -0.86210986448E+01  0.39511290692E+02 -0.42070714561E+01  0.40659130392E+02  0.00000000000E+00 0.  1.
         11    1    3    3    0    0  0.49197864617E+01 -0.20586253446E+02  0.69250314504E+00  0.21177291863E+02  0.51100000000E-03 0. -1.
        -11    1    3    3    0    0  0.10061915327E+01 -0.60324827153E+01 -0.91982827901E+01  0.11045889537E+02  0.51100000000E-03 0.  1.
        -12    1    3    3    0    0  0.26951206504E+01 -0.12892554531E+02  0.12712851101E+02  0.18305688208E+02  0.00000000000E+00 0.  1.
</event>
<event>
 7    1  0.5753610E-013  0.5052886E+02  0.7816164E-02  0.1300439E+00
        -11   -1    0    0    0    0  0.00000000000E+00  0.00000000000E+00  0.45593999997E+02  0.45594000000E+02  0.51100000000E-03 0. -1.
         11   -1    0    0    0    0 -0.00000000000E+00 -0.00000000000E+00 -0.45593999997E+02  0.45594000000E+02  0.51100000000E-03 0.  1.
    9900012    2    1    2    0    0 -0.37943873162E+02 -0.13944285718E+02  0.43571498703E+01  0.50528863638E+02  0.30000011514E+02 0.  0.
        -12    1    1    2    0    0  0.37943873162E+02  0.13944285718E+02 -0.43571498703E+01  0.40659136362E+02  0.00000000000E+00 0.  1.
         11    1    3    3    0    0 -0.68229506727E+01 -0.10735419908E+01  0.74517670934E+01  0.10160412460E+02  0.51100000000E-03 0. -1.
        -11    1    3    3    0    0 -0.10509313758E+02  0.61714325693E+01 -0.10588165172E+01  0.12233288532E+02  0.51100000000E-03 0.  1.
        -12    1    3    3    0    0 -0.20611608731E+02 -0.19042176296E+02 -0.20358007060E+01  0.28135162646E+02  0.00000000000E+00 0.  1.
</event>
<event>
 7    1  0.5753610E-013  0.5052886E+02  0.7816164E-02  0.1300439E+00
        -11   -1    0    0    0    0  0.00000000000E+00  0.00000000000E+00  0.45593999997E+02  0.45594000000E+02  0.51100000000E-03 0.  1.
         11   -1    0    0    0    0 -0.00000000000E+00 -0.00000000000E+00 -0.45593999997E+02  0.45594000000E+02  0.51100000000E-03 0. -1.
    9900012    2    1    2    0    0  0.67264525886E+01 -0.10924513918E+02 -0.38582061326E+02  0.50528860499E+02  0.30000001974E+02 0.  0.
        -12    1    1    2    0    0 -0.67264525886E+01  0.10924513918E+02  0.38582061326E+02  0.40659139501E+02  0.00000000000E+00 0.  1.
         11    1    3    3    0    0 -0.72713064065E+01 -0.10807020210E+02 -0.25466803925E+02  0.28604574548E+02  0.51100000000E-03 0. -1.
        -11    1    3    3    0    0  0.64275406961E+01 -0.49814752519E+01 -0.86740354326E+01  0.11889796720E+02  0.51100000000E-03 0.  1.
        -12    1    3    3    0    0  0.75702182990E+01  0.48639815445E+01 -0.44412219686E+01  0.10034489231E+02  0.00000000000E+00 0.  1.
</event>
<event>
 7    1  0.5753610E-013  0.5052893E+02  0.7816164E-02  0.1300439E+00
        -11   -1    0    0    0    0  0.00000000000E+00  0.00000000000E+00  0.45593999997E+02  0.45594000000E+02  0.51100000000E-03 0.  1.
         11   -1    0    0    0    0 -0.00000000000E+00 -0.00000000000E+00 -0.45593999997E+02  0.45594000000E+02  0.51100000000E-03 0. -1.
    9900012    2    1    2    0    0 -0.31022470128E+02  0.59566810376E+01 -0.25598525171E+02  0.50528927300E+02  0.30000205021E+02 0.  0.
        -12    1    1    2    0    0  0.31022470128E+02 -0.59566810376E+01  0.25598525171E+02  0.40659072700E+02  0.00000000000E+00 0.  1.
         11    1    3    3    0    0 -0.15897784633E+02 -0.67782832387E+01 -0.15838841486E+02  0.23442559155E+02  0.51100000000E-03 0. -1.
        -11    1    3    3    0    0 -0.64715496606E+01  0.12944708547E+01 -0.10851101677E+02  0.12700512496E+02  0.51100000000E-03 0.  1.
        -12    1    3    3    0    0 -0.86531358352E+01  0.11440493422E+02  0.10914179911E+01  0.14385855649E+02  0.00000000000E+00 0.  1.
</event>
<event>
 7    1  0.5753610E-013  0.5052886E+02  0.7816164E-02  0.1300439E+00
        -11   -1    0    0    0    0  0.00000000000E+00  0.00000000000E+00  0.45593999997E+02  0.45594000000E+02  0.51100000000E-03 0.  1.
         11   -1    0    0    0    0 -0.00000000000E+00 -0.00000000000E+00 -0.45593999997E+02  0.45594000000E+02  0.51100000000E-03 0. -1.
    9900012    2    1    2    0    0 -0.23531250742E+02  0.16273372544E+02 -0.28889849411E+02  0.50528858169E+02  0.29999994890E+02 0.  0.
        -12    1    1    2    0    0  0.23531250742E+02 -0.16273372544E+02  0.28889849411E+02  0.40659141831E+02  0.00000000000E+00 0.  1.
         11    1    3    3    0    0 -0.18748572433E+02  0.15059869739E+02 -0.20991673570E+02  0.31921137266E+02  0.51100000000E-03 0. -1.
        -11    1    3    3    0    0 -0.10232317368E+02 -0.17252394525E+01 -0.32773384560E+01  0.10881990512E+02  0.51100000000E-03 0.  1.
         12    1    3    3    0    0  0.54496390587E+01  0.29387422580E+01 -0.46208373847E+01  0.77257303904E+01  0.00000000000E+00 0. -1.
</event>
<event>
 7    1  0.5753610E-013  0.5052886E+02  0.7816164E-02  0.1300439E+00
        -11   -1    0    0    0    0  0.00000000000E+00  0.00000000000E+00  0.45593999997E+02  0.45594000000E+02  0.51100000000E-03 0.  1.
         11   -1    0    0    0    0 -0.00000000000E+00 -0.00000000000E+00 -0.45593999997E+02  0.45594000000E+02  0.51100000000E-03 0. -1.
    9900012    2    1    2    0    0  0.23110188710E+02 -0.29460959402E+02 -0.15847303338E+02  0.50528856205E+02  0.29999988920E+02 0.  0.
        -12    1    1    2    0    0 -0.23110188710E+02  0.29460959402E+02  0.15847303338E+02  0.40659143795E+02  0.00000000000E+00 0.  1.
         11    1    3    3    0    0  0.25862073795E+02 -0.18189635471E+02 -0.13131273303E+02  0.34236530758E+02  0.51100000000E-03 0. -1.
        -11    1    3    3    0    0 -0.13037242947E+00 -0.32761165917E+01  0.42508235559E+01  0.53683738745E+01  0.51100000000E-03 0.  1.
        -12    1    3    3    0    0 -0.26215126555E+01 -0.79952073392E+01 -0.69668535905E+01  0.10923951572E+02  0.00000000000E+00 0.  1.
</event>
<event>
 7    1  0.6048716E-013  0.5052886E+02  0.7816164E-02  0.1300439E+00
        -11   -1    0    0    0    0  0.00000000000E+00  0.00000000000E+00  0.45593999997E+02  0.45594000000E+02  0.51100000000E-03 0. -1.
         11   -1    0    0    0    0 -0.00000000000E+00 -0.00000000000E+00 -0.45593999997E+02  0.45594000000E+02  0.51100000000E-03 0.  1.
    9900012    2    1    2    0    0 -0.23642195890E+02  0.28149584711E+02  0.17372771540E+02  0.50528859123E+02  0.29999997790E+02 0.  0.
        -12    1    1    2    0    0  0.23642195890E+02 -0.28149584711E+02 -0.17372771540E+02  0.40659140877E+02  0.00000000000E+00 0.  1.
         11    1    3    3    0    0 -0.17759363950E+02  0.19902669360E+02  0.45419730283E+01  0.27058099986E+02  0.51100000000E-03 0. -1.
        -11    1    3    3    0    0 -0.16525108556E+01 -0.14238813905E+01 -0.34415669881E+01  0.40746305276E+01  0.51100000000E-03 0.  1.
        -12    1    3    3    0    0 -0.42303210842E+01  0.96707967407E+01  0.16272365500E+02  0.19396128609E+02  0.00000000000E+00 0.  1.
</event>
<event>
 7    1  0.5753610E-013  0.5052886E+02  0.7816164E-02  0.1300439E+00
        -11   -1    0    0    0    0  0.00000000000E+00  0.00000000000E+00  0.45593999997E+02  0.45594000000E+02  0.51100000000E-03 0.  1.
         11   -1    0    0    0    0 -0.00000000000E+00 -0.00000000000E+00 -0.45593999997E+02  0.45594000000E+02  0.51100000000E-03 0. -1.
    9900012    2    1    2    0    0  0.39918115708E+02  0.59952819846E+01 -0.48750913193E+01  0.50528857324E+02  0.29999992323E+02 0.  0.
        -12    1    1    2    0    0 -0.39918115708E+02 -0.59952819846E+01  0.48750913193E+01  0.40659142676E+02  0.00000000000E+00 0.  1.
         11    1    3    3    0    0  0.31280048572E+02  0.14196113877E+01  0.14409802417E+00  0.31312577340E+02  0.51100000000E-03 0. -1.
        -11    1    3    3    0    0  0.48237633074E+01 -0.54079425960E+01  0.35161921992E+00  0.72552168751E+01  0.51100000000E-03 0.  1.
        -12    1    3    3    0    0  0.38143038281E+01  0.99836131929E+01 -0.53708085634E+01  0.11961063109E+02  0.00000000000E+00 0.  1.
</event>
<event>
 7    1  0.5753610E-013  0.5052886E+02  0.7816164E-02  0.1300439E+00
        -11   -1    0    0    0    0  0.00000000000E+00  0.00000000000E+00  0.45593999997E+02  0.45594000000E+02  0.51100000000E-03 0.  1.
         11   -1    0    0    0    0 -0.00000000000E+00 -0.00000000000E+00 -0.45593999997E+02  0.45594000000E+02  0.51100000000E-03 0. -1.
    9900012    2    1    2    0    0 -0.25899420605E+02  0.14621140234E+02 -0.27723783020E+02  0.50528857432E+02  0.29999992651E+02 0.  0.
        -12    1    1    2    0    0  0.25899420605E+02 -0.14621140234E+02  0.27723783020E+02  0.40659142568E+02  0.00000000000E+00 0.  1.
         11    1    3    3    0    0 -0.98067429874E+01  0.11502396924E+02 -0.70451188417E+01  0.16676661619E+02  0.51100000000E-03 0. -1.
        -11    1    3    3    0    0 -0.10881514107E+02  0.30448245814E+01  0.11984584317E+01  0.11362860945E+02  0.51100000000E-03 0.  1.
         12    1    3    3    0    0 -0.52111635110E+01  0.73918728918E-01 -0.21877122610E+02  0.22489334868E+02  0.00000000000E+00 0. -1.
</event>
<event>
 7    1  0.5753610E-013  0.5052886E+02  0.7816164E-02  0.1300439E+00
        -11   -1    0    0    0    0  0.00000000000E+00  0.00000000000E+00  0.45593999997E+02  0.45594000000E+02  0.51100000000E-03 0. -1.
         11   -1    0    0    0    0 -0.00000000000E+00 -0.00000000000E+00 -0.45593999997E+02  0.45594000000E+02  0.51100000000E-03 0.  1.
    9900012    2    1    2    0    0 -0.56506321620E+01  0.31848919279E+02  0.24634982155E+02  0.50528860205E+02  0.30000001080E+02 0.  0.
        -12    1    1    2    0    0  0.56506321620E+01 -0.31848919279E+02 -0.24634982155E+02  0.40659139795E+02  0.00000000000E+00 0.  1.
         11    1    3    3    0    0  0.13260179567E+01  0.32798022458E+00 -0.20102043593E+01  0.24303943047E+01  0.51100000000E-03 0. -1.
        -11    1    3    3    0    0  0.70868157133E+01  0.11154882869E+02  0.17006902665E+02  0.21538085043E+02  0.51100000000E-03 0.  1.
         12    1    3    3    0    0 -0.14063465832E+02  0.20366056185E+02  0.96382838490E+01  0.26560380858E+02  0.00000000000E+00 0. -1.
</event>
<event>
 7    1  0.5753610E-013  0.5052879E+02  0.7816164E-02  0.1300439E+00
        -11   -1    0    0    0    0  0.00000000000E+00  0.00000000000E+00  0.45593999997E+02  0.45594000000E+02  0.51100000000E-03 0. -1.
         11   -1    0    0    0    0 -0.00000000000E+00 -0.00000000000E+00 -0.45593999997E+02  0.45594000000E+02  0.51100000000E-03 0.  1.
    9900012    2    1    2    0    0  0.33366339194E+02  0.14096298461E+02  0.18470322002E+02  0.50528794199E+02  0.29999800447E+02 0.  0.
        -12    1    1    2    0    0 -0.33366339194E+02 -0.14096298461E+02 -0.18470322002E+02  0.40659205801E+02  0.00000000000E+00 0.  1.
         11    1    3    3    0    0  0.22838578543E+02  0.19105771570E+01  0.19796745375E+01  0.23003697235E+02  0.51100000000E-03 0. -1.
        -11    1    3    3    0    0 -0.48530690582E+00 -0.23114455122E+01 -0.72282439604E+00  0.24699754082E+01  0.51100000000E-03 0.  1.
         12    1    3    3    0    0  0.11013067557E+02  0.14497166816E+02  0.17213471860E+02  0.25055121556E+02  0.00000000000E+00 0. -1.
</event>
<event>
 7    1  0.5753610E-013  0.5052885E+02  0.7816164E-02  0.1300439E+00
        -11   -1    0    0    0    0  0.00000000000E+00  0.00000000000E+00  0.45593999997E+02  0.45594000000E+02  0.51100000000E-03 0. -1.
         11   -1    0    0    0    0 -0.00000000000E+00 -0.00000000000E+00 -0.45593999997E+02  0.45594000000E+02  0.51100000000E-03 0.  1.
    9900012    2    1    2    0    0 -0.15846999521E+02  0.37204211982E+02  0.42291377959E+01  0.50528851097E+02  0.29999973394E+02 0.  0.
        -12    1    1    2    0    0  0.15846999521E+02 -0.37204211982E+02 -0.42291377959E+01  0.40659148903E+02  0.00000000000E+00 0.  1.
         11    1    3    3    0    0 -0.12364031577E+02  0.21150939884E+02  0.10042295229E+02  0.26477900758E+02  0.51100000000E-03 0. -1.
        -11    1    3    3    0    0 -0.14637251953E+01  0.19372216731E+02 -0.44211042396E+01  0.19924142026E+02  0.51100000000E-03 0.  1.
         12    1    3    3    0    0 -0.20192427488E+01 -0.33189446330E+01 -0.13920531937E+01  0.41268083127E+01  0.00000000000E+00 0. -1.
</event>
<event>
 7    1  0.5753610E-013  0.5052886E+02  0.7816164E-02  0.1300439E+00
        -11   -1    0    0    0    0  0.00000000000E+00  0.00000000000E+00  0.45593999997E+02  0.45594000000E+02  0.51100000000E-03 0.  1.
         11   -1    0    0    0    0 -0.00000000000E+00 -0.00000000000E+00 -0.45593999997E+02  0.45594000000E+02  0.51100000000E-03 0. -1.
    9900012    2    1    2    0    0  0.17565531907E+01 -0.24084529255E+02 -0.32711094517E+02  0.50528859170E+02  0.29999997933E+02 0.  0.
        -12    1    1    2    0    0 -0.17565531907E+01  0.24084529255E+02  0.32711094517E+02  0.40659140830E+02  0.00000000000E+00 0.  1.
         11    1    3    3    0    0 -0.51478258891E+01 -0.16909839929E+01 -0.68293815391E+01  0.87177973546E+01  0.51100000000E-03 0. -1.
        -11    1    3    3    0    0 -0.43699072742E+01 -0.96237645794E+01  0.30211342016E+00  0.10573750850E+02  0.51100000000E-03 0.  1.
         12    1    3    3    0    0  0.11274286354E+02 -0.12769780683E+02 -0.26183826398E+02  0.31237310965E+02  0.00000000000E+00 0. -1.
</event>
<event>
 7    1  0.5753610E-013  0.5052884E+02  0.7816164E-02  0.1300439E+00
        -11   -1    0    0    0    0  0.00000000000E+00  0.00000000000E+00  0.45593999997E+02  0.45594000000E+02  0.51100000000E-03 0.  1.
         11   -1    0    0    0    0 -0.00000000000E+00 -0.00000000000E+00 -0.45593999997E+02  0.45594000000E+02  0.51100000000E-03 0. -1.
    9900012    2    1    2    0    0 -0.30925529043E+02 -0.13190935006E+02 -0.22864344216E+02  0.50528839293E+02  0.29999937515E+02 0.  0.
        -12    1    1    2    0    0  0.30925529043E+02  0.13190935006E+02  0.22864344216E+02  0.40659160707E+02  0.00000000000E+00 0.  1.
         11    1    3    3    0    0  0.44044635281E+00  0.20067189521E+01 -0.88970260588E+01  0.91311547404E+01  0.51100000000E-03 0. -1.
        -11    1    3    3    0    0 -0.46735451077E+01  0.28351338857E+01 -0.61923012750E+01  0.82598186036E+01  0.51100000000E-03 0.  1.
        -12    1    3    3    0    0 -0.26692430289E+02 -0.18032787844E+02 -0.77750168825E+01  0.33137865949E+02  0.00000000000E+00 0.  1.
</event>
<event>
 7    1  0.5753610E-013  0.5052885E+02  0.7816164E-02  0.1300439E+00
        -11   -1    0    0    0    0  0.00000000000E+00  0.00000000000E+00  0.45593999997E+02  0.45594000000E+02  0.51100000000E-03 0. -1.
         11   -1    0    0    0    0 -0.00000000000E+00 -0.00000000000E+00 -0.45593999997E+02  0.45594000000E+02  0.51100000000E-03 0.  1.
    9900012    2    1    2    0    0 -0.45519357281E+01  0.40348939768E+02  0.20998142577E+01  0.50528852454E+02  0.29999977519E+02 0.  0.
        -12    1    1    2    0    0  0.45519357281E+01 -0.40348939768E+02 -0.20998142577E+01  0.40659147546E+02  0.00000000000E+00 0.  1.
         11    1    3    3    0    0 -0.29221499253E+01  0.32094977045E+02  0.78693580554E+01  0.33174588289E+02  0.51100000000E-03 0. -1.
        -11    1    3    3    0    0 -0.68065257476E+01  0.49232595226E+01  0.69329130027E+00  0.84289934255E+01  0.51100000000E-03 0.  1.
        -12    1    3    3    0    0  0.51767399448E+01  0.33307032001E+01 -0.64628350981E+01  0.89252707392E+01  0.00000000000E+00 0.  1.
</event>
<event>
 7    1  0.5753610E-013  0.5052886E+02  0.7816164E-02  0.1300439E+00
        -11   -1    0    0    0    0  0.00000000000E+00  0.00000000000E+00  0.45593999997E+02  0.45594000000E+02  0.51100000000E-03 0.  1.
         11   -1    0    0    0    0 -0.00000000000E+00 -0.00000000000E+00 -0.45593999997E+02  0.45594000000E+02  0.51100000000E-03 0. -1.
    9900012    2    1    2    0    0 -0.39188989001E+01 -0.32208318278E+02 -0.24503713887E+02  0.50528861677E+02  0.30000005555E+02 0.  0.
        -12    1    1    2    0    0  0.39188989001E+01  0.32208318278E+02  0.24503713887E+02  0.40659138323E+02  0.00000000000E+00 0.  1.
         11    1    3    3    0    0 -0.24874818833E+01  0.28411339800E+01 -0.43276598261E+01  0.57435396964E+01  0.51100000000E-03 0. -1.
        -11    1    3    3    0    0  0.78366666809E+01 -0.20912155606E+02 -0.15698629636E+02  0.27297959072E+02  0.51100000000E-03 0.  1.
         12    1    3    3    0    0 -0.92680836977E+01 -0.14137296651E+02 -0.44774244250E+01  0.17487362909E+02  0.00000000000E+00 0. -1.
</event>
<event>
 7    1  0.5753610E-013  0.5052885E+02  0.7816164E-02  0.1300439E+00
        -11   -1    0    0    0    0  0.00000000000E+00  0.00000000000E+00  0.45593999997E+02  0.45594000000E+02  0.51100000000E-03 0.  1.
         11   -1    0    0    0    0 -0.00000000000E+00 -0.00000000000E+00 -0.45593999997E+02  0.45594000000E+02  0.51100000000E-03 0. -1.
    9900012    2    1    2    0    0 -0.17259865079E+01 -0.50552967186E+01 -0.40306715239E+02  0.50528851611E+02  0.29999974958E+02 0.  0.
        -12    1    1    2    0    0  0.17259865079E+01  0.50552967186E+01  0.40306715239E+02  0.40659148389E+02  0.00000000000E+00 0.  1.
         11    1    3    3    0    0  0.19400700090E+01 -0.67508355988E+01 -0.33643968152E+02  0.34369379485E+02  0.51100000000E-03 0. -1.
        -11    1    3    3    0    0 -0.66973105607E+01  0.26856344640E+01 -0.94735913006E+01  0.11908632735E+02  0.51100000000E-03 0.  1.
        -12    1    3    3    0    0  0.30312540438E+01 -0.99009558371E+00  0.28108442134E+01  0.42508393918E+01  0.00000000000E+00 0.  1.
</event>
<event>
 7    1  0.5753610E-013  0.5052886E+02  0.7816164E-02  0.1300439E+00
        -11   -1    0    0    0    0  0.00000000000E+00  0.00000000000E+00  0.45593999997E+02  0.45594000000E+02  0.51100000000E-03 0. -1.
         11   -1    0    0    0    0 -0.00000000000E+00 -0.00000000000E+00 -0.45593999997E+02  0.45594000000E+02  0.51100000000E-03 0.  1.
    9900012    2    1    2    0    0  0.20592069505E+02  0.28782103677E+02  0.20018067516E+02  0.50528857785E+02  0.29999993722E+02 0.  0.
        -12    1    1    2    0    0 -0.20592069505E+02 -0.28782103677E+02 -0.20018067516E+02  0.40659142215E+02  0.00000000000E+00 0.  1.
         11    1    3    3    0    0 -0.21384513382E+01 -0.44362879488E+00 -0.26275393708E+01  0.34166861196E+01  0.51100000000E-03 0. -1.
        -11    1    3    3    0    0  0.31905269546E+01  0.13419943546E+02  0.80773977230E+00  0.13817626092E+02  0.51100000000E-03 0.  1.
         12    1    3    3    0    0  0.19539993889E+02  0.15805788926E+02  0.21837867115E+02  0.33294545572E+02  0.00000000000E+00 0. -1.
</event>
<event>
 7    1  0.5753610E-013  0.5052886E+02  0.7816164E-02  0.1300439E+00
        -11   -1    0    0    0    0  0.00000000000E+00  0.00000000000E+00  0.45593999997E+02  0.45594000000E+02  0.51100000000E-03 0. -1.
         11   -1    0    0    0    0 -0.00000000000E+00 -0.00000000000E+00 -0.45593999997E+02  0.45594000000E+02  0.51100000000E-03 0.  1.
    9900012    2    1    2    0    0 -0.28212850720E+02 -0.18230220547E+02  0.22909817107E+02  0.50528860722E+02  0.30000002650E+02 0.  0.
        -12    1    1    2    0    0  0.28212850720E+02  0.18230220547E+02 -0.22909817107E+02  0.40659139278E+02  0.00000000000E+00 0.  1.
         11    1    3    3    0    0 -0.59136646475E+00 -0.29882053629E+01  0.66465983300E+01  0.73113853139E+01  0.51100000000E-03 0. -1.
        -11    1    3    3    0    0 -0.23241641601E+02 -0.17829709746E+02  0.21175921182E+02  0.36145429754E+02  0.51100000000E-03 0.  1.
        -12    1    3    3    0    0 -0.43798426546E+01  0.25876945621E+01 -0.49127024042E+01  0.70720456544E+01  0.00000000000E+00 0.  1.
</event>
<event>
 7    1  0.5753610E-013  0.5052886E+02  0.7816164E-02  0.1300439E+00
        -11   -1    0    0    0    0  0.00000000000E+00  0.00000000000E+00  0.45593999997E+02  0.45594000000E+02  0.51100000000E-03 0.  1.
         11   -1    0    0    0    0 -0.00000000000E+00 -0.00000000000E+00 -0.45593999997E+02  0.45594000000E+02  0.51100000000E-03 0. -1.
    9900012    2    1    2    0    0  0.81226558026E+01 -0.81845124272E+01 -0.38989771466E+02  0.50528855150E+02  0.29999985713E+02 0.  0.
        -12    1    1    2    0    0 -0.81226558026E+01  0.81845124272E+01  0.38989771466E+02  0.40659144850E+02  0.00000000000E+00 0.  1.
         11    1    3    3    0    0  0.12721827963E+02  0.71833973496E+01 -0.13052111554E+02  0.19590909128E+02  0.51100000000E-03 0. -1.
        -11    1    3    3    0    0 -0.27196525929E+01 -0.24734786174E+01 -0.40893788549E+01  0.54988750101E+01  0.51100000000E-03 0.  1.
         12    1    3    3    0    0 -0.18795195675E+01 -0.12894431159E+02 -0.21848281058E+02  0.25439071011E+02  0.00000000000E+00 0. -1.
</event>
<event>
 7    1  0.5753610E-013  0.5052886E+02  0.7816164E-02  0.1300439E+00
        -11   -1    0    0    0    0  0.00000000000E+00  0.00000000000E+00  0.45593999997E+02  0.45594000000E+02  0.51100000000E-03 0.  1.
         11   -1    0    0    0    0 -0.00000000000E+00 -0.00000000000E+00 -0.45593999997E+02  0.45594000000E+02  0.51100000000E-03 0. -1.
    9900012    2    1    2    0    0  0.17745944796E+02 -0.11646004422E+02 -0.34678776194E+02  0.50528862109E+02  0.30000006867E+02 0.  0.
        -12    1    1    2    0    0 -0.17745944796E+02  0.11646004422E+02  0.34678776194E+02  0.40659137891E+02  0.00000000000E+00 0.  1.
         11    1    3    3    0    0  0.53952267729E+00 -0.15500364142E+02 -0.22975276912E+02  0.27720312456E+02  0.51100000000E-03 0. -1.
        -11    1    3    3    0    0  0.10409922581E+01  0.18434028642E+00 -0.46924709489E+01  0.48100862872E+01  0.51100000000E-03 0.  1.
        -12    1    3    3    0    0  0.16165429861E+02  0.36700194334E+01 -0.70110283334E+01  0.17998463366E+02  0.00000000000E+00 0.  1.
</event>
<event>
 7    1  0.5753610E-013  0.5052886E+02  0.7816164E-02  0.1300439E+00
        -11   -1    0    0    0    0  0.00000000000E+00  0.00000000000E+00  0.45593999997E+02  0.45594000000E+02  0.51100000000E-03 0. -1.
         11   -1    0    0    0    0 -0.00000000000E+00 -0.00000000000E+00 -0.45593999997E+02  0.45594000000E+02  0.51100000000E-03 0.  1.
    9900012    2    1    2    0    0  0.80406613879E+01 -0.12278336710E+02  0.37917751873E+02  0.50528859638E+02  0.29999999355E+02 0.  0.
        -12    1    1    2    0    0 -0.80406613879E+01  0.12278336710E+02 -0.37917751873E+02  0.40659140362E+02  0.00000000000E+00 0.  1.
         11    1    3    3    0    0  0.83174086162E+01  0.62741389242E+00  0.71996466259E+01  0.11018522863E+02  0.51100000000E-03 0. -1.
        -11    1    3    3    0    0 -0.88812168031E+01 -0.25724125794E+00  0.71119460073E+01  0.11380771557E+02  0.51100000000E-03 0.  1.
         12    1    3    3    0    0  0.86044695747E+01 -0.12648509344E+02  0.23606159239E+02  0.28129565218E+02  0.00000000000E+00 0. -1.
</event>
<event>
 7    1  0.5753610E-013  0.5052886E+02  0.7816164E-02  0.1300439E+00
        -11   -1    0    0    0    0  0.00000000000E+00  0.00000000000E+00  0.45593999997E+02  0.45594000000E+02  0.51100000000E-03 0. -1.
         11   -1    0    0    0    0 -0.00000000000E+00 -0.00000000000E+00 -0.45593999997E+02  0.45594000000E+02  0.51100000000E-03 0.  1.
    9900012    2    1    2    0    0 -0.21635361577E+02  0.18627608654E+02  0.28949763903E+02  0.50528861977E+02  0.30000006464E+02 0.  0.
        -12    1    1    2    0    0  0.21635361577E+02 -0.18627608654E+02 -0.28949763903E+02  0.40659138023E+02  0.00000000000E+00 0.  1.
         11    1    3    3    0    0 -0.94996571251E+01  0.17178738727E+02  0.19767545697E+02  0.27858722384E+02  0.51100000000E-03 0. -1.
        -11    1    3    3    0    0 -0.12417650142E+01 -0.28111497840E+01  0.10461112181E+02  0.10903183562E+02  0.51100000000E-03 0.  1.
        -12    1    3    3    0    0 -0.10893939438E+02  0.42600197114E+01 -0.12788939751E+01  0.11766956030E+02  0.00000000000E+00 0.  1.
</event>
<event>
 7    1  0.5753610E-013  0.5052898E+02  0.7816164E-02  0.1300438E+00
        -11   -1    0    0    0    0  0.00000000000E+00  0.00000000000E+00  0.45593999997E+02  0.45594000000E+02  0.51100000000E-03 0.  1.
         11   -1    0    0    0    0 -0.00000000000E+00 -0.00000000000E+00 -0.45593999997E+02  0.45594000000E+02  0.51100000000E-03 0. -1.
    9900012    2    1    2    0    0 -0.13093248962E+02 -0.18576759491E+02 -0.33713899440E+02  0.50528976684E+02  0.30000355127E+02 0.  0.
        -12    1    1    2    0    0  0.13093248962E+02  0.18576759491E+02  0.33713899440E+02  0.40659023316E+02  0.00000000000E+00 0.  1.
         11    1    3    3    0    0  0.41862456552E+01 -0.36067592816E+01 -0.13078853892E+02  0.14198231742E+02  0.51100000000E-03 0. -1.
        -11    1    3    3    0    0 -0.84929655113E+01 -0.83924302945E+01 -0.22235913039E+02  0.25238842651E+02  0.51100000000E-03 0.  1.
        -12    1    3    3    0    0 -0.87865291060E+01 -0.65775699148E+01  0.16008674911E+01  0.11091902291E+02  0.00000000000E+00 0.  1.
</event>
<event>
 7    1  0.5753610E-013  0.5052888E+02  0.7816164E-02  0.1300439E+00
        -11   -1    0    0    0    0  0.00000000000E+00  0.00000000000E+00  0.45593999997E+02  0.45594000000E+02  0.51100000000E-03 0. -1.
         11   -1    0    0    0    0 -0.00000000000E+00 -0.00000000000E+00 -0.45593999997E+02  0.45594000000E+02  0.51100000000E-03 0.  1.
    9900012    2    1    2    0    0 -0.34424960698E+02 -0.13703719508E+02  0.16741977228E+02  0.50528884799E+02  0.30000075834E+02 0.  0.
        -12    1    1    2    0    0  0.34424960698E+02  0.13703719508E+02 -0.16741977228E+02  0.40659115201E+02  0.00000000000E+00 0.  1.
         11    1    3    3    0    0 -0.73419893154E+01  0.79428210639E+00  0.52895008549E+01  0.90837498164E+01  0.51100000000E-03 0. -1.
        -11    1    3    3    0    0 -0.10471263348E+02 -0.13757344901E+02  0.16670899895E+02  0.24017302063E+02  0.51100000000E-03 0.  1.
        -12    1    3    3    0    0 -0.16611708035E+02 -0.74065671380E+00 -0.52184235211E+01  0.17427832919E+02  0.00000000000E+00 0.  1.
</event>
<event>
 7    1  0.5753610E-013  0.5052886E+02  0.7816164E-02  0.1300439E+00
        -11   -1    0    0    0    0  0.00000000000E+00  0.00000000000E+00  0.45593999997E+02  0.45594000000E+02  0.51100000000E-03 0.  1.
         11   -1    0    0    0    0 -0.00000000000E+00 -0.00000000000E+00 -0.45593999997E+02  0.45594000000E+02  0.51100000000E-03 0. -1.
    9900012    2    1    2    0    0 -0.25642992738E+02  0.43031426638E+00 -0.31550231378E+02  0.50528863918E+02  0.30000012364E+02 0.  0.
        -12    1    1    2    0    0  0.25642992738E+02 -0.43031426638E+00  0.31550231378E+02  0.40659136082E+02  0.00000000000E+00 0.  1.
         11    1    3    3    0    0 -0.29918115265E+01  0.26197409568E+01  0.20348138296E+01  0.44670400125E+01  0.51100000000E-03 0. -1.
        -11    1    3    3    0    0 -0.12258465130E+01 -0.69422410194E+01 -0.17457244438E+02  0.18826916733E+02  0.51100000000E-03 0.  1.
        -12    1    3    3    0    0 -0.21425334699E+02  0.47528143289E+01 -0.16127800770E+02  0.27234907172E+02  0.00000000000E+00 0.  1.
</event>
<event>
 7    1  0.5753610E-013  0.5052886E+02  0.7816164E-02  0.1300439E+00
        -11   -1    0    0    0    0  0.00000000000E+00  0.00000000000E+00  0.45593999997E+02  0.45594000000E+02  0.51100000000E-03 0.  1.
         11   -1    0    0    0    0 -0.00000000000E+00 -0.00000000000E+00 -0.45593999997E+02  0.45594000000E+02  0.51100000000E-03 0. -1.
    9900012    2    1    2    0    0 -0.12371453118E+02  0.32576386553E+02 -0.20949750071E+02  0.50528857840E+02  0.29999993891E+02 0.  0.
        -12    1    1    2    0    0  0.12371453118E+02 -0.32576386553E+02  0.20949750071E+02  0.40659142160E+02  0.00000000000E+00 0.  1.
         11    1    3    3    0    0 -0.49047439987E+01  0.19395798748E+02 -0.10868170184E+02  0.22767754526E+02  0.51100000000E-03 0. -1.
        -11    1    3    3    0    0 -0.48283771943E+01  0.53377919633E+01  0.61985272329E+01  0.94987888434E+01  0.51100000000E-03 0.  1.
         12    1    3    3    0    0 -0.26383319253E+01  0.78427958418E+01 -0.16280107120E+02  0.18262314470E+02  0.00000000000E+00 0. -1.
</event>
<event>
 7    1  0.5753610E-013  0.5052885E+02  0.7816164E-02  0.1300439E+00
        -11   -1    0    0    0    0  0.00000000000E+00  0.00000000000E+00  0.45593999997E+02  0.45594000000E+02  0.51100000000E-03 0.  1.
         11   -1    0    0    0    0 -0.00000000000E+00 -0.00000000000E+00 -0.45593999997E+02  0.45594000000E+02  0.51100000000E-03 0. -1.
    9900012    2    1    2    0    0  0.29142023514E+02  0.18972048117E+02 -0.21070609680E+02  0.50528846830E+02  0.29999960424E+02 0.  0.
        -12    1    1    2    0    0 -0.29142023514E+02 -0.18972048117E+02  0.21070609680E+02  0.40659153170E+02  0.00000000000E+00 0.  1.
         11    1    3    3    0    0  0.75144587161E+00  0.22229674092E+01 -0.96753831938E+01  0.99558673760E+01  0.51100000000E-03 0. -1.
        -11    1    3    3    0    0  0.76291870428E+00  0.69427841669E+01 -0.86652814317E+01  0.11129752894E+02  0.51100000000E-03 0.  1.
        -12    1    3    3    0    0  0.27627658938E+02  0.98062965407E+01 -0.27299450544E+01  0.29443226560E+02  0.00000000000E+00 0.  1.
</event>
<event>
 7    1  0.5753610E-013  0.5052886E+02  0.7816164E-02  0.1300439E+00
        -11   -1    0    0    0    0  0.00000000000E+00  0.00000000000E+00  0.45593999997E+02  0.45594000000E+02  0.51100000000E-03 0. -1.
         11   -1    0    0    0    0 -0.00000000000E+00 -0.00000000000E+00 -0.45593999997E+02  0.45594000000E+02  0.51100000000E-03 0.  1.
    9900012    2    1    2    0    0  0.23374021570E+02  0.32873819106E+02 -0.51120029431E+01  0.50528862760E+02  0.30000008846E+02 0.  0.
        -12    1    1    2    0    0 -0.23374021570E+02 -0.32873819106E+02  0.51120029431E+01  0.40659137240E+02  0.00000000000E+00 0.  1.
         11    1    3    3    0    0  0.14872743894E+02  0.98544957542E+01  0.41493874625E+01  0.18317396488E+02  0.51100000000E-03 0. -1.
        -11    1    3    3    0    0 -0.72393860948E+00  0.17925867395E+02  0.35691711158E+00  0.17944029621E+02  0.51100000000E-03 0.  1.
         12    1    3    3    0    0  0.92252162851E+01  0.50934559575E+01 -0.96183075172E+01  0.14267436651E+02  0.00000000000E+00 0. -1.
</event>
<event>
 7    1  0.5753610E-013  0.5052886E+02  0.7816164E-02  0.1300439E+00
        -11   -1    0    0    0    0  0.00000000000E+00  0.00000000000E+00  0.45593999997E+02  0.45594000000E+02  0.51100000000E-03 0. -1.
         11   -1    0    0    0    0 -0.00000000000E+00 -0.00000000000E+00 -0.45593999997E+02  0.45594000000E+02  0.51100000000E-03 0.  1.
    9900012    2    1    2    0    0 -0.12723850092E+02  0.38414434661E+02  0.39497136704E+01  0.50528863393E+02  0.30000010771E+02 0.  0.
        -12    1    1    2    0    0  0.12723850092E+02 -0.38414434661E+02 -0.39497136704E+01  0.40659136607E+02  0.00000000000E+00 0.  1.
         11    1    3    3    0    0 -0.58385481956E+01  0.75901695276E+01  0.33842767926E+01  0.10156409216E+02  0.51100000000E-03 0. -1.
        -11    1    3    3    0    0  0.78380806639E+01  0.98113135602E+01  0.63481027231E+01  0.14071097708E+02  0.51100000000E-03 0.  1.
         12    1    3    3    0    0 -0.14723382560E+02  0.21012951573E+02 -0.57826658454E+01  0.26301356469E+02  0.00000000000E+00 0. -1.
</event>
<event>
 7    1  0.5753610E-013  0.5052886E+02  0.7816164E-02  0.1300439E+00
        -11   -1    0    0    0    0  0.00000000000E+00  0.00000000000E+00  0.45593999997E+02  0.45594000000E+02  0.51100000000E-03 0. -1.
         11   -1    0    0    0    0 -0.00000000000E+00 -0.00000000000E+00 -0.45593999997E+02  0.45594000000E+02  0.51100000000E-03 0.  1.
    9900012    2    1    2    0    0 -0.35514430678E+02 -0.16103013558E+02  0.11514521669E+02  0.50528855379E+02  0.29999986411E+02 0.  0.
        -12    1    1    2    0    0  0.35514430678E+02  0.16103013558E+02 -0.11514521669E+02  0.40659144621E+02  0.00000000000E+00 0.  1.
         11    1    3    3    0    0 -0.24850570606E+02 -0.70293513208E+01  0.94504761634E+01  0.27500438895E+02  0.51100000000E-03 0. -1.
        -11    1    3    3    0    0 -0.12490750183E+02 -0.13314273130E+02  0.23250350802E+01  0.18403654460E+02  0.51100000000E-03 0.  1.
        -12    1    3    3    0    0  0.18268901104E+01  0.42406108932E+01 -0.26098957493E+00  0.46247620243E+01  0.00000000000E+00 0.  1.
</event>
<event>
 7    1  0.5753610E-013  0.5052886E+02  0.7816164E-02  0.1300439E+00
        -11   -1    0    0    0    0  0.00000000000E+00  0.00000000000E+00  0.45593999997E+02  0.45594000000E+02  0.51100000000E-03 0. -1.
         11   -1    0    0    0    0 -0.00000000000E+00 -0.00000000000E+00 -0.45593999997E+02  0.45594000000E+02  0.51100000000E-03 0.  1.
    9900012    2    1    2    0    0 -0.23928713400E+02  0.32850814187E+02  0.11859196925E+01  0.50528859290E+02  0.29999998298E+02 0.  0.
        -12    1    1    2    0    0  0.23928713400E+02 -0.32850814187E+02 -0.11859196925E+01  0.40659140710E+02  0.00000000000E+00 0.  1.
         11    1    3    3    0    0 -0.42491756837E+01  0.88740859588E+01  0.39165854282E+01  0.10589831787E+02  0.51100000000E-03 0. -1.
        -11    1    3    3    0    0 -0.91952905257E-01 -0.40998399506E+01  0.31916712733E+01  0.51965285273E+01  0.51100000000E-03 0.  1.
         12    1    3    3    0    0 -0.19587584811E+02  0.28076568179E+02 -0.59223370089E+01  0.34742498976E+02  0.00000000000E+00 0. -1.
</event>
<event>
 7    1  0.5753610E-013  0.5052886E+02  0.7816164E-02  0.1300439E+00
        -11   -1    0    0    0    0  0.00000000000E+00  0.00000000000E+00  0.45593999997E+02  0.45594000000E+02  0.51100000000E-03 0.  1.
         11   -1    0    0    0    0 -0.00000000000E+00 -0.00000000000E+00 -0.45593999997E+02  0.45594000000E+02  0.51100000000E-03 0. -1.
    9900012    2    1    2    0    0 -0.13440141719E+02 -0.28384927289E+02 -0.25822946448E+02  0.50528855028E+02  0.29999985342E+02 0.  0.
        -12    1    1    2    0    0  0.13440141719E+02  0.28384927289E+02  0.25822946448E+02  0.40659144972E+02  0.00000000000E+00 0.  1.
         11    1    3    3    0    0 -0.10072302673E+02 -0.10569331478E+02 -0.51886115479E+01  0.15494635816E+02  0.51100000000E-03 0. -1.
        -11    1    3    3    0    0 -0.12157970311E+02 -0.78054444190E+01 -0.73073104847E+01  0.16190676065E+02  0.51100000000E-03 0.  1.
         12    1    3    3    0    0  0.87901312649E+01 -0.10010151392E+02 -0.13327024415E+02  0.18843543146E+02  0.00000000000E+00 0. -1.
</event>
<event>
 7    1  0.5753610E-013  0.5052884E+02  0.7816164E-02  0.1300439E+00
        -11   -1    0    0    0    0  0.00000000000E+00  0.00000000000E+00  0.45593999997E+02  0.45594000000E+02  0.51100000000E-03 0. -1.
         11   -1    0    0    0    0 -0.00000000000E+00 -0.00000000000E+00 -0.45593999997E+02  0.45594000000E+02  0.51100000000E-03 0.  1.
    9900012    2    1    2    0    0  0.11416452911E+02  0.32151766765E+02  0.22115501815E+02  0.50528844528E+02  0.29999953426E+02 0.  0.
        -12    1    1    2    0    0 -0.11416452911E+02 -0.32151766765E+02 -0.22115501815E+02  0.40659155472E+02  0.00000000000E+00 0.  1.
         11    1    3    3    0    0  0.49501042354E+01  0.16983100946E+02  0.17919425475E+02  0.25180052805E+02  0.51100000000E-03 0. -1.
        -11    1    3    3    0    0  0.11747159952E+02  0.47256256291E+01  0.50123719603E+01  0.13618046022E+02  0.51100000000E-03 0.  1.
        -12    1    3    3    0    0 -0.52808112767E+01  0.10443040190E+02 -0.81629561955E+00  0.11730745700E+02  0.00000000000E+00 0.  1.
</event>
<event>
 7    1  0.5753610E-013  0.5052885E+02  0.7816164E-02  0.1300439E+00
        -11   -1    0    0    0    0  0.00000000000E+00  0.00000000000E+00  0.45593999997E+02  0.45594000000E+02  0.51100000000E-03 0. -1.
         11   -1    0    0    0    0 -0.00000000000E+00 -0.00000000000E+00 -0.45593999997E+02  0.45594000000E+02  0.51100000000E-03 0.  1.
    9900012    2    1    2    0    0  0.30207745010E+02  0.20557711536E+02  0.17833653072E+02  0.50528849196E+02  0.29999967617E+02 0.  0.
        -12    1    1    2    0    0 -0.30207745010E+02 -0.20557711536E+02 -0.17833653072E+02  0.40659150804E+02  0.00000000000E+00 0.  1.
         11    1    3    3    0    0  0.15016983729E+01  0.98622219151E+01  0.98290906293E+01  0.14004625735E+02  0.51100000000E-03 0.  1.
        -11    1    3    3    0    0  0.10594623813E+02 -0.14532245706E+01 -0.42512075128E+01  0.11507853013E+02  0.51100000000E-03 0. -1.
         12    1    3    3    0    0  0.18111422824E+02  0.12148714192E+02  0.12255769955E+02  0.25016370449E+02  0.00000000000E+00 0. -1.
</event>
<event>
 7    1  0.5753610E-013  0.5052885E+02  0.7816164E-02  0.1300439E+00
        -11   -1    0    0    0    0  0.00000000000E+00  0.00000000000E+00  0.45593999997E+02  0.45594000000E+02  0.51100000000E-03 0.  1.
         11   -1    0    0    0    0 -0.00000000000E+00 -0.00000000000E+00 -0.45593999997E+02  0.45594000000E+02  0.51100000000E-03 0. -1.
    9900012    2    1    2    0    0 -0.72210000042E+01 -0.38013030855E+02 -0.12491317044E+02  0.50528851493E+02  0.29999974598E+02 0.  0.
        -12    1    1    2    0    0  0.72210000042E+01  0.38013030855E+02  0.12491317044E+02  0.40659148507E+02  0.00000000000E+00 0.  1.
         11    1    3    3    0    0 -0.40362347103E+01 -0.23461135750E+02 -0.13678112085E+02  0.27455542825E+02  0.51100000000E-03 0. -1.
        -11    1    3    3    0    0 -0.58488124450E+01 -0.35277670334E+01 -0.64547318050E+01  0.93977289913E+01  0.51100000000E-03 0.  1.
         12    1    3    3    0    0  0.26640471511E+01 -0.11024128071E+02  0.76415268463E+01  0.13675579677E+02  0.00000000000E+00 0. -1.
</event>
<event>
 7    1  0.5753610E-013  0.5052884E+02  0.7816164E-02  0.1300439E+00
        -11   -1    0    0    0    0  0.00000000000E+00  0.00000000000E+00  0.45593999997E+02  0.45594000000E+02  0.51100000000E-03 0.  1.
         11   -1    0    0    0    0 -0.00000000000E+00 -0.00000000000E+00 -0.45593999997E+02  0.45594000000E+02  0.51100000000E-03 0. -1.
    9900012    2    1    2    0    0  0.25628102971E+02 -0.31420715943E+02  0.30176487888E+01  0.50528840435E+02  0.29999940987E+02 0.  0.
        -12    1    1    2    0    0 -0.25628102971E+02  0.31420715943E+02 -0.30176487888E+01  0.40659159565E+02  0.00000000000E+00 0.  1.
         11    1    3    3    0    0  0.29424153761E+01  0.13883666304E+00 -0.33185622023E+01  0.44373346973E+01  0.51100000000E-03 0. -1.
        -11    1    3    3    0    0  0.39028230194E+01 -0.17910080424E+02  0.12355077291E+02  0.22105450538E+02  0.51100000000E-03 0.  1.
         12    1    3    3    0    0  0.18782864576E+02 -0.13649472182E+02 -0.60188663004E+01  0.23986055200E+02  0.00000000000E+00 0. -1.
</event>
<event>
 7    1  0.5753610E-013  0.5052886E+02  0.7816164E-02  0.1300439E+00
        -11   -1    0    0    0    0  0.00000000000E+00  0.00000000000E+00  0.45593999997E+02  0.45594000000E+02  0.51100000000E-03 0. -1.
         11   -1    0    0    0    0 -0.00000000000E+00 -0.00000000000E+00 -0.45593999997E+02  0.45594000000E+02  0.51100000000E-03 0.  1.
    9900012    2    1    2    0    0 -0.18371798102E+02 -0.32497935425E+02  0.16109825908E+02  0.50528864948E+02  0.30000015495E+02 0.  0.
        -12    1    1    2    0    0  0.18371798102E+02  0.32497935425E+02 -0.16109825908E+02  0.40659135052E+02  0.00000000000E+00 0.  1.
         11    1    3    3    0    0 -0.57588947760E+01 -0.20433609479E+02 -0.61636614662E+00  0.21238577468E+02  0.51100000000E-03 0. -1.
        -11    1    3    3    0    0 -0.13806756369E+02 -0.93813192457E+01  0.53313172701E+01  0.17523088093E+02  0.51100000000E-03 0.  1.
         12    1    3    3    0    0  0.11938530423E+01 -0.26830067002E+01  0.11394874785E+02  0.11767199386E+02  0.00000000000E+00 0. -1.
</event>
<event>
 7    1  0.5753610E-013  0.5052886E+02  0.7816164E-02  0.1300439E+00
        -11   -1    0    0    0    0  0.00000000000E+00  0.00000000000E+00  0.45593999997E+02  0.45594000000E+02  0.51100000000E-03 0.  1.
         11   -1    0    0    0    0 -0.00000000000E+00 -0.00000000000E+00 -0.45593999997E+02  0.45594000000E+02  0.51100000000E-03 0. -1.
    9900012    2    1    2    0    0  0.29942942729E+02  0.20200395005E+02 -0.18668957567E+02  0.50528858909E+02  0.29999997139E+02 0.  0.
        -12    1    1    2    0    0 -0.29942942729E+02 -0.20200395005E+02  0.18668957567E+02  0.40659141091E+02  0.00000000000E+00 0.  1.
         11    1    3    3    0    0 -0.54199723119E+01  0.44063048333E+01 -0.58139554832E+01  0.90881076560E+01  0.51100000000E-03 0.  1.
        -11    1    3    3    0    0  0.18382965446E+02  0.43131065118E+01 -0.67762700908E+01  0.20061259756E+02  0.51100000000E-03 0. -1.
        -12    1    3    3    0    0  0.16979949595E+02  0.11480983659E+02 -0.60787319931E+01  0.21379491497E+02  0.00000000000E+00 0.  1.
</event>
<event>
 7    1  0.5753610E-013  0.5052886E+02  0.7816164E-02  0.1300439E+00
        -11   -1    0    0    0    0  0.00000000000E+00  0.00000000000E+00  0.45593999997E+02  0.45594000000E+02  0.51100000000E-03 0.  1.
         11   -1    0    0    0    0 -0.00000000000E+00 -0.00000000000E+00 -0.45593999997E+02  0.45594000000E+02  0.51100000000E-03 0. -1.
    9900012    2    1    2    0    0 -0.27277246154E+02 -0.14258304629E+02 -0.26567239014E+02  0.50528860837E+02  0.30000003000E+02 0.  0.
        -12    1    1    2    0    0  0.27277246154E+02  0.14258304629E+02  0.26567239014E+02  0.40659139163E+02  0.00000000000E+00 0.  1.
         11    1    3    3    0    0 -0.11222899688E+02 -0.13612115859E+02 -0.24052669477E+02  0.29829081193E+02  0.51100000000E-03 0. -1.
        -11    1    3    3    0    0 -0.82942875220E+01 -0.61129963756E+01 -0.40748016337E+01  0.11080069440E+02  0.51100000000E-03 0.  1.
         12    1    3    3    0    0 -0.77600589440E+01  0.54668076064E+01  0.15602320962E+01  0.96197102042E+01  0.00000000000E+00 0. -1.
</event>
<event>
 7    1  0.5753610E-013  0.5052883E+02  0.7816164E-02  0.1300439E+00
        -11   -1    0    0    0    0  0.00000000000E+00  0.00000000000E+00  0.45593999997E+02  0.45594000000E+02  0.51100000000E-03 0.  1.
         11   -1    0    0    0    0 -0.00000000000E+00 -0.00000000000E+00 -0.45593999997E+02  0.45594000000E+02  0.51100000000E-03 0. -1.
    9900012    2    1    2    0    0 -0.11398382591E+02 -0.36296347982E+02 -0.14346442716E+02  0.50528826114E+02  0.29999897455E+02 0.  0.
        -12    1    1    2    0    0  0.11398382591E+02  0.36296347982E+02  0.14346442716E+02  0.40659173886E+02  0.00000000000E+00 0.  1.
         11    1    3    3    0    0 -0.80926764895E+01 -0.21289749896E+02 -0.22792743287E+02  0.32221949199E+02  0.51100000000E-03 0. -1.
        -11    1    3    3    0    0 -0.21927521266E+01 -0.47684055278E+01  0.44848762874E+00  0.52675416069E+01  0.51100000000E-03 0.  1.
         12    1    3    3    0    0 -0.11129539745E+01 -0.10238192559E+02  0.79978129421E+01  0.13039335308E+02  0.00000000000E+00 0. -1.
</event>
<event>
 7    1  0.5753610E-013  0.5052886E+02  0.7816164E-02  0.1300439E+00
        -11   -1    0    0    0    0  0.00000000000E+00  0.00000000000E+00  0.45593999997E+02  0.45594000000E+02  0.51100000000E-03 0.  1.
         11   -1    0    0    0    0 -0.00000000000E+00 -0.00000000000E+00 -0.45593999997E+02  0.45594000000E+02  0.51100000000E-03 0. -1.
    9900012    2    1    2    0    0  0.71783038981E+01  0.34787490873E+02 -0.19785554267E+02  0.50528859260E+02  0.29999998206E+02 0.  0.
        -12    1    1    2    0    0 -0.71783038981E+01 -0.34787490873E+02  0.19785554267E+02  0.40659140740E+02  0.00000000000E+00 0.  1.
         11    1    3    3    0    0  0.60305703389E+01  0.83476760984E+01 -0.31724501447E+00  0.10303015069E+02  0.51100000000E-03 0. -1.
        -11    1    3    3    0    0 -0.29034461888E+00  0.27149534929E+02 -0.75239416050E+01  0.28174301134E+02  0.51100000000E-03 0.  1.
        -12    1    3    3    0    0  0.14380781781E+01 -0.70972015488E+00 -0.11944367647E+02  0.12051543056E+02  0.00000000000E+00 0.  1.
</event>
<event>
 7    1  0.5753610E-013  0.5052886E+02  0.7816164E-02  0.1300439E+00
        -11   -1    0    0    0    0  0.00000000000E+00  0.00000000000E+00  0.45593999997E+02  0.45594000000E+02  0.51100000000E-03 0.  1.
         11   -1    0    0    0    0 -0.00000000000E+00 -0.00000000000E+00 -0.45593999997E+02  0.45594000000E+02  0.51100000000E-03 0. -1.
    9900012    2    1    2    0    0  0.26492376204E+02 -0.27535756701E+02 -0.13896106918E+02  0.50528859803E+02  0.29999999858E+02 0.  0.
        -12    1    1    2    0    0 -0.26492376204E+02  0.27535756701E+02  0.13896106918E+02  0.40659140197E+02  0.00000000000E+00 0.  1.
         11    1    3    3    0    0 -0.50284068411E+00 -0.50872689135E+01  0.78730791085E+00  0.51723309793E+01  0.51100000000E-03 0. -1.
        -11    1    3    3    0    0  0.19875170429E+02 -0.90762598706E+01 -0.19678313493E+02  0.29404709062E+02  0.51100000000E-03 0.  1.
         12    1    3    3    0    0  0.71200464592E+01 -0.13372227917E+02  0.49948986643E+01  0.15951819762E+02  0.00000000000E+00 0. -1.
</event>
<event>
 7    1  0.5753610E-013  0.5052887E+02  0.7816164E-02  0.1300439E+00
        -11   -1    0    0    0    0  0.00000000000E+00  0.00000000000E+00  0.45593999997E+02  0.45594000000E+02  0.51100000000E-03 0. -1.
         11   -1    0    0    0    0 -0.00000000000E+00 -0.00000000000E+00 -0.45593999997E+02  0.45594000000E+02  0.51100000000E-03 0.  1.
    9900012    2    1    2    0    0  0.40354685890E+02  0.21435180923E+01  0.44799331182E+01  0.50528866415E+02  0.30000019955E+02 0.  0.
        -12    1    1    2    0    0 -0.40354685890E+02 -0.21435180923E+01 -0.44799331182E+01  0.40659133585E+02  0.00000000000E+00 0.  1.
         11    1    3    3    0    0  0.17368147843E+02 -0.39388703589E+01 -0.24487586679E+01  0.17976753836E+02  0.51100000000E-03 0. -1.
        -11    1    3    3    0    0  0.89380994477E+01  0.11755021973E+02 -0.20993894069E+01  0.14915683003E+02  0.51100000000E-03 0.  1.
         12    1    3    3    0    0  0.14048438600E+02 -0.56726335213E+01  0.90280811931E+01  0.17636429576E+02  0.00000000000E+00 0. -1.
</event>
<event>
 7    1  0.5753610E-013  0.5052885E+02  0.7816164E-02  0.1300439E+00
        -11   -1    0    0    0    0  0.00000000000E+00  0.00000000000E+00  0.45593999997E+02  0.45594000000E+02  0.51100000000E-03 0. -1.
         11   -1    0    0    0    0 -0.00000000000E+00 -0.00000000000E+00 -0.45593999997E+02  0.45594000000E+02  0.51100000000E-03 0.  1.
    9900012    2    1    2    0    0  0.36450614524E+02 -0.16350228575E+02 -0.75623627562E+01  0.50528848458E+02  0.29999965373E+02 0.  0.
        -12    1    1    2    0    0 -0.36450614524E+02  0.16350228575E+02  0.75623627562E+01  0.40659151542E+02  0.00000000000E+00 0.  1.
         11    1    3    3    0    0  0.29132018660E+01  0.32590938969E+01 -0.12890991957E+00  0.43732203431E+01  0.51100000000E-03 0. -1.
        -11    1    3    3    0    0  0.35359859989E+02 -0.22658570180E+02 -0.70164664481E+01  0.42578883296E+02  0.51100000000E-03 0.  1.
         12    1    3    3    0    0 -0.18224473306E+01  0.30492477076E+01 -0.41698638853E+00  0.35767448194E+01  0.00000000000E+00 0. -1.
</event>
<event>
 7    1  0.5753610E-013  0.5052890E+02  0.7816164E-02  0.1300439E+00
        -11   -1    0    0    0    0  0.00000000000E+00  0.00000000000E+00  0.45593999997E+02  0.45594000000E+02  0.51100000000E-03 0. -1.
         11   -1    0    0    0    0 -0.00000000000E+00 -0.00000000000E+00 -0.45593999997E+02  0.45594000000E+02  0.51100000000E-03 0.  1.
    9900012    2    1    2    0    0 -0.58551688333E+01  0.21786958248E+02  0.33826138478E+02  0.50528902665E+02  0.30000130140E+02 0.  0.
        -12    1    1    2    0    0  0.58551688333E+01 -0.21786958248E+02 -0.33826138478E+02  0.40659097335E+02  0.00000000000E+00 0.  1.
         11    1    3    3    0    0 -0.35920111051E+01 -0.72680280388E+00 -0.20684694232E+01  0.42082481047E+01  0.51100000000E-03 0. -1.
        -11    1    3    3    0    0  0.76243156732E+00  0.23273187201E+02  0.21843470456E+02  0.31927413710E+02  0.51100000000E-03 0.  1.
         12    1    3    3    0    0 -0.30255892955E+01 -0.75942614875E+00  0.14051137445E+02  0.14393240850E+02  0.00000000000E+00 0. -1.
</event>
<event>
 7    1  0.5753610E-013  0.5052886E+02  0.7816164E-02  0.1300439E+00
        -11   -1    0    0    0    0  0.00000000000E+00  0.00000000000E+00  0.45593999997E+02  0.45594000000E+02  0.51100000000E-03 0. -1.
         11   -1    0    0    0    0 -0.00000000000E+00 -0.00000000000E+00 -0.45593999997E+02  0.45594000000E+02  0.51100000000E-03 0.  1.
    9900012    2    1    2    0    0  0.12274552909E+02 -0.11584929366E+02  0.36990413788E+02  0.50528856505E+02  0.29999989834E+02 0.  0.
        -12    1    1    2    0    0 -0.12274552909E+02  0.11584929366E+02 -0.36990413788E+02  0.40659143495E+02  0.00000000000E+00 0.  1.
         11    1    3    3    0    0 -0.37499042062E+00 -0.57095149337E+00  0.19988360578E+01  0.21123326609E+01  0.51100000000E-03 0. -1.
        -11    1    3    3    0    0  0.18440963699E+02 -0.16416893789E+02  0.21341522387E+02  0.32635013741E+02  0.51100000000E-03 0.  1.
        -12    1    3    3    0    0 -0.57914203686E+01  0.54029159168E+01  0.13650055342E+02  0.15781510103E+02  0.00000000000E+00 0.  1.
</event>
<event>
 7    1  0.5753610E-013  0.5052886E+02  0.7816164E-02  0.1300439E+00
        -11   -1    0    0    0    0  0.00000000000E+00  0.00000000000E+00  0.45593999997E+02  0.45594000000E+02  0.51100000000E-03 0.  1.
         11   -1    0    0    0    0 -0.00000000000E+00 -0.00000000000E+00 -0.45593999997E+02  0.45594000000E+02  0.51100000000E-03 0. -1.
    9900012    2    1    2    0    0  0.83116547774E+01  0.88781416374E+01  0.38797689502E+02  0.50528859395E+02  0.29999998616E+02 0.  0.
        -12    1    1    2    0    0 -0.83116547774E+01 -0.88781416374E+01 -0.38797689502E+02  0.40659140605E+02  0.00000000000E+00 0.  1.
         11    1    3    3    0    0  0.11811779648E+02 -0.81438029572E+01  0.18187401571E+02  0.23165086687E+02  0.51100000000E-03 0. -1.
        -11    1    3    3    0    0 -0.11736579619E+01  0.17431218783E+01  0.48722416354E+01  0.53060989162E+01  0.51100000000E-03 0.  1.
         12    1    3    3    0    0 -0.23264669085E+01  0.15278822716E+02  0.15738046296E+02  0.22057673791E+02  0.00000000000E+00 0. -1.
</event>
<event>
 7    1  0.5753610E-013  0.5052886E+02  0.7816164E-02  0.1300439E+00
        -11   -1    0    0    0    0  0.00000000000E+00  0.00000000000E+00  0.45593999997E+02  0.45594000000E+02  0.51100000000E-03 0.  1.
         11   -1    0    0    0    0 -0.00000000000E+00 -0.00000000000E+00 -0.45593999997E+02  0.45594000000E+02  0.51100000000E-03 0. -1.
    9900012    2    1    2    0    0  0.16567521339E+02  0.22535733113E+02 -0.29509718061E+02  0.50528862155E+02  0.30000007007E+02 0.  0.
        -12    1    1    2    0    0 -0.16567521339E+02 -0.22535733113E+02  0.29509718061E+02  0.40659137845E+02  0.00000000000E+00 0.  1.
         11    1    3    3    0    0  0.50366216552E+01 -0.61586940152E+01 -0.25156638996E+01  0.83441976719E+01  0.51100000000E-03 0. -1.
        -11    1    3    3    0    0  0.45130493132E+01  0.19225102789E+02 -0.21461147979E+02  0.29164242905E+02  0.51100000000E-03 0.  1.
        -12    1    3    3    0    0  0.70178503708E+01  0.94693243390E+01 -0.55329061821E+01  0.13020421579E+02  0.00000000000E+00 0.  1.
</event>
<event>
 7    1  0.5753610E-013  0.5052886E+02  0.7816164E-02  0.1300439E+00
        -11   -1    0    0    0    0  0.00000000000E+00  0.00000000000E+00  0.45593999997E+02  0.45594000000E+02  0.51100000000E-03 0.  1.
         11   -1    0    0    0    0 -0.00000000000E+00 -0.00000000000E+00 -0.45593999997E+02  0.45594000000E+02  0.51100000000E-03 0. -1.
    9900012    2    1    2    0    0  0.12777893695E+02 -0.33369753156E+02 -0.19399752811E+02  0.50528863239E+02  0.30000010302E+02 0.  0.
        -12    1    1    2    0    0 -0.12777893695E+02  0.33369753156E+02  0.19399752811E+02  0.40659136761E+02  0.00000000000E+00 0.  1.
         11    1    3    3    0    0 -0.18918877341E+00 -0.16809277389E+01 -0.12910400685E+02  0.13020743319E+02  0.51100000000E-03 0.  1.
        -11    1    3    3    0    0  0.94593141200E+00 -0.36475353911E+01  0.37599265626E+01  0.53231897094E+01  0.51100000000E-03 0. -1.
         12    1    3    3    0    0  0.12021151057E+02 -0.28041290026E+02 -0.10249278688E+02  0.32184930211E+02  0.00000000000E+00 0. -1.
</event>
<event>
 7    1  0.5753610E-013  0.5052886E+02  0.7816164E-02  0.1300439E+00
        -11   -1    0    0    0    0  0.00000000000E+00  0.00000000000E+00  0.45593999997E+02  0.45594000000E+02  0.51100000000E-03 0.  1.
         11   -1    0    0    0    0 -0.00000000000E+00 -0.00000000000E+00 -0.45593999997E+02  0.45594000000E+02  0.51100000000E-03 0. -1.
    9900012    2    1    2    0    0  0.15882627289E+02  0.12414495464E+02 -0.35309891868E+02  0.50528855753E+02  0.29999987546E+02 0.  0.
        -12    1    1    2    0    0 -0.15882627289E+02 -0.12414495464E+02  0.35309891868E+02  0.40659144247E+02  0.00000000000E+00 0.  1.
         11    1    3    3    0    0 -0.33377094753E+01  0.27936277983E+01 -0.51724051278E+01  0.67600618255E+01  0.51100000000E-03 0. -1.
        -11    1    3    3    0    0  0.11581434673E+02 -0.63831222943E+01 -0.17761282508E+02  0.22143555177E+02  0.51100000000E-03 0.  1.
         12    1    3    3    0    0  0.76389020913E+01  0.16003989960E+02 -0.12376204232E+02  0.21625238750E+02  0.00000000000E+00 0. -1.
</event>
<event>
 7    1  0.5753610E-013  0.5052887E+02  0.7816164E-02  0.1300439E+00
        -11   -1    0    0    0    0  0.00000000000E+00  0.00000000000E+00  0.45593999997E+02  0.45594000000E+02  0.51100000000E-03 0.  1.
         11   -1    0    0    0    0 -0.00000000000E+00 -0.00000000000E+00 -0.45593999997E+02  0.45594000000E+02  0.51100000000E-03 0. -1.
    9900012    2    1    2    0    0 -0.32912909685E+02 -0.19340806142E+02 -0.13994221883E+02  0.50528872461E+02  0.30000038332E+02 0.  0.
        -12    1    1    2    0    0  0.32912909685E+02  0.19340806142E+02  0.13994221883E+02  0.40659127539E+02  0.00000000000E+00 0.  1.
         11    1    3    3    0    0 -0.31431500618E+01 -0.10371607203E+02 -0.47739686999E+01  0.11842314203E+02  0.51100000000E-03 0. -1.
        -11    1    3    3    0    0 -0.37304718198E+01 -0.90682146409E+01 -0.79373733548E+01  0.12615499705E+02  0.51100000000E-03 0.  1.
         12    1    3    3    0    0 -0.26039287803E+02  0.99015701308E-01 -0.12828798280E+01  0.26071058553E+02  0.00000000000E+00 0. -1.
</event>
<event>
 7    1  0.5753610E-013  0.5052886E+02  0.7816164E-02  0.1300439E+00
        -11   -1    0    0    0    0  0.00000000000E+00  0.00000000000E+00  0.45593999997E+02  0.45594000000E+02  0.51100000000E-03 0.  1.
         11   -1    0    0    0    0 -0.00000000000E+00 -0.00000000000E+00 -0.45593999997E+02  0.45594000000E+02  0.51100000000E-03 0. -1.
    9900012    2    1    2    0    0  0.71148494813E+01 -0.36333080117E+01 -0.39866575065E+02  0.50528858130E+02  0.29999994771E+02 0.  0.
        -12    1    1    2    0    0 -0.71148494813E+01  0.36333080117E+01  0.39866575065E+02  0.40659141870E+02  0.00000000000E+00 0.  1.
         11    1    3    3    0    0  0.50354604069E+01 -0.54288961049E+01 -0.11309285812E+02  0.13517718752E+02  0.51100000000E-03 0. -1.
        -11    1    3    3    0    0 -0.79134559593E+01 -0.25928656049E+01 -0.23596134228E+02  0.25022455675E+02  0.51100000000E-03 0.  1.
        -12    1    3    3    0    0  0.99928450337E+01  0.43884536981E+01 -0.49611550254E+01  0.11988683702E+02  0.00000000000E+00 0.  1.
</event>
<event>
 7    1  0.5753610E-013  0.5052885E+02  0.7816164E-02  0.1300439E+00
        -11   -1    0    0    0    0  0.00000000000E+00  0.00000000000E+00  0.45593999997E+02  0.45594000000E+02  0.51100000000E-03 0. -1.
         11   -1    0    0    0    0 -0.00000000000E+00 -0.00000000000E+00 -0.45593999997E+02  0.45594000000E+02  0.51100000000E-03 0.  1.
    9900012    2    1    2    0    0 -0.31450545255E+02  0.16260367431E+02  0.19990749314E+02  0.50528850919E+02  0.29999972855E+02 0.  0.
        -12    1    1    2    0    0  0.31450545255E+02 -0.16260367431E+02 -0.19990749314E+02  0.40659149081E+02  0.00000000000E+00 0.  1.
         11    1    3    3    0    0  0.26735131108E+01  0.63950477572E+01  0.50382769065E+01  0.85690456072E+01  0.51100000000E-03 0. -1.
        -11    1    3    3    0    0 -0.27019319452E+01 -0.99325328563E+00 -0.30159559109E+01  0.41692899448E+01  0.51100000000E-03 0.  1.
        -12    1    3    3    0    0 -0.31422126420E+02  0.10858572960E+02  0.17968428319E+02  0.37790515367E+02  0.00000000000E+00 0.  1.
</event>
<event>
 7    1  0.5753610E-013  0.5052886E+02  0.7816164E-02  0.1300439E+00
        -11   -1    0    0    0    0  0.00000000000E+00  0.00000000000E+00  0.45593999997E+02  0.45594000000E+02  0.51100000000E-03 0. -1.
         11   -1    0    0    0    0 -0.00000000000E+00 -0.00000000000E+00 -0.45593999997E+02  0.45594000000E+02  0.51100000000E-03 0.  1.
    9900012    2    1    2    0    0  0.76913362274E+01 -0.50004927863E+01  0.39610656564E+02  0.50528859644E+02  0.29999999373E+02 0.  0.
        -12    1    1    2    0    0 -0.76913362274E+01  0.50004927863E+01 -0.39610656564E+02  0.40659140356E+02  0.00000000000E+00 0.  1.
         11    1    3    3    0    0  0.13803349589E+02 -0.44983600060E+01  0.36286941583E+02  0.39083370278E+02  0.51100000000E-03 0. -1.
        -11    1    3    3    0    0 -0.75956671174E-01  0.36341073527E+01  0.11254487351E+01  0.38051466179E+01  0.51100000000E-03 0.  1.
        -12    1    3    3    0    0 -0.60360566907E+01 -0.41362401331E+01  0.21982662465E+01  0.76403427477E+01  0.00000000000E+00 0.  1.
</event>
<event>
 7    1  0.5753610E-013  0.5052887E+02  0.7816164E-02  0.1300439E+00
        -11   -1    0    0    0    0  0.00000000000E+00  0.00000000000E+00  0.45593999997E+02  0.45594000000E+02  0.51100000000E-03 0.  1.
         11   -1    0    0    0    0 -0.00000000000E+00 -0.00000000000E+00 -0.45593999997E+02  0.45594000000E+02  0.51100000000E-03 0. -1.
    9900012    2    1    2    0    0 -0.11113765913E+02 -0.35864605663E+02 -0.15600624626E+02  0.50528865468E+02  0.30000017078E+02 0.  0.
        -12    1    1    2    0    0  0.11113765913E+02  0.35864605663E+02  0.15600624626E+02  0.40659134532E+02  0.00000000000E+00 0.  1.
         11    1    3    3    0    0 -0.50390545267E+01 -0.58616934854E+01  0.47445491240E+01  0.90698548881E+01  0.51100000000E-03 0.  1.
        -11    1    3    3    0    0  0.47287303033E+01 -0.60746797249E+00 -0.20567093534E+01  0.51922982623E+01  0.51100000000E-03 0. -1.
         12    1    3    3    0    0 -0.10803441690E+02 -0.29395444205E+02 -0.18288464397E+02  0.36266712318E+02  0.00000000000E+00 0. -1.
</event>
<event>
 7    1  0.5753610E-013  0.5052900E+02  0.7816164E-02  0.1300438E+00
        -11   -1    0    0    0    0  0.00000000000E+00  0.00000000000E+00  0.45593999997E+02  0.45594000000E+02  0.51100000000E-03 0.  1.
         11   -1    0    0    0    0 -0.00000000000E+00 -0.00000000000E+00 -0.45593999997E+02  0.45594000000E+02  0.51100000000E-03 0. -1.
    9900012    2    1    2    0    0 -0.36013643173E+02  0.13897496448E+02 -0.12768381696E+02  0.50528997636E+02  0.30000418811E+02 0.  0.
        -12    1    1    2    0    0  0.36013643173E+02 -0.13897496448E+02  0.12768381696E+02  0.40659002364E+02  0.00000000000E+00 0.  1.
         11    1    3    3    0    0 -0.79392770025E+01 -0.57557114345E+01  0.19657414064E+01  0.10001223574E+02  0.51100000000E-03 0. -1.
        -11    1    3    3    0    0 -0.10294863225E+02  0.12323119667E+02  0.38943654645E+00  0.16062227375E+02  0.51100000000E-03 0.  1.
         12    1    3    3    0    0 -0.17779502945E+02  0.73300882151E+01 -0.15123559649E+02  0.24465546687E+02  0.00000000000E+00 0. -1.
</event>
<event>
 7    1  0.5753610E-013  0.5052886E+02  0.7816164E-02  0.1300439E+00
        -11   -1    0    0    0    0  0.00000000000E+00  0.00000000000E+00  0.45593999997E+02  0.45594000000E+02  0.51100000000E-03 0.  1.
         11   -1    0    0    0    0 -0.00000000000E+00 -0.00000000000E+00 -0.45593999997E+02  0.45594000000E+02  0.51100000000E-03 0. -1.
    9900012    2    1    2    0    0 -0.20519345212E+02  0.35052595965E+02 -0.18540185288E+01  0.50528863309E+02  0.30000010513E+02 0.  0.
        -12    1    1    2    0    0  0.20519345212E+02 -0.35052595965E+02  0.18540185288E+01  0.40659136691E+02  0.00000000000E+00 0.  1.
         11    1    3    3    0    0 -0.16772463368E+02  0.14742951859E+02  0.64813565494E+01  0.23252486747E+02  0.51100000000E-03 0. -1.
        -11    1    3    3    0    0 -0.31039872000E+01 -0.18608989698E+01 -0.11093974835E+00  0.36207719345E+01  0.51100000000E-03 0.  1.
        -12    1    3    3    0    0 -0.64289464410E+00  0.22170543075E+02 -0.82244353299E+01  0.23655604627E+02  0.00000000000E+00 0.  1.
</event>
<event>
 7    1  0.5753610E-013  0.5052886E+02  0.7816164E-02  0.1300439E+00
        -11   -1    0    0    0    0  0.00000000000E+00  0.00000000000E+00  0.45593999997E+02  0.45594000000E+02  0.51100000000E-03 0.  1.
         11   -1    0    0    0    0 -0.00000000000E+00 -0.00000000000E+00 -0.45593999997E+02  0.45594000000E+02  0.51100000000E-03 0. -1.
    9900012    2    1    2    0    0 -0.87634976743E+01  0.29413380692E+02 -0.26668704946E+02  0.50528859838E+02  0.29999999964E+02 0.  0.
        -12    1    1    2    0    0  0.87634976743E+01 -0.29413380692E+02  0.26668704946E+02  0.40659140162E+02  0.00000000000E+00 0.  1.
         11    1    3    3    0    0 -0.57516701689E+01  0.15769514260E+00 -0.63743726268E+01  0.85871534361E+01  0.51100000000E-03 0. -1.
        -11    1    3    3    0    0  0.51420518707E+01 -0.31481591484E+00 -0.65391163490E+01  0.83246531091E+01  0.51100000000E-03 0.  1.
        -12    1    3    3    0    0 -0.81538793761E+01  0.29570501464E+02 -0.13755215970E+02  0.33617053293E+02  0.00000000000E+00 0.  1.
</event>
<event>
 7    1  0.5753610E-013  0.5052886E+02  0.7816164E-02  0.1300439E+00
        -11   -1    0    0    0    0  0.00000000000E+00  0.00000000000E+00  0.45593999997E+02  0.45594000000E+02  0.51100000000E-03 0.  1.
         11   -1    0    0    0    0 -0.00000000000E+00 -0.00000000000E+00 -0.45593999997E+02  0.45594000000E+02  0.51100000000E-03 0. -1.
    9900012    2    1    2    0    0  0.28236789623E+02  0.24050246993E+01 -0.29155878248E+02  0.50528859964E+02  0.30000000348E+02 0.  0.
        -12    1    1    2    0    0 -0.28236789623E+02 -0.24050246993E+01  0.29155878248E+02  0.40659140036E+02  0.00000000000E+00 0.  1.
         11    1    3    3    0    0 -0.15232498604E+01 -0.37563641320E+01  0.18264997899E+01  0.44459715893E+01  0.51100000000E-03 0. -1.
        -11    1    3    3    0    0  0.57215633797E+01  0.71659570969E+01 -0.42160127268E+01  0.10092670221E+02  0.51100000000E-03 0.  1.
         12    1    3    3    0    0  0.24038476104E+02 -0.10045682656E+01 -0.26766365311E+02  0.35990218154E+02  0.00000000000E+00 0. -1.
</event>
<event>
 7    1  0.5753610E-013  0.5052885E+02  0.7816164E-02  0.1300439E+00
        -11   -1    0    0    0    0  0.00000000000E+00  0.00000000000E+00  0.45593999997E+02  0.45594000000E+02  0.51100000000E-03 0.  1.
         11   -1    0    0    0    0 -0.00000000000E+00 -0.00000000000E+00 -0.45593999997E+02  0.45594000000E+02  0.51100000000E-03 0. -1.
    9900012    2    1    2    0    0  0.31907206906E+01 -0.40397840641E+02 -0.33166226537E+01  0.50528853270E+02  0.29999980000E+02 0.  0.
        -12    1    1    2    0    0 -0.31907206906E+01  0.40397840641E+02  0.33166226537E+01  0.40659146730E+02  0.00000000000E+00 0.  1.
         11    1    3    3    0    0  0.71876928327E+01 -0.66693550405E+00  0.54116263895E+01  0.90218308378E+01  0.51100000000E-03 0.  1.
        -11    1    3    3    0    0  0.19951282032E+01 -0.95116365742E+01 -0.30023052924E+01  0.10171804373E+02  0.51100000000E-03 0. -1.
        -12    1    3    3    0    0 -0.59921003454E+01 -0.30219268563E+02 -0.57259437509E+01  0.31335218060E+02  0.00000000000E+00 0.  1.
</event>
<event>
 7    1  0.5753610E-013  0.5052887E+02  0.7816164E-02  0.1300439E+00
        -11   -1    0    0    0    0  0.00000000000E+00  0.00000000000E+00  0.45593999997E+02  0.45594000000E+02  0.51100000000E-03 0. -1.
         11   -1    0    0    0    0 -0.00000000000E+00 -0.00000000000E+00 -0.45593999997E+02  0.45594000000E+02  0.51100000000E-03 0.  1.
    9900012    2    1    2    0    0 -0.97362872921E+01 -0.25507127529E+02  0.30128995353E+02  0.50528865651E+02  0.30000017633E+02 0.  0.
        -12    1    1    2    0    0  0.97362872921E+01  0.25507127529E+02 -0.30128995353E+02  0.40659134349E+02  0.00000000000E+00 0.  1.
         11    1    3    3    0    0  0.27543984449E-02  0.17010888859E+01  0.72462719379E+01  0.74432632792E+01  0.51100000000E-03 0. -1.
        -11    1    3    3    0    0  0.21840093536E+01 -0.14667895881E+01 -0.34773977172E+01  0.43604659954E+01  0.51100000000E-03 0.  1.
        -12    1    3    3    0    0 -0.11923051044E+02 -0.25741426827E+02  0.26360121132E+02  0.38725136377E+02  0.00000000000E+00 0.  1.
</event>
<event>
 7    1  0.5753610E-013  0.5052886E+02  0.7816164E-02  0.1300439E+00
        -11   -1    0    0    0    0  0.00000000000E+00  0.00000000000E+00  0.45593999997E+02  0.45594000000E+02  0.51100000000E-03 0.  1.
         11   -1    0    0    0    0 -0.00000000000E+00 -0.00000000000E+00 -0.45593999997E+02  0.45594000000E+02  0.51100000000E-03 0. -1.
    9900012    2    1    2    0    0  0.27771929633E+02 -0.10785761068E+02 -0.27668628581E+02  0.50528859270E+02  0.29999998237E+02 0.  0.
        -12    1    1    2    0    0 -0.27771929633E+02  0.10785761068E+02  0.27668628581E+02  0.40659140730E+02  0.00000000000E+00 0.  1.
         11    1    3    3    0    0 -0.23880614162E+01  0.22679121665E+01  0.11777216086E+01  0.34976122385E+01  0.51100000000E-03 0.  1.
        -11    1    3    3    0    0  0.30301781214E+02 -0.84268158341E+01 -0.20671218063E+02  0.37636530476E+02  0.51100000000E-03 0. -1.
         12    1    3    3    0    0 -0.14179016520E+00 -0.46268574005E+01 -0.81751321271E+01  0.93947165551E+01  0.00000000000E+00 0. -1.
</event>
<event>
 7    1  0.5753610E-013  0.5052886E+02  0.7816164E-02  0.1300439E+00
        -11   -1    0    0    0    0  0.00000000000E+00  0.00000000000E+00  0.45593999997E+02  0.45594000000E+02  0.51100000000E-03 0. -1.
         11   -1    0    0    0    0 -0.00000000000E+00 -0.00000000000E+00 -0.45593999997E+02  0.45594000000E+02  0.51100000000E-03 0.  1.
    9900012    2    1    2    0    0  0.74662516903E+01 -0.28823232067E+02  0.27688299274E+02  0.50528861571E+02  0.30000005231E+02 0.  0.
        -12    1    1    2    0    0 -0.74662516903E+01  0.28823232067E+02 -0.27688299274E+02  0.40659138429E+02  0.00000000000E+00 0.  1.
         11    1    3    3    0    0  0.41652082833E+01 -0.12515641866E+01  0.13633292512E+02  0.14310207474E+02  0.51100000000E-03 0. -1.
        -11    1    3    3    0    0  0.10301529608E+02 -0.10692299326E+02  0.40703711785E+01  0.15395281710E+02  0.51100000000E-03 0.  1.
        -12    1    3    3    0    0 -0.70004862005E+01 -0.16879368555E+02  0.99846355832E+01  0.20823372387E+02  0.00000000000E+00 0.  1.
</event>
<event>
 7    1  0.5753610E-013  0.5052886E+02  0.7816164E-02  0.1300439E+00
        -11   -1    0    0    0    0  0.00000000000E+00  0.00000000000E+00  0.45593999997E+02  0.45594000000E+02  0.51100000000E-03 0.  1.
         11   -1    0    0    0    0 -0.00000000000E+00 -0.00000000000E+00 -0.45593999997E+02  0.45594000000E+02  0.51100000000E-03 0. -1.
    9900012    2    1    2    0    0  0.20930266284E+02 -0.92326322945E+01 -0.33613211278E+02  0.50528861812E+02  0.30000005963E+02 0.  0.
        -12    1    1    2    0    0 -0.20930266284E+02  0.92326322945E+01  0.33613211278E+02  0.40659138188E+02  0.00000000000E+00 0.  1.
         11    1    3    3    0    0  0.27450813886E+01 -0.48298243233E+01 -0.15819285276E+02  0.16766408731E+02  0.51100000000E-03 0. -1.
        -11    1    3    3    0    0 -0.13328937879E+01 -0.60792603035E+01 -0.11690162986E+02  0.13243637061E+02  0.51100000000E-03 0.  1.
        -12    1    3    3    0    0  0.19518078684E+02  0.16764523324E+01 -0.61037630151E+01  0.20518816020E+02  0.00000000000E+00 0.  1.
</event>
<event>
 7    1  0.5753610E-013  0.5052887E+02  0.7816164E-02  0.1300439E+00
        -11   -1    0    0    0    0  0.00000000000E+00  0.00000000000E+00  0.45593999997E+02  0.45594000000E+02  0.51100000000E-03 0. -1.
         11   -1    0    0    0    0 -0.00000000000E+00 -0.00000000000E+00 -0.45593999997E+02  0.45594000000E+02  0.51100000000E-03 0.  1.
    9900012    2    1    2    0    0  0.31821415585E+02 -0.12902902057E+02  0.21773320732E+02  0.50528869819E+02  0.30000030303E+02 0.  0.
        -12    1    1    2    0    0 -0.31821415585E+02  0.12902902057E+02 -0.21773320732E+02  0.40659130181E+02  0.00000000000E+00 0.  1.
         11    1    3    3    0    0  0.14284009442E+01 -0.81243107348E+01  0.99990061892E+01  0.12962441097E+02  0.51100000000E-03 0.  1.
        -11    1    3    3    0    0  0.17992895626E+02  0.17623803763E+01  0.14632449098E+02  0.23258521975E+02  0.51100000000E-03 0. -1.
         12    1    3    3    0    0  0.12400119015E+02 -0.65409716981E+01 -0.28581345548E+01  0.14307906747E+02  0.00000000000E+00 0. -1.
</event>
<event>
 7    1  0.5753610E-013  0.5052885E+02  0.7816164E-02  0.1300439E+00
        -11   -1    0    0    0    0  0.00000000000E+00  0.00000000000E+00  0.45593999997E+02  0.45594000000E+02  0.51100000000E-03 0.  1.
         11   -1    0    0    0    0 -0.00000000000E+00 -0.00000000000E+00 -0.45593999997E+02  0.45594000000E+02  0.51100000000E-03 0. -1.
    9900012    2    1    2    0    0 -0.16483446523E+01 -0.23236476075E+02 -0.33324396758E+02  0.50528852447E+02  0.29999977497E+02 0.  0.
        -12    1    1    2    0    0  0.16483446523E+01  0.23236476075E+02  0.33324396758E+02  0.40659147553E+02  0.00000000000E+00 0.  1.
         11    1    3    3    0    0 -0.88732032795E+01 -0.22417254144E+00 -0.87960580240E+01  0.12496184489E+02  0.51100000000E-03 0. -1.
        -11    1    3    3    0    0 -0.39234608997E+01 -0.83983982551E+01 -0.30398920059E+01  0.97553873502E+01  0.51100000000E-03 0.  1.
        -12    1    3    3    0    0  0.11148319527E+02 -0.14613905278E+02 -0.21488446728E+02  0.28277280607E+02  0.00000000000E+00 0.  1.
</event>
<event>
 7    1  0.5753610E-013  0.5052877E+02  0.7816164E-02  0.1300439E+00
        -11   -1    0    0    0    0  0.00000000000E+00  0.00000000000E+00  0.45593999997E+02  0.45594000000E+02  0.51100000000E-03 0.  1.
         11   -1    0    0    0    0 -0.00000000000E+00 -0.00000000000E+00 -0.45593999997E+02  0.45594000000E+02  0.51100000000E-03 0. -1.
    9900012    2    1    2    0    0  0.97262417859E+01 -0.34794567295E+02 -0.18652371282E+02  0.50528774147E+02  0.29999739495E+02 0.  0.
        -12    1    1    2    0    0 -0.97262417859E+01  0.34794567295E+02  0.18652371282E+02  0.40659225853E+02  0.00000000000E+00 0.  1.
         11    1    3    3    0    0  0.39817209595E+01 -0.30484030732E+02 -0.16587400093E+02  0.34932392898E+02  0.51100000000E-03 0. -1.
        -11    1    3    3    0    0  0.67668362245E+01 -0.84883547013E+01 -0.28519479789E+01  0.11223896184E+02  0.51100000000E-03 0.  1.
        -12    1    3    3    0    0 -0.10223153981E+01  0.41778181381E+01  0.78697678947E+00  0.43724850641E+01  0.00000000000E+00 0.  1.
</event>
<event>
 7    1  0.5753610E-013  0.5052886E+02  0.7816164E-02  0.1300439E+00
        -11   -1    0    0    0    0  0.00000000000E+00  0.00000000000E+00  0.45593999997E+02  0.45594000000E+02  0.51100000000E-03 0. -1.
         11   -1    0    0    0    0 -0.00000000000E+00 -0.00000000000E+00 -0.45593999997E+02  0.45594000000E+02  0.51100000000E-03 0.  1.
    9900012    2    1    2    0    0  0.36712811987E+02 -0.17471616750E+02 -0.27864928684E+00  0.50528860790E+02  0.30000002857E+02 0.  0.
        -12    1    1    2    0    0 -0.36712811987E+02  0.17471616750E+02  0.27864928684E+00  0.40659139210E+02  0.00000000000E+00 0.  1.
         11    1    3    3    0    0 -0.16688770509E+01  0.36925481175E+01 -0.19555171182E+01  0.44993454715E+01  0.51100000000E-03 0.  1.
        -11    1    3    3    0    0  0.63597214217E+01 -0.35468949715E+01  0.57178763162E+01  0.92585436398E+01  0.51100000000E-03 0. -1.
        -12    1    3    3    0    0  0.32021967616E+02 -0.17617269896E+02 -0.40410084849E+01  0.36770971679E+02  0.00000000000E+00 0.  1.
</event>
<event>
 7    1  0.5753610E-013  0.5052880E+02  0.7816164E-02  0.1300439E+00
        -11   -1    0    0    0    0  0.00000000000E+00  0.00000000000E+00  0.45593999997E+02  0.45594000000E+02  0.51100000000E-03 0.  1.
         11   -1    0    0    0    0 -0.00000000000E+00 -0.00000000000E+00 -0.45593999997E+02  0.45594000000E+02  0.51100000000E-03 0. -1.
    9900012    2    1    2    0    0 -0.30800712859E+02 -0.26492370489E+02 -0.16250963408E+01  0.50528799997E+02  0.29999818070E+02 0.  0.
        -12    1    1    2    0    0  0.30800712859E+02  0.26492370489E+02  0.16250963408E+01  0.40659200003E+02  0.00000000000E+00 0.  1.
         11    1    3    3    0    0 -0.23213088964E+02 -0.16690154582E+02  0.78004894453E+01  0.29635390921E+02  0.51100000000E-03 0. -1.
        -11    1    3    3    0    0 -0.29473966713E+01 -0.11112335349E+02 -0.14692040333E+01  0.11590069232E+02  0.51100000000E-03 0.  1.
        -12    1    3    3    0    0 -0.46402272243E+01  0.13101194424E+01 -0.79563817528E+01  0.93033398434E+01  0.00000000000E+00 0.  1.
</event>
<event>
 7    1  0.5753610E-013  0.5052886E+02  0.7816164E-02  0.1300439E+00
        -11   -1    0    0    0    0  0.00000000000E+00  0.00000000000E+00  0.45593999997E+02  0.45594000000E+02  0.51100000000E-03 0.  1.
         11   -1    0    0    0    0 -0.00000000000E+00 -0.00000000000E+00 -0.45593999997E+02  0.45594000000E+02  0.51100000000E-03 0. -1.
    9900012    2    1    2    0    0  0.11699719746E+02 -0.31858837882E+02 -0.22389656230E+02  0.50528859584E+02  0.29999999190E+02 0.  0.
        -12    1    1    2    0    0 -0.11699719746E+02  0.31858837882E+02  0.22389656230E+02  0.40659140416E+02  0.00000000000E+00 0.  1.
         11    1    3    3    0    0  0.90042006014E+01 -0.48806986207E+01 -0.34871784168E+01  0.10819300396E+02  0.51100000000E-03 0.  1.
        -11    1    3    3    0    0  0.95206682911E+01 -0.26403549144E+02 -0.15462159431E+02  0.32044795313E+02  0.51100000000E-03 0. -1.
         12    1    3    3    0    0 -0.68251491470E+01 -0.57459011736E+00 -0.34403183821E+01  0.76647638745E+01  0.00000000000E+00 0. -1.
</event>
<event>
 7    1  0.5753610E-013  0.5052886E+02  0.7816164E-02  0.1300439E+00
        -11   -1    0    0    0    0  0.00000000000E+00  0.00000000000E+00  0.45593999997E+02  0.45594000000E+02  0.51100000000E-03 0.  1.
         11   -1    0    0    0    0 -0.00000000000E+00 -0.00000000000E+00 -0.45593999997E+02  0.45594000000E+02  0.51100000000E-03 0. -1.
    9900012    2    1    2    0    0 -0.31964655699E+02 -0.12059892988E+02 -0.22045085861E+02  0.50528855353E+02  0.29999986331E+02 0.  0.
        -12    1    1    2    0    0  0.31964655699E+02  0.12059892988E+02  0.22045085861E+02  0.40659144647E+02  0.00000000000E+00 0.  1.
         11    1    3    3    0    0  0.14590081757E+01 -0.80184438128E+01 -0.39792505492E+01  0.90696516598E+01  0.51100000000E-03 0. -1.
        -11    1    3    3    0    0 -0.45433175591E+01  0.43204012896E+01  0.21157377562E+00  0.62731463772E+01  0.51100000000E-03 0.  1.
         12    1    3    3    0    0 -0.28880346316E+02 -0.83618504650E+01 -0.18277409087E+02  0.35186057316E+02  0.00000000000E+00 0. -1.
</event>
<event>
 7    1  0.5753610E-013  0.5052888E+02  0.7816164E-02  0.1300439E+00
        -11   -1    0    0    0    0  0.00000000000E+00  0.00000000000E+00  0.45593999997E+02  0.45594000000E+02  0.51100000000E-03 0.  1.
         11   -1    0    0    0    0 -0.00000000000E+00 -0.00000000000E+00 -0.45593999997E+02  0.45594000000E+02  0.51100000000E-03 0. -1.
    9900012    2    1    2    0    0 -0.51715751075E+01  0.27362539047E+02 -0.29626180156E+02  0.50528877004E+02  0.30000052140E+02 0.  0.
        -12    1    1    2    0    0  0.51715751075E+01 -0.27362539047E+02  0.29626180156E+02  0.40659122996E+02  0.00000000000E+00 0.  1.
         11    1    3    3    0    0 -0.14189779723E+00  0.93712130269E+01 -0.14933351584E+02  0.17630790067E+02  0.51100000000E-03 0. -1.
        -11    1    3    3    0    0  0.43396585812E+01  0.19399940126E+02 -0.87973025575E+01  0.21738970676E+02  0.51100000000E-03 0.  1.
         12    1    3    3    0    0 -0.93693358914E+01 -0.14086141056E+01 -0.58955260138E+01  0.11159116261E+02  0.00000000000E+00 0. -1.
</event>
<event>
 7    1  0.5753610E-013  0.5052886E+02  0.7816164E-02  0.1300439E+00
        -11   -1    0    0    0    0  0.00000000000E+00  0.00000000000E+00  0.45593999997E+02  0.45594000000E+02  0.51100000000E-03 0.  1.
         11   -1    0    0    0    0 -0.00000000000E+00 -0.00000000000E+00 -0.45593999997E+02  0.45594000000E+02  0.51100000000E-03 0. -1.
    9900012    2    1    2    0    0 -0.18729004654E+02 -0.75897427479E+01 -0.35281521316E+02  0.50528861339E+02  0.30000004526E+02 0.  0.
        -12    1    1    2    0    0  0.18729004654E+02  0.75897427479E+01  0.35281521316E+02  0.40659138661E+02  0.00000000000E+00 0.  1.
         11    1    3    3    0    0 -0.19619648069E+02 -0.26647787271E+01 -0.17610875739E+02  0.26498576954E+02  0.51100000000E-03 0. -1.
        -11    1    3    3    0    0 -0.61823950588E+01  0.17684062453E+01 -0.84594605768E+01  0.10625993733E+02  0.51100000000E-03 0.  1.
        -12    1    3    3    0    0  0.70730384740E+01 -0.66933702661E+01 -0.92111850002E+01  0.13404290652E+02  0.00000000000E+00 0.  1.
</event>
<event>
 7    1  0.5799713E-013  0.5052886E+02  0.7816164E-02  0.1300439E+00
        -11   -1    0    0    0    0  0.00000000000E+00  0.00000000000E+00  0.45593999997E+02  0.45594000000E+02  0.51100000000E-03 0.  1.
         11   -1    0    0    0    0 -0.00000000000E+00 -0.00000000000E+00 -0.45593999997E+02  0.45594000000E+02  0.51100000000E-03 0. -1.
    9900012    2    1    2    0    0  0.28262610552E+02 -0.10099611948E+02 -0.27429697677E+02  0.50528860420E+02  0.30000001733E+02 0.  0.
        -12    1    1    2    0    0 -0.28262610552E+02  0.10099611948E+02  0.27429697677E+02  0.40659139580E+02  0.00000000000E+00 0.  1.
         11    1    3    3    0    0  0.15368515729E+02 -0.32553254703E+01 -0.16932371156E+02  0.23097480660E+02  0.51100000000E-03 0. -1.
        -11    1    3    3    0    0  0.47090394293E+01 -0.90379183692E+01 -0.14767284008E+02  0.17942455184E+02  0.51100000000E-03 0.  1.
        -12    1    3    3    0    0  0.81850553937E+01  0.21936318917E+01  0.42699574865E+01  0.94889245761E+01  0.00000000000E+00 0.  1.
</event>
<event>
 7    1  0.5753610E-013  0.5052892E+02  0.7816164E-02  0.1300439E+00
        -11   -1    0    0    0    0  0.00000000000E+00  0.00000000000E+00  0.45593999997E+02  0.45594000000E+02  0.51100000000E-03 0.  1.
         11   -1    0    0    0    0 -0.00000000000E+00 -0.00000000000E+00 -0.45593999997E+02  0.45594000000E+02  0.51100000000E-03 0. -1.
    9900012    2    1    2    0    0  0.27851232170E+02  0.25342276204E+02  0.15337494893E+02  0.50528919266E+02  0.30000180601E+02 0.  0.
        -12    1    1    2    0    0 -0.27851232170E+02 -0.25342276204E+02 -0.15337494893E+02  0.40659080734E+02  0.00000000000E+00 0.  1.
         11    1    3    3    0    0  0.35172519813E+01  0.15438992010E+02  0.11204011190E+02  0.19397510221E+02  0.51100000000E-03 0. -1.
        -11    1    3    3    0    0  0.22549541561E+02  0.55397908143E+01  0.84791490563E+01  0.24719770951E+02  0.51100000000E-03 0.  1.
         12    1    3    3    0    0  0.17844386275E+01  0.43634933794E+01 -0.43456653534E+01  0.64116380942E+01  0.00000000000E+00 0. -1.
</event>
<event>
 7    1  0.5753610E-013  0.5052885E+02  0.7816164E-02  0.1300439E+00
        -11   -1    0    0    0    0  0.00000000000E+00  0.00000000000E+00  0.45593999997E+02  0.45594000000E+02  0.51100000000E-03 0. -1.
         11   -1    0    0    0    0 -0.00000000000E+00 -0.00000000000E+00 -0.45593999997E+02  0.45594000000E+02  0.51100000000E-03 0.  1.
    9900012    2    1    2    0    0  0.67433543430E+01  0.39419910332E+02  0.73324013735E+01  0.50528852588E+02  0.29999977926E+02 0.  0.
        -12    1    1    2    0    0 -0.67433543430E+01 -0.39419910332E+02 -0.73324013735E+01  0.40659147412E+02  0.00000000000E+00 0.  1.
         11    1    3    3    0    0 -0.20690632000E+01  0.10055952564E+02  0.93474162813E+01  0.13884429981E+02  0.51100000000E-03 0. -1.
        -11    1    3    3    0    0  0.64566020073E+00 -0.30386352413E+01 -0.79332809601E+00  0.32061738808E+01  0.51100000000E-03 0.  1.
         12    1    3    3    0    0  0.81667573423E+01  0.32402593009E+02 -0.12216868118E+01  0.33438248726E+02  0.00000000000E+00 0. -1.
</event>
<event>
 7    1  0.5753610E-013  0.5052886E+02  0.7816164E-02  0.1300439E+00
        -11   -1    0    0    0    0  0.00000000000E+00  0.00000000000E+00  0.45593999997E+02  0.45594000000E+02  0.51100000000E-03 0. -1.
         11   -1    0    0    0    0 -0.00000000000E+00 -0.00000000000E+00 -0.45593999997E+02  0.45594000000E+02  0.51100000000E-03 0.  1.
    9900012    2    1    2    0    0 -0.32027401179E+02  0.24252514738E+02 -0.62631051014E+01  0.50528863476E+02  0.30000011020E+02 0.  0.
        -12    1    1    2    0    0  0.32027401179E+02 -0.24252514738E+02  0.62631051014E+01  0.40659136524E+02  0.00000000000E+00 0.  1.
         11    1    3    3    0    0 -0.18116938531E+02  0.94868379946E+00  0.15689830025E-02  0.18141760262E+02  0.51100000000E-03 0. -1.
        -11    1    3    3    0    0 -0.50047100900E+01  0.15767182119E+01 -0.71738356413E+01  0.88880302359E+01  0.51100000000E-03 0.  1.
         12    1    3    3    0    0 -0.89057525582E+01  0.21727112727E+02  0.90916155689E+00  0.23499072978E+02  0.00000000000E+00 0. -1.
</event>
<event>
 7    1  0.5753610E-013  0.5052886E+02  0.7816164E-02  0.1300439E+00
        -11   -1    0    0    0    0  0.00000000000E+00  0.00000000000E+00  0.45593999997E+02  0.45594000000E+02  0.51100000000E-03 0. -1.
         11   -1    0    0    0    0 -0.00000000000E+00 -0.00000000000E+00 -0.45593999997E+02  0.45594000000E+02  0.51100000000E-03 0.  1.
    9900012    2    1    2    0    0  0.31347765258E+02  0.19967560502E+02 -0.16485750975E+02  0.50528857802E+02  0.29999993775E+02 0.  0.
        -12    1    1    2    0    0 -0.31347765258E+02 -0.19967560502E+02  0.16485750975E+02  0.40659142198E+02  0.00000000000E+00 0.  1.
         11    1    3    3    0    0  0.78312323091E+01  0.86417823530E+01  0.26878952537E+01  0.11968014993E+02  0.51100000000E-03 0. -1.
        -11    1    3    3    0    0  0.47923950648E+01  0.13261626637E+02 -0.11642647659E+02  0.18286307344E+02  0.51100000000E-03 0.  1.
        -12    1    3    3    0    0  0.18724137884E+02 -0.19358484877E+01 -0.75309985702E+01  0.20274535465E+02  0.00000000000E+00 0.  1.
</event>
<event>
 7    1  0.5753610E-013  0.5052881E+02  0.7816164E-02  0.1300439E+00
        -11   -1    0    0    0    0  0.00000000000E+00  0.00000000000E+00  0.45593999997E+02  0.45594000000E+02  0.51100000000E-03 0.  1.
         11   -1    0    0    0    0 -0.00000000000E+00 -0.00000000000E+00 -0.45593999997E+02  0.45594000000E+02  0.51100000000E-03 0. -1.
    9900012    2    1    2    0    0 -0.23305155214E+02  0.26273506703E+02 -0.20487603865E+02  0.50528814984E+02  0.29999863624E+02 0.  0.
        -12    1    1    2    0    0  0.23305155214E+02 -0.26273506703E+02  0.20487603865E+02  0.40659185016E+02  0.00000000000E+00 0.  1.
         11    1    3    3    0    0 -0.13859929531E+02  0.15355719813E+02 -0.13793974652E+02  0.24863014993E+02  0.51100000000E-03 0. -1.
        -11    1    3    3    0    0 -0.16431322190E+00  0.11677151408E+02 -0.10405314081E+02  0.15641400999E+02  0.51100000000E-03 0.  1.
        -12    1    3    3    0    0 -0.92809124612E+01 -0.75936451776E+00  0.37116848674E+01  0.10024398991E+02  0.00000000000E+00 0.  1.
</event>
<event>
 7    1  0.5753610E-013  0.5052886E+02  0.7816164E-02  0.1300439E+00
        -11   -1    0    0    0    0  0.00000000000E+00  0.00000000000E+00  0.45593999997E+02  0.45594000000E+02  0.51100000000E-03 0.  1.
         11   -1    0    0    0    0 -0.00000000000E+00 -0.00000000000E+00 -0.45593999997E+02  0.45594000000E+02  0.51100000000E-03 0. -1.
    9900012    2    1    2    0    0  0.20653674675E+01 -0.14122353136E+02 -0.38071767292E+02  0.50528855080E+02  0.29999985502E+02 0.  0.
        -12    1    1    2    0    0 -0.20653674675E+01  0.14122353136E+02  0.38071767292E+02  0.40659144920E+02  0.00000000000E+00 0.  1.
         11    1    3    3    0    0  0.71135411572E+00 -0.24803422599E+01 -0.11455463593E+02  0.11742477115E+02  0.51100000000E-03 0. -1.
        -11    1    3    3    0    0  0.75569323715E+01 -0.17862752753E+02 -0.17447580383E+02  0.26088373355E+02  0.51100000000E-03 0.  1.
         12    1    3    3    0    0 -0.62029190196E+01  0.62207418768E+01 -0.91687233156E+01  0.12698004611E+02  0.00000000000E+00 0. -1.
</event>
<event>
 7    1  0.5753610E-013  0.5052886E+02  0.7816164E-02  0.1300439E+00
        -11   -1    0    0    0    0  0.00000000000E+00  0.00000000000E+00  0.45593999997E+02  0.45594000000E+02  0.51100000000E-03 0.  1.
         11   -1    0    0    0    0 -0.00000000000E+00 -0.00000000000E+00 -0.45593999997E+02  0.45594000000E+02  0.51100000000E-03 0. -1.
    9900012    2    1    2    0    0 -0.26243092491E+02  0.29516792780E+02 -0.96552843857E+01  0.50528862330E+02  0.30000007539E+02 0.  0.
        -12    1    1    2    0    0  0.26243092491E+02 -0.29516792780E+02  0.96552843857E+01  0.40659137670E+02  0.00000000000E+00 0.  1.
         11    1    3    3    0    0 -0.55009322483E+01  0.12143927545E+02 -0.10990086512E+02  0.17277651276E+02  0.51100000000E-03 0. -1.
        -11    1    3    3    0    0  0.19491982376E+01 -0.23589461131E+01  0.85301209377E+00  0.31767326654E+01  0.51100000000E-03 0.  1.
         12    1    3    3    0    0 -0.22691358480E+02  0.19731811347E+02  0.48179003206E+00  0.30074478389E+02  0.00000000000E+00 0. -1.
</event>
<event>
 7    1  0.5753610E-013  0.5052886E+02  0.7816164E-02  0.1300439E+00
        -11   -1    0    0    0    0  0.00000000000E+00  0.00000000000E+00  0.45593999997E+02  0.45594000000E+02  0.51100000000E-03 0. -1.
         11   -1    0    0    0    0 -0.00000000000E+00 -0.00000000000E+00 -0.45593999997E+02  0.45594000000E+02  0.51100000000E-03 0.  1.
    9900012    2    1    2    0    0 -0.65126590515E+01  0.40132945386E+02  0.31295400895E+00  0.50528856213E+02  0.29999988946E+02 0.  0.
        -12    1    1    2    0    0  0.65126590515E+01 -0.40132945386E+02 -0.31295400895E+00  0.40659143787E+02  0.00000000000E+00 0.  1.
         11    1    3    3    0    0 -0.10105762311E+02  0.13420093059E+02  0.10291242336E+01  0.16831055420E+02  0.51100000000E-03 0. -1.
        -11    1    3    3    0    0 -0.44341687143E+01  0.57942793969E+01 -0.73237406253E+01  0.10337925465E+02  0.51100000000E-03 0.  1.
         12    1    3    3    0    0  0.80272719737E+01  0.20918572930E+02  0.66075704007E+01  0.23359875329E+02  0.00000000000E+00 0. -1.
</event>
<event>
 7    1  0.5753610E-013  0.5052886E+02  0.7816164E-02  0.1300439E+00
        -11   -1    0    0    0    0  0.00000000000E+00  0.00000000000E+00  0.45593999997E+02  0.45594000000E+02  0.51100000000E-03 0.  1.
         11   -1    0    0    0    0 -0.00000000000E+00 -0.00000000000E+00 -0.45593999997E+02  0.45594000000E+02  0.51100000000E-03 0. -1.
    9900012    2    1    2    0    0  0.21351233038E+02  0.10470707520E+02 -0.32979609897E+02  0.50528861579E+02  0.30000005254E+02 0.  0.
        -12    1    1    2    0    0 -0.21351233038E+02 -0.10470707520E+02  0.32979609897E+02  0.40659138421E+02  0.00000000000E+00 0.  1.
         11    1    3    3    0    0  0.20334125537E+02  0.52998984781E+01 -0.10759223789E+02  0.23607763173E+02  0.51100000000E-03 0. -1.
        -11    1    3    3    0    0  0.51672131732E+00 -0.39090975517E+01 -0.13706631099E+01  0.41745373649E+01  0.51100000000E-03 0.  1.
         12    1    3    3    0    0  0.50038618415E+00  0.90799065939E+01 -0.20849722998E+02  0.22746561041E+02  0.00000000000E+00 0. -1.
</event>
<event>
 7    1  0.5753610E-013  0.5052881E+02  0.7816164E-02  0.1300439E+00
        -11   -1    0    0    0    0  0.00000000000E+00  0.00000000000E+00  0.45593999997E+02  0.45594000000E+02  0.51100000000E-03 0. -1.
         11   -1    0    0    0    0 -0.00000000000E+00 -0.00000000000E+00 -0.45593999997E+02  0.45594000000E+02  0.51100000000E-03 0.  1.
    9900012    2    1    2    0    0  0.40080267853E+02  0.62184305375E+01  0.28412990941E+01  0.50528810017E+02  0.29999848527E+02 0.  0.
        -12    1    1    2    0    0 -0.40080267853E+02 -0.62184305375E+01 -0.28412990941E+01  0.40659189983E+02  0.00000000000E+00 0.  1.
         11    1    3    3    0    0  0.11649050683E+02 -0.32567548983E+00 -0.17516703294E+01  0.11784515074E+02  0.51100000000E-03 0. -1.
        -11    1    3    3    0    0  0.22812206275E+02  0.15667896282E+02  0.21768655472E+01  0.27760015722E+02  0.51100000000E-03 0.  1.
        -12    1    3    3    0    0  0.56190108950E+01 -0.91237902544E+01  0.24161038763E+01  0.10984279220E+02  0.00000000000E+00 0.  1.
</event>
<event>
 7    1  0.5753610E-013  0.5052886E+02  0.7816164E-02  0.1300439E+00
        -11   -1    0    0    0    0  0.00000000000E+00  0.00000000000E+00  0.45593999997E+02  0.45594000000E+02  0.51100000000E-03 0.  1.
         11   -1    0    0    0    0 -0.00000000000E+00 -0.00000000000E+00 -0.45593999997E+02  0.45594000000E+02  0.51100000000E-03 0. -1.
    9900012    2    1    2    0    0 -0.23728369443E+02 -0.32284955161E+02  0.69145954085E+01  0.50528862333E+02  0.30000007548E+02 0.  0.
        -12    1    1    2    0    0  0.23728369443E+02  0.32284955161E+02 -0.69145954085E+01  0.40659137667E+02  0.00000000000E+00 0.  1.
         11    1    3    3    0    0 -0.13457050565E+02 -0.29626186358E+02  0.44303762603E+01  0.32839478712E+02  0.51100000000E-03 0. -1.
        -11    1    3    3    0    0 -0.13548686798E+02 -0.37041006552E+01  0.15942250918E+01  0.14136082538E+02  0.51100000000E-03 0.  1.
        -12    1    3    3    0    0  0.32773679202E+01  0.10453318524E+01  0.88999405632E+00  0.35533010830E+01  0.00000000000E+00 0.  1.
</event>
<event>
 7    1  0.5753610E-013  0.5052886E+02  0.7816164E-02  0.1300439E+00
        -11   -1    0    0    0    0  0.00000000000E+00  0.00000000000E+00  0.45593999997E+02  0.45594000000E+02  0.51100000000E-03 0.  1.
         11   -1    0    0    0    0 -0.00000000000E+00 -0.00000000000E+00 -0.45593999997E+02  0.45594000000E+02  0.51100000000E-03 0. -1.
    9900012    2    1    2    0    0 -0.24800711210E+02  0.55563389634E+01 -0.31736696079E+02  0.50528855184E+02  0.29999985817E+02 0.  0.
        -12    1    1    2    0    0  0.24800711210E+02 -0.55563389634E+01  0.31736696079E+02  0.40659144816E+02  0.00000000000E+00 0.  1.
         11    1    3    3    0    0 -0.67688035523E+01 -0.97321325292E+01 -0.74463446454E+01  0.13999255478E+02  0.51100000000E-03 0. -1.
        -11    1    3    3    0    0 -0.40680324937E+01  0.71499445620E+01 -0.11536793656E+01  0.83067184826E+01  0.51100000000E-03 0.  1.
        -12    1    3    3    0    0 -0.13963875164E+02  0.81385269306E+01 -0.23136672068E+02  0.28222881223E+02  0.00000000000E+00 0.  1.
</event>
<event>
 7    1  0.5753610E-013  0.5052894E+02  0.7816164E-02  0.1300438E+00
        -11   -1    0    0    0    0  0.00000000000E+00  0.00000000000E+00  0.45593999997E+02  0.45594000000E+02  0.51100000000E-03 0.  1.
         11   -1    0    0    0    0 -0.00000000000E+00 -0.00000000000E+00 -0.45593999997E+02  0.45594000000E+02  0.51100000000E-03 0. -1.
    9900012    2    1    2    0    0  0.38443819741E+01  0.21629488114E+02 -0.34213225092E+02  0.50528944428E+02  0.30000257081E+02 0.  0.
        -12    1    1    2    0    0 -0.38443819741E+01 -0.21629488114E+02  0.34213225092E+02  0.40659055572E+02  0.00000000000E+00 0.  1.
         11    1    3    3    0    0 -0.63855315185E+01  0.49453731766E+01 -0.99241004297E+01  0.12795292034E+02  0.51100000000E-03 0. -1.
        -11    1    3    3    0    0  0.18090036011E+00  0.15550967776E+01  0.38986613253E+01  0.42012630622E+01  0.51100000000E-03 0.  1.
         12    1    3    3    0    0  0.10049013132E+02  0.15129018160E+02 -0.28187785987E+02  0.33532389332E+02  0.00000000000E+00 0. -1.
</event>
<event>
 7    1  0.5753610E-013  0.5052886E+02  0.7816164E-02  0.1300439E+00
        -11   -1    0    0    0    0  0.00000000000E+00  0.00000000000E+00  0.45593999997E+02  0.45594000000E+02  0.51100000000E-03 0. -1.
         11   -1    0    0    0    0 -0.00000000000E+00 -0.00000000000E+00 -0.45593999997E+02  0.45594000000E+02  0.51100000000E-03 0.  1.
    9900012    2    1    2    0    0 -0.21475610677E+02  0.31092455813E+02 -0.15007435404E+02  0.50528858595E+02  0.29999996184E+02 0.  0.
        -12    1    1    2    0    0  0.21475610677E+02 -0.31092455813E+02  0.15007435404E+02  0.40659141405E+02  0.00000000000E+00 0.  1.
         11    1    3    3    0    0 -0.78322750284E+01 -0.76993502491E+00 -0.11609501413E+02  0.14025614261E+02  0.51100000000E-03 0. -1.
        -11    1    3    3    0    0  0.11095768612E+01  0.23754509658E+01  0.17215955742E+01  0.31365298794E+01  0.51100000000E-03 0.  1.
        -12    1    3    3    0    0 -0.14752912510E+02  0.29486939872E+02 -0.51195295652E+01  0.33366714455E+02  0.00000000000E+00 0.  1.
</event>
<event>
 7    1  0.5753610E-013  0.5052885E+02  0.7816164E-02  0.1300439E+00
        -11   -1    0    0    0    0  0.00000000000E+00  0.00000000000E+00  0.45593999997E+02  0.45594000000E+02  0.51100000000E-03 0.  1.
         11   -1    0    0    0    0 -0.00000000000E+00 -0.00000000000E+00 -0.45593999997E+02  0.45594000000E+02  0.51100000000E-03 0. -1.
    9900012    2    1    2    0    0 -0.27491789186E+01  0.91485028188E+01 -0.39521046369E+02  0.50528853493E+02  0.29999980679E+02 0.  0.
        -12    1    1    2    0    0  0.27491789186E+01 -0.91485028188E+01  0.39521046369E+02  0.40659146507E+02  0.00000000000E+00 0.  1.
         11    1    3    3    0    0 -0.66341386597E+01  0.23233829641E+01 -0.18997189305E+02  0.20255940015E+02  0.51100000000E-03 0. -1.
        -11    1    3    3    0    0 -0.78758850528E+01  0.65102969027E+01 -0.11903214855E+02  0.15687576463E+02  0.51100000000E-03 0.  1.
         12    1    3    3    0    0  0.11760844794E+02  0.31482295194E+00 -0.86206422088E+01  0.14585337015E+02  0.00000000000E+00 0. -1.
</event>
<event>
 7    1  0.5753610E-013  0.5052886E+02  0.7816164E-02  0.1300439E+00
        -11   -1    0    0    0    0  0.00000000000E+00  0.00000000000E+00  0.45593999997E+02  0.45594000000E+02  0.51100000000E-03 0.  1.
         11   -1    0    0    0    0 -0.00000000000E+00 -0.00000000000E+00 -0.45593999997E+02  0.45594000000E+02  0.51100000000E-03 0. -1.
    9900012    2    1    2    0    0  0.23446330317E+02 -0.32909992270E+02 -0.45130515609E+01  0.50528860425E+02  0.30000001749E+02 0.  0.
        -12    1    1    2    0    0 -0.23446330317E+02  0.32909992270E+02  0.45130515609E+01  0.40659139575E+02  0.00000000000E+00 0.  1.
         11    1    3    3    0    0  0.53620245732E+01 -0.16533873608E+02  0.12795187696E+00  0.17382078585E+02  0.51100000000E-03 0. -1.
        -11    1    3    3    0    0 -0.10196954418E+01  0.37524515672E+00 -0.75000443117E+01  0.75783410230E+01  0.51100000000E-03 0.  1.
         12    1    3    3    0    0  0.19104001186E+02 -0.16751363819E+02  0.28590408738E+01  0.25568440817E+02  0.00000000000E+00 0. -1.
</event>
<event>
 7    1  0.5753610E-013  0.5052889E+02  0.7816164E-02  0.1300439E+00
        -11   -1    0    0    0    0  0.00000000000E+00  0.00000000000E+00  0.45593999997E+02  0.45594000000E+02  0.51100000000E-03 0.  1.
         11   -1    0    0    0    0 -0.00000000000E+00 -0.00000000000E+00 -0.45593999997E+02  0.45594000000E+02  0.51100000000E-03 0. -1.
    9900012    2    1    2    0    0  0.51833586209E+01  0.34244552307E+02 -0.21298047043E+02  0.50528888141E+02  0.30000085994E+02 0.  0.
        -12    1    1    2    0    0 -0.51833586209E+01 -0.34244552307E+02  0.21298047043E+02  0.40659111859E+02  0.00000000000E+00 0.  1.
         11    1    3    3    0    0 -0.41952204543E+01 -0.17410236421E+01 -0.28983405746E+01  0.53880809506E+01  0.51100000000E-03 0. -1.
        -11    1    3    3    0    0  0.77104177476E+01  0.37273078614E+01 -0.63649366827E+01  0.10670322627E+02  0.51100000000E-03 0.  1.
        -12    1    3    3    0    0  0.16681613276E+01  0.32258268088E+02 -0.12034769786E+02  0.34470484563E+02  0.00000000000E+00 0.  1.
</event>
<event>
 7    1  0.5753610E-013  0.5052886E+02  0.7816164E-02  0.1300439E+00
        -11   -1    0    0    0    0  0.00000000000E+00  0.00000000000E+00  0.45593999997E+02  0.45594000000E+02  0.51100000000E-03 0.  1.
         11   -1    0    0    0    0 -0.00000000000E+00 -0.00000000000E+00 -0.45593999997E+02  0.45594000000E+02  0.51100000000E-03 0. -1.
    9900012    2    1    2    0    0 -0.16556916130E+02 -0.27607798290E+02 -0.24836332158E+02  0.50528863349E+02  0.30000010635E+02 0.  0.
        -12    1    1    2    0    0  0.16556916130E+02  0.27607798290E+02  0.24836332158E+02  0.40659136651E+02  0.00000000000E+00 0.  1.
         11    1    3    3    0    0 -0.45194055784E+01  0.42640539049E+01 -0.84042711835E+01  0.10451744202E+02  0.51100000000E-03 0. -1.
        -11    1    3    3    0    0 -0.24584952973E+01 -0.29055688733E+01  0.21334168101E+01  0.43632553388E+01  0.51100000000E-03 0.  1.
         12    1    3    3    0    0 -0.95790152544E+01 -0.28966283322E+02 -0.18565477784E+02  0.35713863808E+02  0.00000000000E+00 0. -1.
</event>
<event>
 7    1  0.5753610E-013  0.5052886E+02  0.7816164E-02  0.1300439E+00
        -11   -1    0    0    0    0  0.00000000000E+00  0.00000000000E+00  0.45593999997E+02  0.45594000000E+02  0.51100000000E-03 0. -1.
         11   -1    0    0    0    0 -0.00000000000E+00 -0.00000000000E+00 -0.45593999997E+02  0.45594000000E+02  0.51100000000E-03 0.  1.
    9900012    2    1    2    0    0  0.51218080906E+01  0.19867491320E+02 -0.35102926665E+02  0.50528860930E+02  0.30000003281E+02 0.  0.
        -12    1    1    2    0    0 -0.51218080906E+01 -0.19867491320E+02  0.35102926665E+02  0.40659139070E+02  0.00000000000E+00 0.  1.
         11    1    3    3    0    0 -0.62926017201E+01  0.87352981931E+01 -0.15560921379E+02  0.18922065039E+02  0.51100000000E-03 0. -1.
        -11    1    3    3    0    0 -0.49919787800E+01 -0.17503572793E-01 -0.43453599109E+01  0.66183314764E+01  0.51100000000E-03 0.  1.
        -12    1    3    3    0    0  0.16406388591E+02  0.11149696700E+02 -0.15196645376E+02  0.24988464414E+02  0.00000000000E+00 0.  1.
</event>
<event>
 7    1  0.5753610E-013  0.5052886E+02  0.7816164E-02  0.1300439E+00
        -11   -1    0    0    0    0  0.00000000000E+00  0.00000000000E+00  0.45593999997E+02  0.45594000000E+02  0.51100000000E-03 0.  1.
         11   -1    0    0    0    0 -0.00000000000E+00 -0.00000000000E+00 -0.45593999997E+02  0.45594000000E+02  0.51100000000E-03 0. -1.
    9900012    2    1    2    0    0 -0.15183848040E+02  0.33729726676E+02 -0.16879634567E+02  0.50528858763E+02  0.29999996697E+02 0.  0.
        -12    1    1    2    0    0  0.15183848040E+02 -0.33729726676E+02  0.16879634567E+02  0.40659141237E+02  0.00000000000E+00 0.  1.
         11    1    3    3    0    0 -0.12699610319E+02  0.20150481877E+02 -0.16010846601E+02  0.28699638173E+02  0.51100000000E-03 0. -1.
        -11    1    3    3    0    0  0.21548425169E+01  0.85564213534E+01 -0.80282669130E+01  0.11929323641E+02  0.51100000000E-03 0.  1.
        -12    1    3    3    0    0 -0.46390802379E+01  0.50228234457E+01  0.71594789462E+01  0.98998969490E+01  0.00000000000E+00 0.  1.
</event>
<event>
 7    1  0.5753610E-013  0.5052886E+02  0.7816164E-02  0.1300439E+00
        -11   -1    0    0    0    0  0.00000000000E+00  0.00000000000E+00  0.45593999997E+02  0.45594000000E+02  0.51100000000E-03 0. -1.
         11   -1    0    0    0    0 -0.00000000000E+00 -0.00000000000E+00 -0.45593999997E+02  0.45594000000E+02  0.51100000000E-03 0.  1.
    9900012    2    1    2    0    0 -0.12972550407E+02  0.29561869487E+02  0.24717892651E+02  0.50528863159E+02  0.30000010057E+02 0.  0.
        -12    1    1    2    0    0  0.12972550407E+02 -0.29561869487E+02 -0.24717892651E+02  0.40659136841E+02  0.00000000000E+00 0.  1.
         11    1    3    3    0    0 -0.62732665256E+01  0.34263187578E+01 -0.41066496523E+01  0.82436705877E+01  0.51100000000E-03 0. -1.
        -11    1    3    3    0    0 -0.71543053153E+01  0.29605376333E+01  0.78184721882E+01  0.11003516494E+02  0.51100000000E-03 0.  1.
         12    1    3    3    0    0  0.45502143432E+00  0.23175013095E+02  0.21006070115E+02  0.31281676076E+02  0.00000000000E+00 0. -1.
</event>
<event>
 7    1  0.5753610E-013  0.5052886E+02  0.7816164E-02  0.1300439E+00
        -11   -1    0    0    0    0  0.00000000000E+00  0.00000000000E+00  0.45593999997E+02  0.45594000000E+02  0.51100000000E-03 0.  1.
         11   -1    0    0    0    0 -0.00000000000E+00 -0.00000000000E+00 -0.45593999997E+02  0.45594000000E+02  0.51100000000E-03 0. -1.
    9900012    2    1    2    0    0  0.97400284918E+01 -0.11553919516E+02 -0.37746587389E+02  0.50528855017E+02  0.29999985310E+02 0.  0.
        -12    1    1    2    0    0 -0.97400284918E+01  0.11553919516E+02  0.37746587389E+02  0.40659144983E+02  0.00000000000E+00 0.  1.
         11    1    3    3    0    0  0.10256143484E+02  0.56224885835E+01 -0.11824854793E+02  0.16632139014E+02  0.51100000000E-03 0. -1.
        -11    1    3    3    0    0  0.36911631108E+01 -0.29363537748E+01 -0.14248938417E+02  0.15009300613E+02  0.51100000000E-03 0.  1.
        -12    1    3    3    0    0 -0.42072781031E+01 -0.14240054324E+02 -0.11672794179E+02  0.18887415391E+02  0.00000000000E+00 0.  1.
</event>
<event>
 7    1  0.5753610E-013  0.5052886E+02  0.7816164E-02  0.1300439E+00
        -11   -1    0    0    0    0  0.00000000000E+00  0.00000000000E+00  0.45593999997E+02  0.45594000000E+02  0.51100000000E-03 0.  1.
         11   -1    0    0    0    0 -0.00000000000E+00 -0.00000000000E+00 -0.45593999997E+02  0.45594000000E+02  0.51100000000E-03 0. -1.
    9900012    2    1    2    0    0 -0.31487319125E+02 -0.14094415930E+02 -0.21518865073E+02  0.50528863510E+02  0.30000011125E+02 0.  0.
        -12    1    1    2    0    0  0.31487319125E+02  0.14094415930E+02  0.21518865073E+02  0.40659136490E+02  0.00000000000E+00 0.  1.
         11    1    3    3    0    0 -0.18886680155E+02 -0.13822046123E+02 -0.22889829924E+02  0.32736828810E+02  0.51100000000E-03 0. -1.
        -11    1    3    3    0    0 -0.61427979165E+01 -0.62890883592E+01 -0.35526292926E+00  0.87984550145E+01  0.51100000000E-03 0.  1.
        -12    1    3    3    0    0 -0.64578410532E+01  0.60167185527E+01  0.17262277797E+01  0.89935796855E+01  0.00000000000E+00 0.  1.
</event>
<event>
 7    1  0.5753610E-013  0.5052887E+02  0.7816164E-02  0.1300439E+00
        -11   -1    0    0    0    0  0.00000000000E+00  0.00000000000E+00  0.45593999997E+02  0.45594000000E+02  0.51100000000E-03 0.  1.
         11   -1    0    0    0    0 -0.00000000000E+00 -0.00000000000E+00 -0.45593999997E+02  0.45594000000E+02  0.51100000000E-03 0. -1.
    9900012    2    1    2    0    0 -0.23246383665E+02  0.33080064296E+02 -0.42988137575E+01  0.50528870557E+02  0.30000032545E+02 0.  0.
        -12    1    1    2    0    0  0.23246383665E+02 -0.33080064296E+02  0.42988137575E+01  0.40659129443E+02  0.00000000000E+00 0.  1.
         11    1    3    3    0    0  0.37100264967E+01  0.11417854645E+02 -0.59834146097E+00  0.12020387434E+02  0.51100000000E-03 0. -1.
        -11    1    3    3    0    0 -0.10921671421E+01 -0.24108831331E+01 -0.16422943203E+01  0.31148543214E+01  0.51100000000E-03 0.  1.
         12    1    3    3    0    0 -0.25864243020E+02  0.24073092784E+02 -0.20581779761E+01  0.35393628802E+02  0.00000000000E+00 0. -1.
</event>
<event>
 7    1  0.6305359E-013  0.5052890E+02  0.7816164E-02  0.1300439E+00
        -11   -1    0    0    0    0  0.00000000000E+00  0.00000000000E+00  0.45593999997E+02  0.45594000000E+02  0.51100000000E-03 0. -1.
         11   -1    0    0    0    0 -0.00000000000E+00 -0.00000000000E+00 -0.45593999997E+02  0.45594000000E+02  0.51100000000E-03 0.  1.
    9900012    2    1    2    0    0  0.71745305954E+01 -0.34253411693E+02  0.20697641797E+02  0.50528899201E+02  0.30000119610E+02 0.  0.
        -12    1    1    2    0    0 -0.71745305954E+01  0.34253411693E+02 -0.20697641797E+02  0.40659100799E+02  0.00000000000E+00 0.  1.
         11    1    3    3    0    0 -0.32547503440E+01 -0.17458833452E+02  0.50247440292E+01  0.18456768898E+02  0.51100000000E-03 0. -1.
        -11    1    3    3    0    0 -0.43820872384E+01 -0.58923222095E+01  0.10776119284E+02  0.13040203092E+02  0.51100000000E-03 0.  1.
        -12    1    3    3    0    0  0.14811368178E+02 -0.10902256031E+02  0.48967784834E+01  0.19031927211E+02  0.00000000000E+00 0.  1.
</event>
<event>
 7    1  0.5753610E-013  0.5052886E+02  0.7816164E-02  0.1300439E+00
        -11   -1    0    0    0    0  0.00000000000E+00  0.00000000000E+00  0.45593999997E+02  0.45594000000E+02  0.51100000000E-03 0.  1.
         11   -1    0    0    0    0 -0.00000000000E+00 -0.00000000000E+00 -0.45593999997E+02  0.45594000000E+02  0.51100000000E-03 0. -1.
    9900012    2    1    2    0    0 -0.15760381799E+02  0.31719365458E+02 -0.19966417957E+02  0.50528860492E+02  0.30000001951E+02 0.  0.
        -12    1    1    2    0    0  0.15760381799E+02 -0.31719365458E+02  0.19966417957E+02  0.40659139508E+02  0.00000000000E+00 0.  1.
         11    1    3    3    0    0  0.47167253332E+01  0.19132260973E+01 -0.31779818910E+01  0.60006250615E+01  0.51100000000E-03 0. -1.
        -11    1    3    3    0    0 -0.49285424599E+01  0.86096475630E+01  0.43143497155E+01  0.10818048607E+02  0.51100000000E-03 0.  1.
         12    1    3    3    0    0 -0.15548564673E+02  0.21196491798E+02 -0.21102785781E+02  0.33710186823E+02  0.00000000000E+00 0. -1.
</event>
<event>
 7    1  0.5753610E-013  0.5052886E+02  0.7816164E-02  0.1300439E+00
        -11   -1    0    0    0    0  0.00000000000E+00  0.00000000000E+00  0.45593999997E+02  0.45594000000E+02  0.51100000000E-03 0.  1.
         11   -1    0    0    0    0 -0.00000000000E+00 -0.00000000000E+00 -0.45593999997E+02  0.45594000000E+02  0.51100000000E-03 0. -1.
    9900012    2    1    2    0    0 -0.47612495845E+01  0.22222826706E+02 -0.33714123980E+02  0.50528859820E+02  0.29999999909E+02 0.  0.
        -12    1    1    2    0    0  0.47612495845E+01 -0.22222826706E+02  0.33714123980E+02  0.40659140180E+02  0.00000000000E+00 0.  1.
         11    1    3    3    0    0 -0.13649847018E+01 -0.45077487888E+01 -0.13839159214E+02  0.14618663085E+02  0.51100000000E-03 0. -1.
        -11    1    3    3    0    0 -0.68041004253E+01  0.14734683747E+02 -0.16147968798E+02  0.22894619112E+02  0.51100000000E-03 0.  1.
         12    1    3    3    0    0  0.34078355426E+01  0.11995891748E+02 -0.37269959678E+01  0.13015577623E+02  0.00000000000E+00 0. -1.
</event>
<event>
 7    1  0.5753610E-013  0.5052886E+02  0.7816164E-02  0.1300439E+00
        -11   -1    0    0    0    0  0.00000000000E+00  0.00000000000E+00  0.45593999997E+02  0.45594000000E+02  0.51100000000E-03 0. -1.
         11   -1    0    0    0    0 -0.00000000000E+00 -0.00000000000E+00 -0.45593999997E+02  0.45594000000E+02  0.51100000000E-03 0.  1.
    9900012    2    1    2    0    0  0.74109398238E+01  0.36203081136E+02  0.16958206726E+02  0.50528857262E+02  0.29999992135E+02 0.  0.
        -12    1    1    2    0    0 -0.74109398238E+01 -0.36203081136E+02 -0.16958206726E+02  0.40659142738E+02  0.00000000000E+00 0.  1.
         11    1    3    3    0    0  0.18104049146E+02  0.16702007742E+02  0.88031553984E+01  0.26157392900E+02  0.51100000000E-03 0. -1.
        -11    1    3    3    0    0 -0.59387605704E+01  0.12902016262E+02  0.78594586851E+01  0.16232744433E+02  0.51100000000E-03 0.  1.
        -12    1    3    3    0    0 -0.47543487520E+01  0.65990571311E+01  0.29559264248E+00  0.81387199292E+01  0.00000000000E+00 0.  1.
</event>
<event>
 7    1  0.5753610E-013  0.5052882E+02  0.7816164E-02  0.1300439E+00
        -11   -1    0    0    0    0  0.00000000000E+00  0.00000000000E+00  0.45593999997E+02  0.45594000000E+02  0.51100000000E-03 0.  1.
         11   -1    0    0    0    0 -0.00000000000E+00 -0.00000000000E+00 -0.45593999997E+02  0.45594000000E+02  0.51100000000E-03 0. -1.
    9900012    2    1    2    0    0  0.26453420832E+02 -0.27521734385E+02 -0.13997833112E+02  0.50528823064E+02  0.29999888185E+02 0.  0.
        -12    1    1    2    0    0 -0.26453420832E+02  0.27521734385E+02  0.13997833112E+02  0.40659176936E+02  0.00000000000E+00 0.  1.
         11    1    3    3    0    0  0.19297108889E+02 -0.14400083532E+02 -0.14989567482E+02  0.28362439084E+02  0.51100000000E-03 0. -1.
        -11    1    3    3    0    0  0.87347044944E+01  0.19010945421E+00  0.23168369909E+00  0.87398444956E+01  0.51100000000E-03 0.  1.
        -12    1    3    3    0    0 -0.15783925514E+01 -0.13311760307E+02  0.76005067114E+00  0.13426539485E+02  0.00000000000E+00 0.  1.
</event>
<event>
 7    1  0.5753610E-013  0.5052886E+02  0.7816164E-02  0.1300439E+00
        -11   -1    0    0    0    0  0.00000000000E+00  0.00000000000E+00  0.45593999997E+02  0.45594000000E+02  0.51100000000E-03 0.  1.
         11   -1    0    0    0    0 -0.00000000000E+00 -0.00000000000E+00 -0.45593999997E+02  0.45594000000E+02  0.51100000000E-03 0. -1.
    9900012    2    1    2    0    0  0.91085710083E-01  0.34422418799E+02 -0.21639187463E+02  0.50528860232E+02  0.30000001162E+02 0.  0.
        -12    1    1    2    0    0 -0.91085710083E-01 -0.34422418799E+02  0.21639187463E+02  0.40659139768E+02  0.00000000000E+00 0.  1.
         11    1    3    3    0    0  0.40092988605E+01  0.31921899045E+02 -0.18849013172E+02  0.37287630842E+02  0.51100000000E-03 0. -1.
        -11    1    3    3    0    0  0.39373849417E+01  0.21823723777E+01 -0.29418063047E+01  0.53777294437E+01  0.51100000000E-03 0.  1.
         12    1    3    3    0    0 -0.78555980921E+01  0.31814737614E+00  0.15163201369E+00  0.78634999463E+01  0.00000000000E+00 0. -1.
</event>
<event>
 7    1  0.5753610E-013  0.5052886E+02  0.7816164E-02  0.1300439E+00
        -11   -1    0    0    0    0  0.00000000000E+00  0.00000000000E+00  0.45593999997E+02  0.45594000000E+02  0.51100000000E-03 0. -1.
         11   -1    0    0    0    0 -0.00000000000E+00 -0.00000000000E+00 -0.45593999997E+02  0.45594000000E+02  0.51100000000E-03 0.  1.
    9900012    2    1    2    0    0 -0.18840255339E+02 -0.13350745759E+02  0.33465926278E+02  0.50528857668E+02  0.29999993366E+02 0.  0.
        -12    1    1    2    0    0  0.18840255339E+02  0.13350745759E+02 -0.33465926278E+02  0.40659142332E+02  0.00000000000E+00 0.  1.
         11    1    3    3    0    0  0.25722323359E+01 -0.63266065192E+01  0.15508165376E+02  0.16945368772E+02  0.51100000000E-03 0. -1.
        -11    1    3    3    0    0 -0.17175047063E+01 -0.74867583428E+01  0.13124672291E+01  0.77925569223E+01  0.51100000000E-03 0.  1.
        -12    1    3    3    0    0 -0.19694982969E+02  0.46261910348E+00  0.16645293673E+02  0.25790931973E+02  0.00000000000E+00 0.  1.
</event>
<event>
 7    1  0.5753610E-013  0.5052883E+02  0.7816164E-02  0.1300439E+00
        -11   -1    0    0    0    0  0.00000000000E+00  0.00000000000E+00  0.45593999997E+02  0.45594000000E+02  0.51100000000E-03 0. -1.
         11   -1    0    0    0    0 -0.00000000000E+00 -0.00000000000E+00 -0.45593999997E+02  0.45594000000E+02  0.51100000000E-03 0.  1.
    9900012    2    1    2    0    0 -0.23371162297E+02  0.17950413936E+02  0.28013208410E+02  0.50528825968E+02  0.29999897011E+02 0.  0.
        -12    1    1    2    0    0  0.23371162297E+02 -0.17950413936E+02 -0.28013208410E+02  0.40659174032E+02  0.00000000000E+00 0.  1.
         11    1    3    3    0    0 -0.57968023571E+01 -0.40808316606E+01  0.77954914897E+01  0.10536877737E+02  0.51100000000E-03 0.  1.
        -11    1    3    3    0    0  0.28881126973E+01  0.17148956456E+01 -0.17074269948E+01  0.37679396533E+01  0.51100000000E-03 0. -1.
         12    1    3    3    0    0 -0.20462472637E+02  0.20316349951E+02  0.21925143915E+02  0.36224008578E+02  0.00000000000E+00 0. -1.
</event>
<event>
 7    1  0.5753610E-013  0.5052886E+02  0.7816164E-02  0.1300439E+00
        -11   -1    0    0    0    0  0.00000000000E+00  0.00000000000E+00  0.45593999997E+02  0.45594000000E+02  0.51100000000E-03 0.  1.
         11   -1    0    0    0    0 -0.00000000000E+00 -0.00000000000E+00 -0.45593999997E+02  0.45594000000E+02  0.51100000000E-03 0. -1.
    9900012    2    1    2    0    0 -0.91337296000E+01  0.29120238449E+01 -0.39512796766E+02  0.50528855794E+02  0.29999987673E+02 0.  0.
        -12    1    1    2    0    0  0.91337296000E+01 -0.29120238449E+01  0.39512796766E+02  0.40659144206E+02  0.00000000000E+00 0.  1.
         11    1    3    3    0    0 -0.24779656542E+01  0.70038732879E+01 -0.79764980255E+01  0.10900416314E+02  0.51100000000E-03 0. -1.
        -11    1    3    3    0    0 -0.92653794471E+01 -0.10243417125E+02 -0.99266061692E+01  0.17009184607E+02  0.51100000000E-03 0.  1.
         12    1    3    3    0    0  0.26096155013E+01  0.61515676817E+01 -0.21609692571E+02  0.22619254873E+02  0.00000000000E+00 0. -1.
</event>
<event>
 7    1  0.5753610E-013  0.5052886E+02  0.7816164E-02  0.1300439E+00
        -11   -1    0    0    0    0  0.00000000000E+00  0.00000000000E+00  0.45593999997E+02  0.45594000000E+02  0.51100000000E-03 0.  1.
         11   -1    0    0    0    0 -0.00000000000E+00 -0.00000000000E+00 -0.45593999997E+02  0.45594000000E+02  0.51100000000E-03 0. -1.
    9900012    2    1    2    0    0  0.32100800772E+02  0.19993546980E+01 -0.24873823439E+02  0.50528856847E+02  0.29999990873E+02 0.  0.
        -12    1    1    2    0    0 -0.32100800772E+02 -0.19993546980E+01  0.24873823439E+02  0.40659143153E+02  0.00000000000E+00 0.  1.
         11    1    3    3    0    0  0.13762140478E+02  0.82489505782E+01 -0.14110308600E+02  0.21366855295E+02  0.51100000000E-03 0. -1.
        -11    1    3    3    0    0 -0.39087555806E+01  0.24872882686E+00 -0.12909904999E+01  0.41239414339E+01  0.51100000000E-03 0.  1.
         12    1    3    3    0    0  0.22247415875E+02 -0.64983247071E+01 -0.94725243397E+01  0.25038060118E+02  0.00000000000E+00 0. -1.
</event>
<event>
 7    1  0.5753610E-013  0.5052885E+02  0.7816164E-02  0.1300439E+00
        -11   -1    0    0    0    0  0.00000000000E+00  0.00000000000E+00  0.45593999997E+02  0.45594000000E+02  0.51100000000E-03 0.  1.
         11   -1    0    0    0    0 -0.00000000000E+00 -0.00000000000E+00 -0.45593999997E+02  0.45594000000E+02  0.51100000000E-03 0. -1.
    9900012    2    1    2    0    0  0.28252893051E+02  0.15861805182E+02 -0.24563050529E+02  0.50528852436E+02  0.29999977464E+02 0.  0.
        -12    1    1    2    0    0 -0.28252893051E+02 -0.15861805182E+02  0.24563050529E+02  0.40659147564E+02  0.00000000000E+00 0.  1.
         11    1    3    3    0    0  0.13001065669E+02  0.77198367030E+01 -0.11841998732E+02  0.19205637753E+02  0.51100000000E-03 0. -1.
        -11    1    3    3    0    0  0.14811163771E+01  0.67590157469E+01 -0.15708092792E+02  0.17164561719E+02  0.51100000000E-03 0.  1.
        -12    1    3    3    0    0  0.13770711005E+02  0.13829527320E+01  0.29870409962E+01  0.14158652964E+02  0.00000000000E+00 0.  1.
</event>
<event>
 7    1  0.5753610E-013  0.5052886E+02  0.7816164E-02  0.1300439E+00
        -11   -1    0    0    0    0  0.00000000000E+00  0.00000000000E+00  0.45593999997E+02  0.45594000000E+02  0.51100000000E-03 0.  1.
         11   -1    0    0    0    0 -0.00000000000E+00 -0.00000000000E+00 -0.45593999997E+02  0.45594000000E+02  0.51100000000E-03 0. -1.
    9900012    2    1    2    0    0  0.31891326134E+02  0.25134486455E+02  0.20897163635E+01  0.50528855808E+02  0.29999987715E+02 0.  0.
        -12    1    1    2    0    0 -0.31891326134E+02 -0.25134486455E+02 -0.20897163635E+01  0.40659144192E+02  0.00000000000E+00 0.  1.
         11    1    3    3    0    0  0.15895777790E+02  0.87515113848E+01 -0.27817694943E+01  0.18357639958E+02  0.51100000000E-03 0. -1.
        -11    1    3    3    0    0  0.52325838722E+01 -0.16863380696E+01 -0.62959095549E+01  0.83583579397E+01  0.51100000000E-03 0.  1.
         12    1    3    3    0    0  0.10762964472E+02  0.18069313139E+02  0.11167395413E+02  0.23812857910E+02  0.00000000000E+00 0. -1.
</event>
<event>
 7    1  0.5753610E-013  0.5052886E+02  0.7816164E-02  0.1300439E+00
        -11   -1    0    0    0    0  0.00000000000E+00  0.00000000000E+00  0.45593999997E+02  0.45594000000E+02  0.51100000000E-03 0. -1.
         11   -1    0    0    0    0 -0.00000000000E+00 -0.00000000000E+00 -0.45593999997E+02  0.45594000000E+02  0.51100000000E-03 0.  1.
    9900012    2    1    2    0    0  0.10611890525E+02 -0.33572945169E+02  0.20332512424E+02  0.50528856756E+02  0.29999990596E+02 0.  0.
        -12    1    1    2    0    0 -0.10611890525E+02  0.33572945169E+02 -0.20332512424E+02  0.40659143244E+02  0.00000000000E+00 0.  1.
         11    1    3    3    0    0 -0.14444969327E+01 -0.75034812794E+01  0.50210989201E+01  0.91433165386E+01  0.51100000000E-03 0. -1.
        -11    1    3    3    0    0 -0.68547352580E+01 -0.14306275764E+02  0.89931976865E+01  0.18235529238E+02  0.51100000000E-03 0.  1.
        -12    1    3    3    0    0  0.18911122715E+02 -0.11763188126E+02  0.63182158177E+01  0.23150010980E+02  0.00000000000E+00 0.  1.
</event>
<event>
 7    1  0.5753610E-013  0.5052885E+02  0.7816164E-02  0.1300439E+00
        -11   -1    0    0    0    0  0.00000000000E+00  0.00000000000E+00  0.45593999997E+02  0.45594000000E+02  0.51100000000E-03 0. -1.
         11   -1    0    0    0    0 -0.00000000000E+00 -0.00000000000E+00 -0.45593999997E+02  0.45594000000E+02  0.51100000000E-03 0.  1.
    9900012    2    1    2    0    0 -0.21921510034E+02  0.29662454462E+01  0.34114736824E+02  0.50528849950E+02  0.29999969907E+02 0.  0.
        -12    1    1    2    0    0  0.21921510034E+02 -0.29662454462E+01 -0.34114736824E+02  0.40659150050E+02  0.00000000000E+00 0.  1.
         11    1    3    3    0    0 -0.22672200621E+02 -0.45915516942E+01  0.17137553802E+02  0.28789004473E+02  0.51100000000E-03 0. -1.
        -11    1    3    3    0    0  0.36159782747E+01 -0.15942459214E+01  0.42408727255E+01  0.57967163701E+01  0.51100000000E-03 0.  1.
        -12    1    3    3    0    0 -0.28652876881E+01  0.91520430619E+01  0.12736310297E+02  0.15943129107E+02  0.00000000000E+00 0.  1.
</event>
<event>
 7    1  0.5753610E-013  0.5052886E+02  0.7816164E-02  0.1300439E+00
        -11   -1    0    0    0    0  0.00000000000E+00  0.00000000000E+00  0.45593999997E+02  0.45594000000E+02  0.51100000000E-03 0. -1.
         11   -1    0    0    0    0 -0.00000000000E+00 -0.00000000000E+00 -0.45593999997E+02  0.45594000000E+02  0.51100000000E-03 0.  1.
    9900012    2    1    2    0    0 -0.13595779902E+02  0.11226401022E+01  0.38302220374E+02  0.50528860345E+02  0.30000001505E+02 0.  0.
        -12    1    1    2    0    0  0.13595779902E+02 -0.11226401022E+01 -0.38302220374E+02  0.40659139655E+02  0.00000000000E+00 0.  1.
         11    1    3    3    0    0 -0.87773382356E+00 -0.31760790474E+00 -0.16110737926E+01  0.18619480317E+01  0.51100000000E-03 0. -1.
        -11    1    3    3    0    0  0.34319549591E+00 -0.44664645132E+01 -0.15934191877E+01  0.47545844577E+01  0.51100000000E-03 0.  1.
         12    1    3    3    0    0 -0.13061241574E+02  0.59067125201E+01  0.41506713354E+02  0.43912327856E+02  0.00000000000E+00 0. -1.
</event>
<event>
 7    1  0.5753610E-013  0.5052889E+02  0.7816164E-02  0.1300439E+00
        -11   -1    0    0    0    0  0.00000000000E+00  0.00000000000E+00  0.45593999997E+02  0.45594000000E+02  0.51100000000E-03 0.  1.
         11   -1    0    0    0    0 -0.00000000000E+00 -0.00000000000E+00 -0.45593999997E+02  0.45594000000E+02  0.51100000000E-03 0. -1.
    9900012    2    1    2    0    0  0.34281770023E+02  0.11791687074E+02  0.18408691877E+02  0.50528885688E+02  0.30000078538E+02 0.  0.
        -12    1    1    2    0    0 -0.34281770023E+02 -0.11791687074E+02 -0.18408691877E+02  0.40659114312E+02  0.00000000000E+00 0.  1.
         11    1    3    3    0    0  0.34531107289E+01  0.10611415032E+01  0.13453464407E+02  0.13930028708E+02  0.51100000000E-03 0. -1.
        -11    1    3    3    0    0  0.40192271526E+01  0.66707166889E+01  0.54054055669E+01  0.94800346862E+01  0.51100000000E-03 0.  1.
         12    1    3    3    0    0  0.26809432142E+02  0.40598288822E+01 -0.45017809665E+00  0.27118822294E+02  0.00000000000E+00 0. -1.
</event>
<event>
 7    1  0.5753610E-013  0.5052886E+02  0.7816164E-02  0.1300439E+00
        -11   -1    0    0    0    0  0.00000000000E+00  0.00000000000E+00  0.45593999997E+02  0.45594000000E+02  0.51100000000E-03 0.  1.
         11   -1    0    0    0    0 -0.00000000000E+00 -0.00000000000E+00 -0.45593999997E+02  0.45594000000E+02  0.51100000000E-03 0. -1.
    9900012    2    1    2    0    0  0.72741435345E+01  0.73544787686E+01 -0.39321293960E+02  0.50528859813E+02  0.29999999887E+02 0.  0.
        -12    1    1    2    0    0 -0.72741435345E+01 -0.73544787686E+01  0.39321293960E+02  0.40659140187E+02  0.00000000000E+00 0.  1.
         11    1    3    3    0    0 -0.17235245344E+01 -0.37804367319E+01  0.62846607320E+00  0.42020481400E+01  0.51100000000E-03 0. -1.
        -11    1    3    3    0    0  0.79871588622E+01  0.12816136415E+02 -0.14948305225E+02  0.21248526741E+02  0.51100000000E-03 0.  1.
         12    1    3    3    0    0  0.10105092067E+01 -0.16812209145E+01 -0.25001454807E+02  0.25078284932E+02  0.00000000000E+00 0. -1.
</event>
<event>
 7    1  0.5753610E-013  0.5052891E+02  0.7816164E-02  0.1300439E+00
        -11   -1    0    0    0    0  0.00000000000E+00  0.00000000000E+00  0.45593999997E+02  0.45594000000E+02  0.51100000000E-03 0.  1.
         11   -1    0    0    0    0 -0.00000000000E+00 -0.00000000000E+00 -0.45593999997E+02  0.45594000000E+02  0.51100000000E-03 0. -1.
    9900012    2    1    2    0    0  0.36347258784E+01  0.56106413951E+01 -0.40105751513E+02  0.50528907124E+02  0.30000143695E+02 0.  0.
        -12    1    1    2    0    0 -0.36347258784E+01 -0.56106413951E+01  0.40105751513E+02  0.40659092876E+02  0.00000000000E+00 0.  1.
         11    1    3    3    0    0 -0.35823855469E+01 -0.27425953323E+01 -0.75242507771E+01  0.87732357417E+01  0.51100000000E-03 0. -1.
        -11    1    3    3    0    0  0.51524204420E+01  0.46069293754E+01 -0.35762933011E+02  0.36424697836E+02  0.51100000000E-03 0.  1.
        -12    1    3    3    0    0  0.20646909832E+01  0.37463073519E+01  0.31814322749E+01  0.53309735463E+01  0.00000000000E+00 0.  1.
</event>
<event>
 7    1  0.5753610E-013  0.5052886E+02  0.7816164E-02  0.1300439E+00
        -11   -1    0    0    0    0  0.00000000000E+00  0.00000000000E+00  0.45593999997E+02  0.45594000000E+02  0.51100000000E-03 0. -1.
         11   -1    0    0    0    0 -0.00000000000E+00 -0.00000000000E+00 -0.45593999997E+02  0.45594000000E+02  0.51100000000E-03 0.  1.
    9900012    2    1    2    0    0 -0.24018475116E+00 -0.78219805041E+01  0.39898930125E+02  0.50528859664E+02  0.29999999434E+02 0.  0.
        -12    1    1    2    0    0  0.24018475116E+00  0.78219805041E+01 -0.39898930125E+02  0.40659140336E+02  0.00000000000E+00 0.  1.
         11    1    3    3    0    0 -0.29098816831E+01 -0.29598436989E+01  0.19502731060E+01  0.45860278653E+01  0.51100000000E-03 0.  1.
        -11    1    3    3    0    0  0.12809869977E+02 -0.67677444243E+01  0.28413208293E+02  0.31893659859E+02  0.51100000000E-03 0. -1.
         12    1    3    3    0    0 -0.10140173045E+02  0.19056076191E+01  0.95354487260E+01  0.14049171939E+02  0.00000000000E+00 0. -1.
</event>
<event>
 7    1  0.5753610E-013  0.5052886E+02  0.7816164E-02  0.1300439E+00
        -11   -1    0    0    0    0  0.00000000000E+00  0.00000000000E+00  0.45593999997E+02  0.45594000000E+02  0.51100000000E-03 0.  1.
         11   -1    0    0    0    0 -0.00000000000E+00 -0.00000000000E+00 -0.45593999997E+02  0.45594000000E+02  0.51100000000E-03 0. -1.
    9900012    2    1    2    0    0  0.15364578876E+02  0.76863808122E+01 -0.36851258122E+02  0.50528856389E+02  0.29999989479E+02 0.  0.
        -12    1    1    2    0    0 -0.15364578876E+02 -0.76863808122E+01  0.36851258122E+02  0.40659143611E+02  0.00000000000E+00 0.  1.
         11    1    3    3    0    0  0.12226966474E+01 -0.49255741392E+01 -0.79697453948E+01  0.94484448250E+01  0.51100000000E-03 0. -1.
        -11    1    3    3    0    0 -0.46461619219E+01  0.88314725020E+01 -0.85590509635E+01  0.13146827785E+02  0.51100000000E-03 0.  1.
         12    1    3    3    0    0  0.18788044151E+02  0.37804824495E+01 -0.20322461764E+02  0.27933583778E+02  0.00000000000E+00 0. -1.
</event>
<event>
 7    1  0.5753610E-013  0.5052891E+02  0.7816164E-02  0.1300439E+00
        -11   -1    0    0    0    0  0.00000000000E+00  0.00000000000E+00  0.45593999997E+02  0.45594000000E+02  0.51100000000E-03 0. -1.
         11   -1    0    0    0    0 -0.00000000000E+00 -0.00000000000E+00 -0.45593999997E+02  0.45594000000E+02  0.51100000000E-03 0.  1.
    9900012    2    1    2    0    0 -0.27435578902E+02  0.29965439070E+02  0.15884220744E+01  0.50528909835E+02  0.30000151934E+02 0.  0.
        -12    1    1    2    0    0  0.27435578902E+02 -0.29965439070E+02 -0.15884220744E+01  0.40659090165E+02  0.00000000000E+00 0.  1.
         11    1    3    3    0    0 -0.98711433994E+01  0.65910858648E+01 -0.76848577296E+01  0.14139976078E+02  0.51100000000E-03 0. -1.
        -11    1    3    3    0    0 -0.30452933752E+01  0.19957710019E+02  0.65651877128E+01  0.21229359174E+02  0.51100000000E-03 0.  1.
         12    1    3    3    0    0 -0.14519142128E+02  0.34166431862E+01  0.27080920912E+01  0.15159574584E+02  0.00000000000E+00 0. -1.
</event>
<event>
 7    1  0.5753610E-013  0.5052886E+02  0.7816164E-02  0.1300439E+00
        -11   -1    0    0    0    0  0.00000000000E+00  0.00000000000E+00  0.45593999997E+02  0.45594000000E+02  0.51100000000E-03 0.  1.
         11   -1    0    0    0    0 -0.00000000000E+00 -0.00000000000E+00 -0.45593999997E+02  0.45594000000E+02  0.51100000000E-03 0. -1.
    9900012    2    1    2    0    0  0.27361297752E+02  0.25726088028E+02 -0.15578623711E+02  0.50528859126E+02  0.29999997800E+02 0.  0.
        -12    1    1    2    0    0 -0.27361297752E+02 -0.25726088028E+02  0.15578623711E+02  0.40659140874E+02  0.00000000000E+00 0.  1.
         11    1    3    3    0    0  0.54357447867E+00  0.67377177922E+01 -0.10315817485E+01  0.68378706792E+01  0.51100000000E-03 0. -1.
        -11    1    3    3    0    0  0.16614859896E+02  0.24429409589E+02 -0.11747331148E+02  0.31793858080E+02  0.51100000000E-03 0.  1.
         12    1    3    3    0    0  0.10202863377E+02 -0.54410393534E+01 -0.27997108144E+01  0.11897130367E+02  0.00000000000E+00 0. -1.
</event>
<event>
 7    1  0.5753610E-013  0.5052886E+02  0.7816164E-02  0.1300439E+00
        -11   -1    0    0    0    0  0.00000000000E+00  0.00000000000E+00  0.45593999997E+02  0.45594000000E+02  0.51100000000E-03 0.  1.
         11   -1    0    0    0    0 -0.00000000000E+00 -0.00000000000E+00 -0.45593999997E+02  0.45594000000E+02  0.51100000000E-03 0. -1.
    9900012    2    1    2    0    0 -0.53060660760E+01 -0.66721122324E+01 -0.39755432053E+02  0.50528858389E+02  0.29999995559E+02 0.  0.
        -12    1    1    2    0    0  0.53060660760E+01  0.66721122324E+01  0.39755432053E+02  0.40659141611E+02  0.00000000000E+00 0.  1.
         11    1    3    3    0    0  0.45223514188E+01 -0.27013428714E+01 -0.23928116037E+02  0.24501094935E+02  0.51100000000E-03 0. -1.
        -11    1    3    3    0    0  0.48939107041E+01 -0.13480179131E+01 -0.70521677225E+01  0.86891072108E+01  0.51100000000E-03 0.  1.
         12    1    3    3    0    0 -0.14722328199E+02 -0.26227514480E+01 -0.87751482932E+01  0.17338656243E+02  0.00000000000E+00 0. -1.
</event>
<event>
 7    1  0.5753610E-013  0.5052887E+02  0.7816164E-02  0.1300439E+00
        -11   -1    0    0    0    0  0.00000000000E+00  0.00000000000E+00  0.45593999997E+02  0.45594000000E+02  0.51100000000E-03 0.  1.
         11   -1    0    0    0    0 -0.00000000000E+00 -0.00000000000E+00 -0.45593999997E+02  0.45594000000E+02  0.51100000000E-03 0. -1.
    9900012    2    1    2    0    0 -0.28017880795E+02  0.50151325071E+01 -0.29034666011E+02  0.50528867831E+02  0.30000024260E+02 0.  0.
        -12    1    1    2    0    0  0.28017880795E+02 -0.50151325071E+01  0.29034666011E+02  0.40659132169E+02  0.00000000000E+00 0.  1.
         11    1    3    3    0    0 -0.16943844761E+02  0.45932719409E+01 -0.25256002768E+01  0.17736140488E+02  0.51100000000E-03 0. -1.
        -11    1    3    3    0    0 -0.14283114184E+02 -0.12088565200E+01 -0.15060159671E+02  0.20791274479E+02  0.51100000000E-03 0.  1.
        -12    1    3    3    0    0  0.32090781503E+01  0.16307170862E+01 -0.11448906064E+02  0.12001452864E+02  0.00000000000E+00 0.  1.
</event>
<event>
 7    1  0.5753610E-013  0.5052886E+02  0.7816164E-02  0.1300439E+00
        -11   -1    0    0    0    0  0.00000000000E+00  0.00000000000E+00  0.45593999997E+02  0.45594000000E+02  0.51100000000E-03 0.  1.
         11   -1    0    0    0    0 -0.00000000000E+00 -0.00000000000E+00 -0.45593999997E+02  0.45594000000E+02  0.51100000000E-03 0. -1.
    9900012    2    1    2    0    0  0.39692207758E+00  0.49312306098E-01 -0.40657171781E+02  0.50528860854E+02  0.30000003051E+02 0.  0.
        -12    1    1    2    0    0 -0.39692207758E+00 -0.49312306098E-01  0.40657171781E+02  0.40659139146E+02  0.00000000000E+00 0.  1.
         11    1    3    3    0    0  0.27649314017E+01 -0.22923082224E+01 -0.19378590679E+02  0.19708609784E+02  0.51100000000E-03 0. -1.
        -11    1    3    3    0    0  0.20328577084E+01  0.11637839632E+02 -0.93251699645E+01  0.15050934087E+02  0.51100000000E-03 0.  1.
         12    1    3    3    0    0 -0.44008670326E+01 -0.92962191040E+01 -0.11953411137E+02  0.15769316982E+02  0.00000000000E+00 0. -1.
</event>
<event>
 7    1  0.5753610E-013  0.5052886E+02  0.7816164E-02  0.1300439E+00
        -11   -1    0    0    0    0  0.00000000000E+00  0.00000000000E+00  0.45593999997E+02  0.45594000000E+02  0.51100000000E-03 0. -1.
         11   -1    0    0    0    0 -0.00000000000E+00 -0.00000000000E+00 -0.45593999997E+02  0.45594000000E+02  0.51100000000E-03 0.  1.
    9900012    2    1    2    0    0 -0.36828216812E+02 -0.11730244479E+02  0.12619414388E+02  0.50528858241E+02  0.29999995108E+02 0.  0.
        -12    1    1    2    0    0  0.36828216812E+02  0.11730244479E+02 -0.12619414388E+02  0.40659141759E+02  0.00000000000E+00 0.  1.
         11    1    3    3    0    0 -0.28035035815E+02 -0.83800411094E+01 -0.10464773259E+01  0.29279402951E+02  0.51100000000E-03 0. -1.
        -11    1    3    3    0    0  0.16723354688E+01 -0.42423650623E+01  0.78200009986E+00  0.46266501553E+01  0.51100000000E-03 0.  1.
        -12    1    3    3    0    0 -0.10465516466E+02  0.89216169262E+00  0.12883891614E+02  0.16622805134E+02  0.00000000000E+00 0.  1.
</event>
<event>
 7    1  0.5753610E-013  0.5052885E+02  0.7816164E-02  0.1300439E+00
        -11   -1    0    0    0    0  0.00000000000E+00  0.00000000000E+00  0.45593999997E+02  0.45594000000E+02  0.51100000000E-03 0.  1.
         11   -1    0    0    0    0 -0.00000000000E+00 -0.00000000000E+00 -0.45593999997E+02  0.45594000000E+02  0.51100000000E-03 0. -1.
    9900012    2    1    2    0    0  0.33060011645E+02  0.30430725888E+01 -0.23472141556E+02  0.50528854781E+02  0.29999984592E+02 0.  0.
        -12    1    1    2    0    0 -0.33060011645E+02 -0.30430725888E+01  0.23472141556E+02  0.40659145219E+02  0.00000000000E+00 0.  1.
         11    1    3    3    0    0  0.88958592327E+01  0.52820858291E+01 -0.16644504991E+02  0.19597864395E+02  0.51100000000E-03 0. -1.
        -11    1    3    3    0    0  0.29808260001E+01  0.35329063562E+01 -0.76745078153E+01  0.89590636471E+01  0.51100000000E-03 0.  1.
        -12    1    3    3    0    0  0.21183326412E+02 -0.57719195964E+01  0.84687124998E+00  0.21971926739E+02  0.00000000000E+00 0.  1.
</event>
<event>
 7    1  0.5753610E-013  0.5052887E+02  0.7816164E-02  0.1300439E+00
        -11   -1    0    0    0    0  0.00000000000E+00  0.00000000000E+00  0.45593999997E+02  0.45594000000E+02  0.51100000000E-03 0.  1.
         11   -1    0    0    0    0 -0.00000000000E+00 -0.00000000000E+00 -0.45593999997E+02  0.45594000000E+02  0.51100000000E-03 0. -1.
    9900012    2    1    2    0    0  0.28177209932E+02 -0.21662497388E+02 -0.19747055839E+02  0.50528866131E+02  0.30000019093E+02 0.  0.
        -12    1    1    2    0    0 -0.28177209932E+02  0.21662497388E+02  0.19747055839E+02  0.40659133869E+02  0.00000000000E+00 0.  1.
         11    1    3    3    0    0  0.74092391168E+01 -0.35356955749E+00 -0.10790350336E+02  0.13094025216E+02  0.51100000000E-03 0. -1.
        -11    1    3    3    0    0  0.33210026911E+00  0.10611646647E+01  0.42422209845E+01  0.43855216539E+01  0.51100000000E-03 0.  1.
        -12    1    3    3    0    0  0.20435870546E+02 -0.22370092495E+02 -0.13198926488E+02  0.33049319261E+02  0.00000000000E+00 0.  1.
</event>
<event>
 7    1  0.5753610E-013  0.5052884E+02  0.7816164E-02  0.1300439E+00
        -11   -1    0    0    0    0  0.00000000000E+00  0.00000000000E+00  0.45593999997E+02  0.45594000000E+02  0.51100000000E-03 0.  1.
         11   -1    0    0    0    0 -0.00000000000E+00 -0.00000000000E+00 -0.45593999997E+02  0.45594000000E+02  0.51100000000E-03 0. -1.
    9900012    2    1    2    0    0  0.34533356671E+02  0.18633397973E+02  0.10649446019E+02  0.50528844285E+02  0.29999952688E+02 0.  0.
        -12    1    1    2    0    0 -0.34533356671E+02 -0.18633397973E+02 -0.10649446019E+02  0.40659155715E+02  0.00000000000E+00 0.  1.
         11    1    3    3    0    0 -0.40447061821E-01  0.24025084130E+00 -0.13104441134E+01  0.13328992711E+01  0.51100000000E-03 0. -1.
        -11    1    3    3    0    0 -0.20111718988E+00  0.96277560827E+01 -0.33585739244E+01  0.10198732979E+02  0.51100000000E-03 0.  1.
         12    1    3    3    0    0  0.34774920923E+02  0.87653910489E+01  0.15318464057E+02  0.38997212035E+02  0.00000000000E+00 0. -1.
</event>
<event>
 7    1  0.5753610E-013  0.5052886E+02  0.7816164E-02  0.1300439E+00
        -11   -1    0    0    0    0  0.00000000000E+00  0.00000000000E+00  0.45593999997E+02  0.45594000000E+02  0.51100000000E-03 0.  1.
         11   -1    0    0    0    0 -0.00000000000E+00 -0.00000000000E+00 -0.45593999997E+02  0.45594000000E+02  0.51100000000E-03 0. -1.
    9900012    2    1    2    0    0 -0.55444647515E+01 -0.34882743419E+02 -0.20139984867E+02  0.50528857507E+02  0.29999992877E+02 0.  0.
        -12    1    1    2    0    0  0.55444647515E+01  0.34882743419E+02  0.20139984867E+02  0.40659142493E+02  0.00000000000E+00 0.  1.
         11    1    3    3    0    0 -0.43140519499E+01 -0.21402806801E+02 -0.74778266946E+01  0.23078324799E+02  0.51100000000E-03 0. -1.
        -11    1    3    3    0    0  0.28927459383E+01 -0.11020949359E+02  0.23978680365E+01  0.11643842803E+02  0.51100000000E-03 0.  1.
         12    1    3    3    0    0 -0.41231587400E+01 -0.24589872595E+01 -0.15060026209E+02  0.15806689905E+02  0.00000000000E+00 0. -1.
</event>
<event>
 7    1  0.5753610E-013  0.5052886E+02  0.7816164E-02  0.1300439E+00
        -11   -1    0    0    0    0  0.00000000000E+00  0.00000000000E+00  0.45593999997E+02  0.45594000000E+02  0.51100000000E-03 0.  1.
         11   -1    0    0    0    0 -0.00000000000E+00 -0.00000000000E+00 -0.45593999997E+02  0.45594000000E+02  0.51100000000E-03 0. -1.
    9900012    2    1    2    0    0 -0.17417228556E+02  0.32260402558E+02  0.17580446220E+02  0.50528861875E+02  0.30000006155E+02 0.  0.
        -12    1    1    2    0    0  0.17417228556E+02 -0.32260402558E+02 -0.17580446220E+02  0.40659138125E+02  0.00000000000E+00 0.  1.
         11    1    3    3    0    0 -0.28255451393E+01  0.45550055744E+01 -0.20245168125E+01  0.57297861829E+01  0.51100000000E-03 0. -1.
        -11    1    3    3    0    0  0.62221594808E+01  0.10766075953E+02  0.11043404985E+02  0.16630708161E+02  0.51100000000E-03 0.  1.
         12    1    3    3    0    0 -0.20813842897E+02  0.16939321031E+02  0.85615580477E+01  0.28168367531E+02  0.00000000000E+00 0. -1.
</event>
<event>
 7    1  0.5753610E-013  0.5052886E+02  0.7816164E-02  0.1300439E+00
        -11   -1    0    0    0    0  0.00000000000E+00  0.00000000000E+00  0.45593999997E+02  0.45594000000E+02  0.51100000000E-03 0.  1.
         11   -1    0    0    0    0 -0.00000000000E+00 -0.00000000000E+00 -0.45593999997E+02  0.45594000000E+02  0.51100000000E-03 0. -1.
    9900012    2    1    2    0    0 -0.31121624265E+02  0.76770345684E+01 -0.25013456819E+02  0.50528863527E+02  0.30000011178E+02 0.  0.
        -12    1    1    2    0    0  0.31121624265E+02 -0.76770345684E+01  0.25013456819E+02  0.40659136473E+02  0.00000000000E+00 0.  1.
         11    1    3    3    0    0 -0.26007601284E+02 -0.32429081018E+01 -0.55045357874E+01  0.26780808278E+02  0.51100000000E-03 0. -1.
        -11    1    3    3    0    0 -0.58576054661E+01  0.92475633202E+01 -0.13041936393E+02  0.17027068870E+02  0.51100000000E-03 0.  1.
        -12    1    3    3    0    0  0.74358248508E+00  0.16723793500E+01 -0.64669846384E+01  0.67209863797E+01  0.00000000000E+00 0.  1.
</event>
<event>
 7    1  0.5753610E-013  0.5052886E+02  0.7816164E-02  0.1300439E+00
        -11   -1    0    0    0    0  0.00000000000E+00  0.00000000000E+00  0.45593999997E+02  0.45594000000E+02  0.51100000000E-03 0.  1.
         11   -1    0    0    0    0 -0.00000000000E+00 -0.00000000000E+00 -0.45593999997E+02  0.45594000000E+02  0.51100000000E-03 0. -1.
    9900012    2    1    2    0    0  0.22991838726E+02 -0.51866094614E+01 -0.33130647304E+02  0.50528863801E+02  0.30000012009E+02 0.  0.
        -12    1    1    2    0    0 -0.22991838726E+02  0.51866094614E+01  0.33130647304E+02  0.40659136199E+02  0.00000000000E+00 0.  1.
         11    1    3    3    0    0  0.28114722186E+01 -0.37808940514E+01 -0.17263148463E+01  0.50179377311E+01  0.51100000000E-03 0. -1.
        -11    1    3    3    0    0 -0.33794103585E+01  0.87849904119E-01  0.24950398870E+01  0.42015897319E+01  0.51100000000E-03 0.  1.
         12    1    3    3    0    0  0.23559776866E+02 -0.14935653141E+01 -0.33899372344E+02  0.41309336338E+02  0.00000000000E+00 0. -1.
</event>
<event>
 7    1  0.6726501E-013  0.5052891E+02  0.7816164E-02  0.1300439E+00
        -11   -1    0    0    0    0  0.00000000000E+00  0.00000000000E+00  0.45593999997E+02  0.45594000000E+02  0.51100000000E-03 0. -1.
         11   -1    0    0    0    0 -0.00000000000E+00 -0.00000000000E+00 -0.45593999997E+02  0.45594000000E+02  0.51100000000E-03 0.  1.
    9900012    2    1    2    0    0 -0.34173452950E+02  0.39111995735E+00  0.22026881035E+02  0.50528913076E+02  0.30000161786E+02 0.  0.
        -12    1    1    2    0    0  0.34173452950E+02 -0.39111995735E+00 -0.22026881035E+02  0.40659086924E+02  0.00000000000E+00 0.  1.
         11    1    3    3    0    0 -0.15591584416E+02  0.10901561345E+01  0.20061286753E+02  0.25431106375E+02  0.51100000000E-03 0. -1.
        -11    1    3    3    0    0 -0.34470697082E+00  0.44153273030E+01  0.41025042763E+01  0.60369263443E+01  0.51100000000E-03 0.  1.
        -12    1    3    3    0    0 -0.18237161563E+02 -0.51143634802E+01 -0.21369099936E+01  0.19060880357E+02  0.00000000000E+00 0.  1.
</event>
<event>
 7    1  0.5753610E-013  0.5052882E+02  0.7816164E-02  0.1300439E+00
        -11   -1    0    0    0    0  0.00000000000E+00  0.00000000000E+00  0.45593999997E+02  0.45594000000E+02  0.51100000000E-03 0.  1.
         11   -1    0    0    0    0 -0.00000000000E+00 -0.00000000000E+00 -0.45593999997E+02  0.45594000000E+02  0.51100000000E-03 0. -1.
    9900012    2    1    2    0    0  0.30164416060E+02  0.18708664784E+02 -0.19830856841E+02  0.50528818783E+02  0.29999875171E+02 0.  0.
        -12    1    1    2    0    0 -0.30164416060E+02 -0.18708664784E+02  0.19830856841E+02  0.40659181217E+02  0.00000000000E+00 0.  1.
         11    1    3    3    0    0  0.31985838703E+02  0.20397423820E+02 -0.12001491900E+02  0.39789252118E+02  0.51100000000E-03 0.  1.
        -11    1    3    3    0    0  0.35384976243E+00  0.19608328193E+01 -0.55949562348E+01  0.59391590760E+01  0.51100000000E-03 0. -1.
        -12    1    3    3    0    0 -0.21752724059E+01 -0.36495918550E+01 -0.22344087068E+01  0.48004075887E+01  0.00000000000E+00 0.  1.
</event>
<event>
 7    1  0.5753610E-013  0.5052886E+02  0.7816164E-02  0.1300439E+00
        -11   -1    0    0    0    0  0.00000000000E+00  0.00000000000E+00  0.45593999997E+02  0.45594000000E+02  0.51100000000E-03 0. -1.
         11   -1    0    0    0    0 -0.00000000000E+00 -0.00000000000E+00 -0.45593999997E+02  0.45594000000E+02  0.51100000000E-03 0.  1.
    9900012    2    1    2    0    0  0.31155399706E+02  0.20420219272E+02 -0.16294833956E+02  0.50528857121E+02  0.29999991705E+02 0.  0.
        -12    1    1    2    0    0 -0.31155399706E+02 -0.20420219272E+02  0.16294833956E+02  0.40659142879E+02  0.00000000000E+00 0.  1.
         11    1    3    3    0    0  0.16987104682E+02  0.61287178135E+01 -0.27403457811E+01  0.18265607101E+02  0.51100000000E-03 0. -1.
        -11    1    3    3    0    0 -0.42335942691E+01  0.30854508260E+01  0.20867395364E+01  0.56389546362E+01  0.51100000000E-03 0.  1.
         12    1    3    3    0    0  0.18401889293E+02  0.11206050633E+02 -0.15641227712E+02  0.26624295383E+02  0.00000000000E+00 0. -1.
</event>
<event>
 7    1  0.5753610E-013  0.5052886E+02  0.7816164E-02  0.1300439E+00
        -11   -1    0    0    0    0  0.00000000000E+00  0.00000000000E+00  0.45593999997E+02  0.45594000000E+02  0.51100000000E-03 0.  1.
         11   -1    0    0    0    0 -0.00000000000E+00 -0.00000000000E+00 -0.45593999997E+02  0.45594000000E+02  0.51100000000E-03 0. -1.
    9900012    2    1    2    0    0  0.33353049926E+02  0.84616683661E+01 -0.21659644470E+02  0.50528856263E+02  0.29999989096E+02 0.  0.
        -12    1    1    2    0    0 -0.33353049926E+02 -0.84616683661E+01  0.21659644470E+02  0.40659143737E+02  0.00000000000E+00 0.  1.
         11    1    3    3    0    0  0.12765705670E+02  0.87973303173E+01 -0.20916999353E+02  0.26036073517E+02  0.51100000000E-03 0. -1.
        -11    1    3    3    0    0 -0.15598710903E+01  0.26860754177E+00  0.15545486738E+01  0.22185512548E+01  0.51100000000E-03 0.  1.
        -12    1    3    3    0    0  0.22147215347E+02 -0.60426949300E+00 -0.22971937903E+01  0.22274231491E+02  0.00000000000E+00 0.  1.
</event>
<event>
 7    1  0.5753610E-013  0.5052889E+02  0.7816164E-02  0.1300439E+00
        -11   -1    0    0    0    0  0.00000000000E+00  0.00000000000E+00  0.45593999997E+02  0.45594000000E+02  0.51100000000E-03 0.  1.
         11   -1    0    0    0    0 -0.00000000000E+00 -0.00000000000E+00 -0.45593999997E+02  0.45594000000E+02  0.51100000000E-03 0. -1.
    9900012    2    1    2    0    0 -0.30965088206E+02  0.13105974310E+02 -0.22859562398E+02  0.50528894706E+02  0.30000105949E+02 0.  0.
        -12    1    1    2    0    0  0.30965088206E+02 -0.13105974310E+02  0.22859562398E+02  0.40659105294E+02  0.00000000000E+00 0.  1.
         11    1    3    3    0    0 -0.13040423786E+02  0.40887815390E+01 -0.80834560807E+01  0.15878068191E+02  0.51100000000E-03 0. -1.
        -11    1    3    3    0    0 -0.22692741434E+02  0.11455702283E+02 -0.14551622161E+02  0.29290669784E+02  0.51100000000E-03 0.  1.
        -12    1    3    3    0    0  0.47680770141E+01 -0.24385095124E+01 -0.22448415657E+00  0.53601567319E+01  0.00000000000E+00 0.  1.
</event>
<event>
 7    1  0.5753610E-013  0.5052882E+02  0.7816164E-02  0.1300439E+00
        -11   -1    0    0    0    0  0.00000000000E+00  0.00000000000E+00  0.45593999997E+02  0.45594000000E+02  0.51100000000E-03 0.  1.
         11   -1    0    0    0    0 -0.00000000000E+00 -0.00000000000E+00 -0.45593999997E+02  0.45594000000E+02  0.51100000000E-03 0. -1.
    9900012    2    1    2    0    0  0.17319630164E+02 -0.10769005546E+02 -0.35174253357E+02  0.50528816921E+02  0.29999869512E+02 0.  0.
        -12    1    1    2    0    0 -0.17319630164E+02  0.10769005546E+02  0.35174253357E+02  0.40659183079E+02  0.00000000000E+00 0.  1.
         11    1    3    3    0    0  0.15663030170E+02 -0.24023206485E+00 -0.62811868235E+01  0.16877248998E+02  0.51100000000E-03 0. -1.
        -11    1    3    3    0    0  0.91942115317E+00  0.24609596619E+01 -0.89026148013E+00  0.27738463329E+01  0.51100000000E-03 0.  1.
         12    1    3    3    0    0  0.73717884052E+00 -0.12989733143E+02 -0.28002805053E+02  0.30877721590E+02  0.00000000000E+00 0. -1.
</event>
<event>
 7    1  0.5753610E-013  0.5052887E+02  0.7816164E-02  0.1300439E+00
        -11   -1    0    0    0    0  0.00000000000E+00  0.00000000000E+00  0.45593999997E+02  0.45594000000E+02  0.51100000000E-03 0. -1.
         11   -1    0    0    0    0 -0.00000000000E+00 -0.00000000000E+00 -0.45593999997E+02  0.45594000000E+02  0.51100000000E-03 0.  1.
    9900012    2    1    2    0    0 -0.50893776220E+00  0.34868611732E+02  0.20906602827E+02  0.50528866420E+02  0.30000019969E+02 0.  0.
        -12    1    1    2    0    0  0.50893776220E+00 -0.34868611732E+02 -0.20906602827E+02  0.40659133580E+02  0.00000000000E+00 0.  1.
         11    1    3    3    0    0 -0.18275277966E+01  0.30085574475E+01  0.88622115078E+01  0.95357259206E+01  0.51100000000E-03 0. -1.
        -11    1    3    3    0    0 -0.98542405554E+01  0.75845694512E+01  0.31397287165E+01  0.12825351744E+02  0.51100000000E-03 0.  1.
         12    1    3    3    0    0  0.11172830590E+02  0.24275484833E+02  0.89046626022E+01  0.28167788755E+02  0.00000000000E+00 0. -1.
</event>
<event>
 7    1  0.6374204E-013  0.5052887E+02  0.7816164E-02  0.1300439E+00
        -11   -1    0    0    0    0  0.00000000000E+00  0.00000000000E+00  0.45593999997E+02  0.45594000000E+02  0.51100000000E-03 0. -1.
         11   -1    0    0    0    0 -0.00000000000E+00 -0.00000000000E+00 -0.45593999997E+02  0.45594000000E+02  0.51100000000E-03 0.  1.
    9900012    2    1    2    0    0  0.16565097701E+02  0.20966392268E+02  0.30645920113E+02  0.50528874503E+02  0.30000044539E+02 0.  0.
        -12    1    1    2    0    0 -0.16565097701E+02 -0.20966392268E+02 -0.30645920113E+02  0.40659125497E+02  0.00000000000E+00 0.  1.
         11    1    3    3    0    0  0.89682903828E+01  0.21535619046E+02  0.27338134861E+02  0.35938652424E+02  0.51100000000E-03 0. -1.
        -11    1    3    3    0    0  0.56509047782E+01  0.39315349168E+01 -0.21895203525E+01  0.72238280191E+01  0.51100000000E-03 0.  1.
        -12    1    3    3    0    0  0.19459025404E+01 -0.45007616950E+01  0.54973056052E+01  0.73663940601E+01  0.00000000000E+00 0.  1.
</event>
<event>
 7    1  0.5753610E-013  0.5052886E+02  0.7816164E-02  0.1300439E+00
        -11   -1    0    0    0    0  0.00000000000E+00  0.00000000000E+00  0.45593999997E+02  0.45594000000E+02  0.51100000000E-03 0. -1.
         11   -1    0    0    0    0 -0.00000000000E+00 -0.00000000000E+00 -0.45593999997E+02  0.45594000000E+02  0.51100000000E-03 0.  1.
    9900012    2    1    2    0    0 -0.61654358197E+01 -0.22824303391E+02  0.33078760360E+02  0.50528858210E+02  0.29999995016E+02 0.  0.
        -12    1    1    2    0    0  0.61654358197E+01  0.22824303391E+02 -0.33078760360E+02  0.40659141790E+02  0.00000000000E+00 0.  1.
         11    1    3    3    0    0  0.39453240588E+01 -0.41901470473E+01  0.33059961590E+01  0.66372076261E+01  0.51100000000E-03 0. -1.
        -11    1    3    3    0    0 -0.78292953064E+01 -0.17570906911E+02  0.62376738186E+01  0.20222344315E+02  0.51100000000E-03 0.  1.
         12    1    3    3    0    0 -0.22814645721E+01 -0.10632494324E+01  0.23535090382E+02  0.23669306269E+02  0.00000000000E+00 0. -1.
</event>
<event>
 7    1  0.5753610E-013  0.5052887E+02  0.7816164E-02  0.1300439E+00
        -11   -1    0    0    0    0  0.00000000000E+00  0.00000000000E+00  0.45593999997E+02  0.45594000000E+02  0.51100000000E-03 0.  1.
         11   -1    0    0    0    0 -0.00000000000E+00 -0.00000000000E+00 -0.45593999997E+02  0.45594000000E+02  0.51100000000E-03 0. -1.
    9900012    2    1    2    0    0 -0.36133123606E+02 -0.13375137137E+02 -0.12987234199E+02  0.50528866130E+02  0.30000019087E+02 0.  0.
        -12    1    1    2    0    0  0.36133123606E+02  0.13375137137E+02  0.12987234199E+02  0.40659133870E+02  0.00000000000E+00 0.  1.
         11    1    3    3    0    0 -0.13551343903E+01 -0.69177098452E+01 -0.53047204251E+01  0.88221968788E+01  0.51100000000E-03 0. -1.
        -11    1    3    3    0    0 -0.26140096425E+02 -0.13370620020E+02 -0.24360661078E+01  0.29462052528E+02  0.51100000000E-03 0.  1.
         12    1    3    3    0    0 -0.86378927903E+01  0.69131927285E+01 -0.52464476665E+01  0.12244616722E+02  0.00000000000E+00 0. -1.
</event>
<event>
 7    1  0.5753610E-013  0.5052886E+02  0.7816164E-02  0.1300439E+00
        -11   -1    0    0    0    0  0.00000000000E+00  0.00000000000E+00  0.45593999997E+02  0.45594000000E+02  0.51100000000E-03 0.  1.
         11   -1    0    0    0    0 -0.00000000000E+00 -0.00000000000E+00 -0.45593999997E+02  0.45594000000E+02  0.51100000000E-03 0. -1.
    9900012    2    1    2    0    0 -0.18079329916E+02  0.36245034472E+02  0.35497864770E+01  0.50528859845E+02  0.29999999986E+02 0.  0.
        -12    1    1    2    0    0  0.18079329916E+02 -0.36245034472E+02 -0.35497864770E+01  0.40659140155E+02  0.00000000000E+00 0.  1.
         11    1    3    3    0    0 -0.33133728656E+01  0.13508970808E+02 -0.44131005872E+01  0.14592675871E+02  0.51100000000E-03 0. -1.
        -11    1    3    3    0    0 -0.12156900455E+02  0.27069071449E+02  0.50524234295E+01  0.30100695018E+02  0.51100000000E-03 0.  1.
        -12    1    3    3    0    0 -0.26090565956E+01 -0.43330077851E+01  0.29104636347E+01  0.58354889559E+01  0.00000000000E+00 0.  1.
</event>
<event>
 7    1  0.5753610E-013  0.5052886E+02  0.7816164E-02  0.1300439E+00
        -11   -1    0    0    0    0  0.00000000000E+00  0.00000000000E+00  0.45593999997E+02  0.45594000000E+02  0.51100000000E-03 0.  1.
         11   -1    0    0    0    0 -0.00000000000E+00 -0.00000000000E+00 -0.45593999997E+02  0.45594000000E+02  0.51100000000E-03 0. -1.
    9900012    2    1    2    0    0  0.39576798456E+02 -0.35623377274E+01 -0.86111925426E+01  0.50528857570E+02  0.29999993069E+02 0.  0.
        -12    1    1    2    0    0 -0.39576798456E+02  0.35623377274E+01  0.86111925426E+01  0.40659142430E+02  0.00000000000E+00 0.  1.
         11    1    3    3    0    0  0.37622710564E+01  0.55273609377E+01  0.11413591735E+01  0.67830010660E+01  0.51100000000E-03 0. -1.
        -11    1    3    3    0    0  0.79934149691E+01 -0.86456321875E+01  0.43486915032E+01  0.12552002105E+02  0.51100000000E-03 0.  1.
        -12    1    3    3    0    0  0.27821112431E+02 -0.44406647763E+00 -0.14101243219E+02  0.31193854399E+02  0.00000000000E+00 0.  1.
</event>
<event>
 7    1  0.5753610E-013  0.5052889E+02  0.7816164E-02  0.1300439E+00
        -11   -1    0    0    0    0  0.00000000000E+00  0.00000000000E+00  0.45593999997E+02  0.45594000000E+02  0.51100000000E-03 0.  1.
         11   -1    0    0    0    0 -0.00000000000E+00 -0.00000000000E+00 -0.45593999997E+02  0.45594000000E+02  0.51100000000E-03 0. -1.
    9900012    2    1    2    0    0  0.13891250240E+02  0.19737107551E+02 -0.32720682910E+02  0.50528888625E+02  0.30000087465E+02 0.  0.
        -12    1    1    2    0    0 -0.13891250240E+02 -0.19737107551E+02  0.32720682910E+02  0.40659111375E+02  0.00000000000E+00 0.  1.
         11    1    3    3    0    0 -0.52441279361E+01  0.27117672099E+01 -0.84061631206E+01  0.10272202192E+02  0.51100000000E-03 0. -1.
        -11    1    3    3    0    0 -0.26503608588E+00  0.57407661447E+01  0.16086599710E+01  0.59677824372E+01  0.51100000000E-03 0.  1.
         12    1    3    3    0    0  0.19400414262E+02  0.11284574197E+02 -0.25923179760E+02  0.34288903995E+02  0.00000000000E+00 0. -1.
</event>
<event>
 7    1  0.5753610E-013  0.5052888E+02  0.7816164E-02  0.1300439E+00
        -11   -1    0    0    0    0  0.00000000000E+00  0.00000000000E+00  0.45593999997E+02  0.45594000000E+02  0.51100000000E-03 0.  1.
         11   -1    0    0    0    0 -0.00000000000E+00 -0.00000000000E+00 -0.45593999997E+02  0.45594000000E+02  0.51100000000E-03 0. -1.
    9900012    2    1    2    0    0  0.39456309565E+01 -0.34665298174E+01 -0.40318477006E+02  0.50528875308E+02  0.30000046985E+02 0.  0.
        -12    1    1    2    0    0 -0.39456309565E+01  0.34665298174E+01  0.40318477006E+02  0.40659124692E+02  0.00000000000E+00 0.  1.
         11    1    3    3    0    0 -0.47181880399E+01  0.10417600766E+01 -0.54957712414E+01  0.73177909396E+01  0.51100000000E-03 0. -1.
        -11    1    3    3    0    0  0.50512482270E+01  0.77912227628E+01 -0.45586619073E+01  0.10344063971E+02  0.51100000000E-03 0.  1.
         12    1    3    3    0    0  0.36125707693E+01 -0.12299512657E+02 -0.30264043858E+02  0.32867020397E+02  0.00000000000E+00 0. -1.
</event>
<event>
 7    1  0.5753610E-013  0.5052886E+02  0.7816164E-02  0.1300439E+00
        -11   -1    0    0    0    0  0.00000000000E+00  0.00000000000E+00  0.45593999997E+02  0.45594000000E+02  0.51100000000E-03 0. -1.
         11   -1    0    0    0    0 -0.00000000000E+00 -0.00000000000E+00 -0.45593999997E+02  0.45594000000E+02  0.51100000000E-03 0.  1.
    9900012    2    1    2    0    0 -0.48673905277E+01 -0.32040510451E+02  0.24553616709E+02  0.50528857190E+02  0.29999991916E+02 0.  0.
        -12    1    1    2    0    0  0.48673905277E+01  0.32040510451E+02 -0.24553616709E+02  0.40659142810E+02  0.00000000000E+00 0.  1.
         11    1    3    3    0    0 -0.83844006323E+00 -0.24932016350E+02  0.99935811793E+01  0.26873408530E+02  0.51100000000E-03 0. -1.
        -11    1    3    3    0    0  0.62385297255E+01 -0.40462274469E+00  0.36307004257E+01  0.72294507775E+01  0.51100000000E-03 0.  1.
         12    1    3    3    0    0 -0.10267480190E+02 -0.67038713567E+01  0.10929335104E+02  0.16425997883E+02  0.00000000000E+00 0. -1.
</event>
<event>
 7    1  0.5753610E-013  0.5052886E+02  0.7816164E-02  0.1300439E+00
        -11   -1    0    0    0    0  0.00000000000E+00  0.00000000000E+00  0.45593999997E+02  0.45594000000E+02  0.51100000000E-03 0. -1.
         11   -1    0    0    0    0 -0.00000000000E+00 -0.00000000000E+00 -0.45593999997E+02  0.45594000000E+02  0.51100000000E-03 0.  1.
    9900012    2    1    2    0    0 -0.22960717997E+02 -0.30969705394E+02  0.12916977037E+02  0.50528861803E+02  0.30000005936E+02 0.  0.
        -12    1    1    2    0    0  0.22960717997E+02  0.30969705394E+02 -0.12916977037E+02  0.40659138197E+02  0.00000000000E+00 0.  1.
         11    1    3    3    0    0 -0.14604281355E+01 -0.15690972630E+02  0.17682634245E+01  0.15857686723E+02  0.51100000000E-03 0. -1.
        -11    1    3    3    0    0 -0.41691978209E+00 -0.60440043033E+01  0.99169642832E+01  0.11621101109E+02  0.51100000000E-03 0.  1.
        -12    1    3    3    0    0 -0.21083370080E+02 -0.92347284612E+01  0.12317493297E+01  0.23050073971E+02  0.00000000000E+00 0.  1.
</event>
<event>
 7    1  0.5753610E-013  0.5052885E+02  0.7816164E-02  0.1300439E+00
        -11   -1    0    0    0    0  0.00000000000E+00  0.00000000000E+00  0.45593999997E+02  0.45594000000E+02  0.51100000000E-03 0.  1.
         11   -1    0    0    0    0 -0.00000000000E+00 -0.00000000000E+00 -0.45593999997E+02  0.45594000000E+02  0.51100000000E-03 0. -1.
    9900012    2    1    2    0    0 -0.13485830081E+02  0.93899815887E+01 -0.37190419003E+02  0.50528848105E+02  0.29999964299E+02 0.  0.
        -12    1    1    2    0    0  0.13485830081E+02 -0.93899815887E+01  0.37190419003E+02  0.40659151895E+02  0.00000000000E+00 0.  1.
         11    1    3    3    0    0 -0.27973125607E+00  0.64095150780E+01 -0.29231769861E+02  0.29927520822E+02  0.51100000000E-03 0. -1.
        -11    1    3    3    0    0 -0.20529158055E+01 -0.49082917473E+01 -0.26646404522E+01  0.59503025286E+01  0.51100000000E-03 0.  1.
        -12    1    3    3    0    0 -0.11153183020E+02  0.78887582580E+01 -0.52940086902E+01  0.14651024754E+02  0.00000000000E+00 0.  1.
</event>
<event>
 7    1  0.5753610E-013  0.5052886E+02  0.7816164E-02  0.1300439E+00
        -11   -1    0    0    0    0  0.00000000000E+00  0.00000000000E+00  0.45593999997E+02  0.45594000000E+02  0.51100000000E-03 0.  1.
         11   -1    0    0    0    0 -0.00000000000E+00 -0.00000000000E+00 -0.45593999997E+02  0.45594000000E+02  0.51100000000E-03 0. -1.
    9900012    2    1    2    0    0 -0.34016659171E+02 -0.88720706353E+01 -0.20428388280E+02  0.50528858516E+02  0.29999995945E+02 0.  0.
        -12    1    1    2    0    0  0.34016659171E+02  0.88720706353E+01  0.20428388280E+02  0.40659141484E+02  0.00000000000E+00 0.  1.
         11    1    3    3    0    0 -0.31897716419E+02 -0.47227234995E+01 -0.16291111370E+02  0.36127119176E+02  0.51100000000E-03 0. -1.
        -11    1    3    3    0    0 -0.53340363099E+01 -0.72326283179E+01 -0.12015942299E+01  0.90667902091E+01  0.51100000000E-03 0.  1.
         12    1    3    3    0    0  0.32150935581E+01  0.30832811821E+01 -0.29356826799E+01  0.53349491312E+01  0.00000000000E+00 0. -1.
</event>
<event>
 7    1  0.5753610E-013  0.5052897E+02  0.7816164E-02  0.1300438E+00
        -11   -1    0    0    0    0  0.00000000000E+00  0.00000000000E+00  0.45593999997E+02  0.45594000000E+02  0.51100000000E-03 0. -1.
         11   -1    0    0    0    0 -0.00000000000E+00 -0.00000000000E+00 -0.45593999997E+02  0.45594000000E+02  0.51100000000E-03 0.  1.
    9900012    2    1    2    0    0 -0.11570011628E+02  0.31254358624E+02  0.23290705664E+02  0.50528965673E+02  0.30000321657E+02 0.  0.
        -12    1    1    2    0    0  0.11570011628E+02 -0.31254358624E+02 -0.23290705664E+02  0.40659034327E+02  0.00000000000E+00 0.  1.
         11    1    3    3    0    0 -0.29918819906E+01  0.19688325787E+02  0.21549976589E+02  0.29342512186E+02  0.51100000000E-03 0. -1.
        -11    1    3    3    0    0 -0.10597711240E+02  0.71490367474E+01  0.65392007646E+01  0.14359016570E+02  0.51100000000E-03 0.  1.
        -12    1    3    3    0    0  0.20195816022E+01  0.44169960896E+01 -0.47984716895E+01  0.68274369172E+01  0.00000000000E+00 0.  1.
</event>
<event>
 7    1  0.5753610E-013  0.5052888E+02  0.7816164E-02  0.1300439E+00
        -11   -1    0    0    0    0  0.00000000000E+00  0.00000000000E+00  0.45593999997E+02  0.45594000000E+02  0.51100000000E-03 0.  1.
         11   -1    0    0    0    0 -0.00000000000E+00 -0.00000000000E+00 -0.45593999997E+02  0.45594000000E+02  0.51100000000E-03 0. -1.
    9900012    2    1    2    0    0  0.25841493840E+02 -0.56848063753E+01 -0.30871739254E+02  0.50528879104E+02  0.30000058526E+02 0.  0.
        -12    1    1    2    0    0 -0.25841493840E+02  0.56848063753E+01  0.30871739254E+02  0.40659120896E+02  0.00000000000E+00 0.  1.
         11    1    3    3    0    0  0.98651400464E+01 -0.74767189961E+01 -0.13885968241E+02  0.18602215711E+02  0.51100000000E-03 0. -1.
        -11    1    3    3    0    0 -0.10059998996E+01 -0.63033677372E+01  0.28318800305E+00  0.63894190921E+01  0.51100000000E-03 0.  1.
         12    1    3    3    0    0  0.16982353693E+02  0.80952803579E+01 -0.17268959016E+02  0.25537244302E+02  0.00000000000E+00 0. -1.
</event>
<event>
 7    1  0.5753610E-013  0.5052886E+02  0.7816164E-02  0.1300439E+00
        -11   -1    0    0    0    0  0.00000000000E+00  0.00000000000E+00  0.45593999997E+02  0.45594000000E+02  0.51100000000E-03 0. -1.
         11   -1    0    0    0    0 -0.00000000000E+00 -0.00000000000E+00 -0.45593999997E+02  0.45594000000E+02  0.51100000000E-03 0.  1.
    9900012    2    1    2    0    0  0.24737743807E+02  0.32230838410E+02  0.15437347076E+01  0.50528855516E+02  0.29999986828E+02 0.  0.
        -12    1    1    2    0    0 -0.24737743807E+02 -0.32230838410E+02 -0.15437347076E+01  0.40659144484E+02  0.00000000000E+00 0.  1.
         11    1    3    3    0    0  0.49215065190E+01  0.20631792103E+02 -0.79805771361E+01  0.22662340644E+02  0.51100000000E-03 0.  1.
        -11    1    3    3    0    0  0.65201285268E+01  0.10699301825E+02  0.24072103104E+01  0.12758596995E+02  0.51100000000E-03 0. -1.
        -12    1    3    3    0    0  0.13296108762E+02  0.89974448175E+00  0.71171015333E+01  0.15107917877E+02  0.00000000000E+00 0.  1.
</event>
<event>
 7    1  0.5753610E-013  0.5052887E+02  0.7816164E-02  0.1300439E+00
        -11   -1    0    0    0    0  0.00000000000E+00  0.00000000000E+00  0.45593999997E+02  0.45594000000E+02  0.51100000000E-03 0.  1.
         11   -1    0    0    0    0 -0.00000000000E+00 -0.00000000000E+00 -0.45593999997E+02  0.45594000000E+02  0.51100000000E-03 0. -1.
    9900012    2    1    2    0    0  0.47575574648E+00 -0.11809830957E+02 -0.38903299760E+02  0.50528865934E+02  0.30000018494E+02 0.  0.
        -12    1    1    2    0    0 -0.47575574648E+00  0.11809830957E+02  0.38903299760E+02  0.40659134066E+02  0.00000000000E+00 0.  1.
         11    1    3    3    0    0 -0.52318116606E+01  0.33760364276E+01 -0.20376285836E+01  0.65514430256E+01  0.51100000000E-03 0. -1.
        -11    1    3    3    0    0 -0.47657216488E+00  0.33682114726E+01 -0.11226021319E+02  0.11730111869E+02  0.51100000000E-03 0.  1.
        -12    1    3    3    0    0  0.61841395720E+01 -0.18554078857E+02 -0.25639649857E+02  0.32247311040E+02  0.00000000000E+00 0.  1.
</event>
<event>
 7    1  0.5753610E-013  0.5052886E+02  0.7816164E-02  0.1300439E+00
        -11   -1    0    0    0    0  0.00000000000E+00  0.00000000000E+00  0.45593999997E+02  0.45594000000E+02  0.51100000000E-03 0.  1.
         11   -1    0    0    0    0 -0.00000000000E+00 -0.00000000000E+00 -0.45593999997E+02  0.45594000000E+02  0.51100000000E-03 0. -1.
    9900012    2    1    2    0    0  0.80871560272E+01  0.96433993121E+01 -0.38662232972E+02  0.50528862020E+02  0.30000006595E+02 0.  0.
        -12    1    1    2    0    0 -0.80871560272E+01 -0.96433993121E+01  0.38662232972E+02  0.40659137980E+02  0.00000000000E+00 0.  1.
         11    1    3    3    0    0  0.69880980958E+01  0.70441184513E+01 -0.52635426389E+01  0.11232007885E+02  0.51100000000E-03 0. -1.
        -11    1    3    3    0    0 -0.41334256111E+01 -0.69782738442E+01 -0.69356721625E+01  0.10671694417E+02  0.51100000000E-03 0.  1.
         12    1    3    3    0    0  0.52324835425E+01  0.95775547051E+01 -0.26463018171E+02  0.28625159718E+02  0.00000000000E+00 0. -1.
</event>
<event>
 7    1  0.5753610E-013  0.5052885E+02  0.7816164E-02  0.1300439E+00
        -11   -1    0    0    0    0  0.00000000000E+00  0.00000000000E+00  0.45593999997E+02  0.45594000000E+02  0.51100000000E-03 0. -1.
         11   -1    0    0    0    0 -0.00000000000E+00 -0.00000000000E+00 -0.45593999997E+02  0.45594000000E+02  0.51100000000E-03 0.  1.
    9900012    2    1    2    0    0 -0.39512274340E+02  0.11299598046E+01  0.95220608329E+01  0.50528852503E+02  0.29999977669E+02 0.  0.
        -12    1    1    2    0    0  0.39512274340E+02 -0.11299598046E+01 -0.95220608329E+01  0.40659147497E+02  0.00000000000E+00 0.  1.
         11    1    3    3    0    0 -0.14104472551E+01 -0.64678382597E+01 -0.35701267812E+01  0.75211766837E+01  0.51100000000E-03 0.  1.
        -11    1    3    3    0    0 -0.20378335496E+02 -0.10124840629E+01  0.22762502010E+01  0.20530051067E+02  0.51100000000E-03 0. -1.
        -12    1    3    3    0    0 -0.17723491589E+02  0.86102821272E+01  0.10815937413E+02  0.22477624753E+02  0.00000000000E+00 0.  1.
</event>
<event>
 7    1  0.5753610E-013  0.5052886E+02  0.7816164E-02  0.1300439E+00
        -11   -1    0    0    0    0  0.00000000000E+00  0.00000000000E+00  0.45593999997E+02  0.45594000000E+02  0.51100000000E-03 0.  1.
         11   -1    0    0    0    0 -0.00000000000E+00 -0.00000000000E+00 -0.45593999997E+02  0.45594000000E+02  0.51100000000E-03 0. -1.
    9900012    2    1    2    0    0 -0.34097134353E+02  0.21607123673E+02 -0.48665749596E+01  0.50528856916E+02  0.29999991083E+02 0.  0.
        -12    1    1    2    0    0  0.34097134353E+02 -0.21607123673E+02  0.48665749596E+01  0.40659143084E+02  0.00000000000E+00 0.  1.
         11    1    3    3    0    0 -0.10351606513E+02  0.92793805333E+01  0.38302470575E+01  0.14419897825E+02  0.51100000000E-03 0.  1.
        -11    1    3    3    0    0 -0.24803514135E+02  0.35559981652E+01 -0.22226199546E+01  0.25155505881E+02  0.51100000000E-03 0. -1.
         12    1    3    3    0    0  0.10579862959E+01  0.87717449742E+01 -0.64742020625E+01  0.10953453211E+02  0.00000000000E+00 0. -1.
</event>
<event>
 7    1  0.5753610E-013  0.5052880E+02  0.7816164E-02  0.1300439E+00
        -11   -1    0    0    0    0  0.00000000000E+00  0.00000000000E+00  0.45593999997E+02  0.45594000000E+02  0.51100000000E-03 0. -1.
         11   -1    0    0    0    0 -0.00000000000E+00 -0.00000000000E+00 -0.45593999997E+02  0.45594000000E+02  0.51100000000E-03 0.  1.
    9900012    2    1    2    0    0 -0.24057465749E+02 -0.17758498426E+02  0.27550757921E+02  0.50528804403E+02  0.29999831463E+02 0.  0.
        -12    1    1    2    0    0  0.24057465749E+02  0.17758498426E+02 -0.27550757921E+02  0.40659195597E+02  0.00000000000E+00 0.  1.
         11    1    3    3    0    0 -0.10204926825E+02 -0.52240933867E+01  0.78368076624E+01  0.13886944870E+02  0.51100000000E-03 0. -1.
        -11    1    3    3    0    0 -0.15280816401E+02 -0.14090806553E+02  0.24068678918E+02  0.31801815739E+02  0.51100000000E-03 0.  1.
        -12    1    3    3    0    0  0.14282774775E+01  0.15564015140E+01 -0.43547286596E+01  0.48400437936E+01  0.00000000000E+00 0.  1.
</event>
<event>
 7    1  0.5753610E-013  0.5052888E+02  0.7816164E-02  0.1300439E+00
        -11   -1    0    0    0    0  0.00000000000E+00  0.00000000000E+00  0.45593999997E+02  0.45594000000E+02  0.51100000000E-03 0.  1.
         11   -1    0    0    0    0 -0.00000000000E+00 -0.00000000000E+00 -0.45593999997E+02  0.45594000000E+02  0.51100000000E-03 0. -1.
    9900012    2    1    2    0    0 -0.29717499206E+02  0.18302144470E+02 -0.20858229206E+02  0.50528880766E+02  0.30000063577E+02 0.  0.
        -12    1    1    2    0    0  0.29717499206E+02 -0.18302144470E+02  0.20858229206E+02  0.40659119234E+02  0.00000000000E+00 0.  1.
         11    1    3    3    0    0 -0.13539786600E+02  0.10754586631E+01 -0.19132046447E+01  0.13716515038E+02  0.51100000000E-03 0. -1.
        -11    1    3    3    0    0  0.38550015575E+00  0.35460821427E+00  0.39001614902E+01  0.39351769041E+01  0.51100000000E-03 0.  1.
         12    1    3    3    0    0 -0.16563212762E+02  0.16872077593E+02 -0.22845186051E+02  0.32877188825E+02  0.00000000000E+00 0. -1.
</event>
<event>
 7    1  0.5753610E-013  0.5052886E+02  0.7816164E-02  0.1300439E+00
        -11   -1    0    0    0    0  0.00000000000E+00  0.00000000000E+00  0.45593999997E+02  0.45594000000E+02  0.51100000000E-03 0.  1.
         11   -1    0    0    0    0 -0.00000000000E+00 -0.00000000000E+00 -0.45593999997E+02  0.45594000000E+02  0.51100000000E-03 0. -1.
    9900012    2    1    2    0    0 -0.70534402157E+01  0.76335383146E+01 -0.39308314198E+02  0.50528862144E+02  0.30000006974E+02 0.  0.
        -12    1    1    2    0    0  0.70534402157E+01 -0.76335383146E+01  0.39308314198E+02  0.40659137856E+02  0.00000000000E+00 0.  1.
         11    1    3    3    0    0 -0.11794880789E+02 -0.30375910118E+01 -0.16020725141E+02  0.20124855436E+02  0.51100000000E-03 0.  1.
        -11    1    3    3    0    0  0.71085573485E+01 -0.13417418251E+01 -0.99057095757E+01  0.12266007548E+02  0.51100000000E-03 0. -1.
         12    1    3    3    0    0 -0.23671167753E+01  0.12012871151E+02 -0.13381879481E+02  0.18137999161E+02  0.00000000000E+00 0. -1.
</event>
<event>
 7    1  0.5753610E-013  0.5052887E+02  0.7816164E-02  0.1300439E+00
        -11   -1    0    0    0    0  0.00000000000E+00  0.00000000000E+00  0.45593999997E+02  0.45594000000E+02  0.51100000000E-03 0. -1.
         11   -1    0    0    0    0 -0.00000000000E+00 -0.00000000000E+00 -0.45593999997E+02  0.45594000000E+02  0.51100000000E-03 0.  1.
    9900012    2    1    2    0    0  0.15439641199E+02  0.34060296184E+02 -0.15958659710E+02  0.50528866755E+02  0.30000020987E+02 0.  0.
        -12    1    1    2    0    0 -0.15439641199E+02 -0.34060296184E+02  0.15958659710E+02  0.40659133245E+02  0.00000000000E+00 0.  1.
         11    1    3    3    0    0  0.73121392036E+01  0.10000865467E+01 -0.79907959136E+01  0.10877516832E+02  0.51100000000E-03 0. -1.
        -11    1    3    3    0    0  0.32682831421E+01  0.12583279509E+01  0.40090065304E+01  0.53232694418E+01  0.51100000000E-03 0.  1.
         12    1    3    3    0    0  0.48592188535E+01  0.31801881687E+02 -0.11976870327E+02  0.34328080481E+02  0.00000000000E+00 0. -1.
</event>
<event>
 7    1  0.5753610E-013  0.5052881E+02  0.7816164E-02  0.1300439E+00
        -11   -1    0    0    0    0  0.00000000000E+00  0.00000000000E+00  0.45593999997E+02  0.45594000000E+02  0.51100000000E-03 0. -1.
         11   -1    0    0    0    0 -0.00000000000E+00 -0.00000000000E+00 -0.45593999997E+02  0.45594000000E+02  0.51100000000E-03 0.  1.
    9900012    2    1    2    0    0  0.12304004932E+02  0.24314817742E+02  0.30175659973E+02  0.50528814642E+02  0.29999862585E+02 0.  0.
        -12    1    1    2    0    0 -0.12304004932E+02 -0.24314817742E+02 -0.30175659973E+02  0.40659185358E+02  0.00000000000E+00 0.  1.
         11    1    3    3    0    0 -0.15347673558E+01  0.23531562560E+01 -0.19854138751E+01  0.34401633272E+01  0.51100000000E-03 0. -1.
        -11    1    3    3    0    0 -0.51244559756E+01  0.28645403900E+01  0.12337074564E+02  0.13662688233E+02  0.51100000000E-03 0.  1.
         12    1    3    3    0    0  0.18963228263E+02  0.19097121096E+02  0.19823999284E+02  0.33425963082E+02  0.00000000000E+00 0. -1.
</event>
<event>
 7    1  0.5753610E-013  0.5052887E+02  0.7816164E-02  0.1300439E+00
        -11   -1    0    0    0    0  0.00000000000E+00  0.00000000000E+00  0.45593999997E+02  0.45594000000E+02  0.51100000000E-03 0. -1.
         11   -1    0    0    0    0 -0.00000000000E+00 -0.00000000000E+00 -0.45593999997E+02  0.45594000000E+02  0.51100000000E-03 0.  1.
    9900012    2    1    2    0    0 -0.82446518011E+01 -0.23882768311E+02  0.31855990907E+02  0.50528867420E+02  0.30000023009E+02 0.  0.
        -12    1    1    2    0    0  0.82446518011E+01  0.23882768311E+02 -0.31855990907E+02  0.40659132580E+02  0.00000000000E+00 0.  1.
         11    1    3    3    0    0  0.54734637245E+01 -0.10329090424E+02  0.10498185716E+02  0.15711805043E+02  0.51100000000E-03 0. -1.
        -11    1    3    3    0    0 -0.29888064414E+01  0.18288044402E+01 -0.26204309878E+01  0.43754026612E+01  0.51100000000E-03 0.  1.
        -12    1    3    3    0    0 -0.10729309084E+02 -0.15382482327E+02  0.23978236179E+02  0.30441659715E+02  0.00000000000E+00 0.  1.
</event>
<event>
 7    1  0.5753610E-013  0.5052886E+02  0.7816164E-02  0.1300439E+00
        -11   -1    0    0    0    0  0.00000000000E+00  0.00000000000E+00  0.45593999997E+02  0.45594000000E+02  0.51100000000E-03 0. -1.
         11   -1    0    0    0    0 -0.00000000000E+00 -0.00000000000E+00 -0.45593999997E+02  0.45594000000E+02  0.51100000000E-03 0.  1.
    9900012    2    1    2    0    0 -0.13826992758E+02  0.37077413337E+02 -0.93405315288E+01  0.50528857883E+02  0.29999994020E+02 0.  0.
        -12    1    1    2    0    0  0.13826992758E+02 -0.37077413337E+02  0.93405315288E+01  0.40659142117E+02  0.00000000000E+00 0.  1.
         11    1    3    3    0    0 -0.11860652580E+02  0.85828658910E+01 -0.12030829178E+01  0.14689726862E+02  0.51100000000E-03 0. -1.
        -11    1    3    3    0    0 -0.72694755597E+01  0.25232726606E+02 -0.87545035498E+00  0.26273602350E+02  0.51100000000E-03 0.  1.
        -12    1    3    3    0    0  0.53031353815E+01  0.32618208397E+01 -0.72619982560E+01  0.95655286699E+01  0.00000000000E+00 0.  1.
</event>
<event>
 7    1  0.5818339E-013  0.5052885E+02  0.7816164E-02  0.1300439E+00
        -11   -1    0    0    0    0  0.00000000000E+00  0.00000000000E+00  0.45593999997E+02  0.45594000000E+02  0.51100000000E-03 0.  1.
         11   -1    0    0    0    0 -0.00000000000E+00 -0.00000000000E+00 -0.45593999997E+02  0.45594000000E+02  0.51100000000E-03 0. -1.
    9900012    2    1    2    0    0 -0.16102040185E+02  0.10156687725E+01 -0.37321030314E+02  0.50528848695E+02  0.29999966093E+02 0.  0.
        -12    1    1    2    0    0  0.16102040185E+02 -0.10156687725E+01  0.37321030314E+02  0.40659151305E+02  0.00000000000E+00 0.  1.
         11    1    3    3    0    0 -0.57129396923E+01  0.92845387424E+00 -0.19260505127E+02  0.20111359092E+02  0.51100000000E-03 0. -1.
        -11    1    3    3    0    0  0.54357085679E+01 -0.30966324956E+01 -0.11301865170E+02  0.12917748141E+02  0.51100000000E-03 0.  1.
        -12    1    3    3    0    0 -0.15824809060E+02  0.31838473939E+01 -0.67586600172E+01  0.17499741462E+02  0.00000000000E+00 0.  1.
</event>
<event>
 7    1  0.5753610E-013  0.5052888E+02  0.7816164E-02  0.1300439E+00
        -11   -1    0    0    0    0  0.00000000000E+00  0.00000000000E+00  0.45593999997E+02  0.45594000000E+02  0.51100000000E-03 0.  1.
         11   -1    0    0    0    0 -0.00000000000E+00 -0.00000000000E+00 -0.45593999997E+02  0.45594000000E+02  0.51100000000E-03 0. -1.
    9900012    2    1    2    0    0  0.28786998711E+02  0.25793474720E+02 -0.12616236698E+02  0.50528879728E+02  0.30000060421E+02 0.  0.
        -12    1    1    2    0    0 -0.28786998711E+02 -0.25793474720E+02  0.12616236698E+02  0.40659120272E+02  0.00000000000E+00 0.  1.
         11    1    3    3    0    0  0.20887514494E+02  0.22461500497E+02 -0.70384344324E+01  0.31469776387E+02  0.51100000000E-03 0. -1.
        -11    1    3    3    0    0 -0.92785160814E-02  0.86408752232E+01 -0.18927517223E+01  0.88457515258E+01  0.51100000000E-03 0.  1.
        -12    1    3    3    0    0  0.79087627330E+01 -0.53089010004E+01 -0.36850505433E+01  0.10213351815E+02  0.00000000000E+00 0.  1.
</event>
<event>
 7    1  0.5753611E-013  0.5052884E+02  0.7816164E-02  0.1300439E+00
        -11   -1    0    0    0    0  0.00000000000E+00  0.00000000000E+00  0.45593999997E+02  0.45594000000E+02  0.51100000000E-03 0. -1.
         11   -1    0    0    0    0 -0.00000000000E+00 -0.00000000000E+00 -0.45593999997E+02  0.45594000000E+02  0.51100000000E-03 0.  1.
    9900012    2    1    2    0    0  0.30200851047E+02  0.13922655082E+02  0.23393071144E+02  0.50528837367E+02  0.29999931661E+02 0.  0.
        -12    1    1    2    0    0 -0.30200851047E+02 -0.13922655082E+02 -0.23393071144E+02  0.40659162633E+02  0.00000000000E+00 0.  1.
         11    1    3    3    0    0  0.77758916293E+01  0.60550162395E+00  0.10152805534E+02  0.12802756864E+02  0.51100000000E-03 0. -1.
        -11    1    3    3    0    0 -0.34920989122E+01  0.32799924051E+01  0.81751023702E+01  0.94755160289E+01  0.51100000000E-03 0.  1.
        -12    1    3    3    0    0  0.25917058329E+02  0.10037161053E+02  0.50651632397E+01  0.28250564474E+02  0.00000000000E+00 0.  1.
</event>
<event>
 7    1  0.5753610E-013  0.5052886E+02  0.7816164E-02  0.1300439E+00
        -11   -1    0    0    0    0  0.00000000000E+00  0.00000000000E+00  0.45593999997E+02  0.45594000000E+02  0.51100000000E-03 0.  1.
         11   -1    0    0    0    0 -0.00000000000E+00 -0.00000000000E+00 -0.45593999997E+02  0.45594000000E+02  0.51100000000E-03 0. -1.
    9900012    2    1    2    0    0  0.39461085889E+02  0.85113849922E+01 -0.48522503838E+01  0.50528864399E+02  0.30000013828E+02 0.  0.
        -12    1    1    2    0    0 -0.39461085889E+02 -0.85113849922E+01  0.48522503838E+01  0.40659135601E+02  0.00000000000E+00 0.  1.
         11    1    3    3    0    0  0.57716894142E+01  0.75894394290E+01 -0.97978930683E+01  0.13671528751E+02  0.51100000000E-03 0. -1.
        -11    1    3    3    0    0  0.38441401549E+01 -0.46022351330E+01 -0.51220908400E+00  0.60183336694E+01  0.51100000000E-03 0.  1.
         12    1    3    3    0    0  0.29845256320E+02  0.55241806961E+01  0.54578517685E+01  0.30839001979E+02  0.00000000000E+00 0. -1.
</event>
<event>
 7    1  0.5753610E-013  0.5052889E+02  0.7816164E-02  0.1300439E+00
        -11   -1    0    0    0    0  0.00000000000E+00  0.00000000000E+00  0.45593999997E+02  0.45594000000E+02  0.51100000000E-03 0. -1.
         11   -1    0    0    0    0 -0.00000000000E+00 -0.00000000000E+00 -0.45593999997E+02  0.45594000000E+02  0.51100000000E-03 0.  1.
    9900012    2    1    2    0    0  0.38950306449E+02 -0.83762045091E+01  0.81164219446E+01  0.50528886881E+02  0.30000082162E+02 0.  0.
        -12    1    1    2    0    0 -0.38950306449E+02  0.83762045091E+01 -0.81164219446E+01  0.40659113119E+02  0.00000000000E+00 0.  1.
         11    1    3    3    0    0  0.26051404174E+01  0.44992217263E+01  0.10918246822E+01  0.53124226239E+01  0.51100000000E-03 0. -1.
        -11    1    3    3    0    0  0.74340382998E+01 -0.93945170317E+01  0.10448007439E+02  0.15895997465E+02  0.51100000000E-03 0.  1.
         12    1    3    3    0    0  0.28911127732E+02 -0.34809092036E+01 -0.34234101769E+01  0.29320466791E+02  0.00000000000E+00 0. -1.
</event>
<event>
 7    1  0.5753610E-013  0.5052885E+02  0.7816164E-02  0.1300439E+00
        -11   -1    0    0    0    0  0.00000000000E+00  0.00000000000E+00  0.45593999997E+02  0.45594000000E+02  0.51100000000E-03 0.  1.
         11   -1    0    0    0    0 -0.00000000000E+00 -0.00000000000E+00 -0.45593999997E+02  0.45594000000E+02  0.51100000000E-03 0. -1.
    9900012    2    1    2    0    0  0.12978208839E+02  0.34092122617E+02 -0.17957168491E+02  0.50528848147E+02  0.29999964427E+02 0.  0.
        -12    1    1    2    0    0 -0.12978208839E+02 -0.34092122617E+02  0.17957168491E+02  0.40659151853E+02  0.00000000000E+00 0.  1.
         11    1    3    3    0    0 -0.49258794925E+01  0.88122954644E+01 -0.31361576629E+01  0.10571486427E+02  0.51100000000E-03 0. -1.
        -11    1    3    3    0    0  0.63041129999E+01  0.14042031328E+02  0.32387045522E+01  0.15729262283E+02  0.51100000000E-03 0.  1.
        -12    1    3    3    0    0  0.11599975332E+02  0.11237795825E+02 -0.18059715380E+02  0.24228099436E+02  0.00000000000E+00 0.  1.
</event>
<event>
 7    1  0.5753610E-013  0.5052888E+02  0.7816164E-02  0.1300439E+00
        -11   -1    0    0    0    0  0.00000000000E+00  0.00000000000E+00  0.45593999997E+02  0.45594000000E+02  0.51100000000E-03 0.  1.
         11   -1    0    0    0    0 -0.00000000000E+00 -0.00000000000E+00 -0.45593999997E+02  0.45594000000E+02  0.51100000000E-03 0. -1.
    9900012    2    1    2    0    0  0.21742590393E+02 -0.25527286877E+01 -0.34262328263E+02  0.50528882957E+02  0.30000070235E+02 0.  0.
        -12    1    1    2    0    0 -0.21742590393E+02  0.25527286877E+01  0.34262328263E+02  0.40659117043E+02  0.00000000000E+00 0.  1.
         11    1    3    3    0    0  0.15839762846E+02 -0.49435928239E+01 -0.51466855315E+01  0.17373127791E+02  0.51100000000E-03 0. -1.
        -11    1    3    3    0    0 -0.18882763903E+01 -0.22804545522E+01 -0.33993490089E+00  0.29802041355E+01  0.51100000000E-03 0.  1.
         12    1    3    3    0    0  0.77911039375E+01  0.46713186884E+01 -0.28775707831E+02  0.30175551031E+02  0.00000000000E+00 0. -1.
</event>
<event>
 7    1  0.5819314E-013  0.5052886E+02  0.7816164E-02  0.1300439E+00
        -11   -1    0    0    0    0  0.00000000000E+00  0.00000000000E+00  0.45593999997E+02  0.45594000000E+02  0.51100000000E-03 0.  1.
         11   -1    0    0    0    0 -0.00000000000E+00 -0.00000000000E+00 -0.45593999997E+02  0.45594000000E+02  0.51100000000E-03 0. -1.
    9900012    2    1    2    0    0  0.76837181241E+01 -0.31672318116E+02 -0.24310290974E+02  0.50528861958E+02  0.30000006408E+02 0.  0.
        -12    1    1    2    0    0 -0.76837181241E+01  0.31672318116E+02  0.24310290974E+02  0.40659138042E+02  0.00000000000E+00 0.  1.
         11    1    3    3    0    0  0.69647579067E+00 -0.54859591599E+01 -0.14174560805E+02  0.15215091216E+02  0.51100000000E-03 0. -1.
        -11    1    3    3    0    0 -0.47115439562E+00 -0.21006421896E+02 -0.14205134249E+02  0.25362917549E+02  0.51100000000E-03 0.  1.
        -12    1    3    3    0    0  0.74583967290E+01 -0.51799370605E+01  0.40694040792E+01  0.99508531935E+01  0.00000000000E+00 0.  1.
</event>
<event>
 7    1  0.5753610E-013  0.5052886E+02  0.7816164E-02  0.1300439E+00
        -11   -1    0    0    0    0  0.00000000000E+00  0.00000000000E+00  0.45593999997E+02  0.45594000000E+02  0.51100000000E-03 0.  1.
         11   -1    0    0    0    0 -0.00000000000E+00 -0.00000000000E+00 -0.45593999997E+02  0.45594000000E+02  0.51100000000E-03 0. -1.
    9900012    2    1    2    0    0 -0.22819448221E+02  0.31186766882E+02 -0.12642158838E+02  0.50528858030E+02  0.29999994468E+02 0.  0.
        -12    1    1    2    0    0  0.22819448221E+02 -0.31186766882E+02  0.12642158838E+02  0.40659141970E+02  0.00000000000E+00 0.  1.
         11    1    3    3    0    0 -0.30967059926E+01 -0.13590309041E+01 -0.67302774188E+00  0.34481182702E+01  0.51100000000E-03 0. -1.
        -11    1    3    3    0    0 -0.83617945132E+01  0.23443983747E+02  0.42894465343E+01  0.25257460942E+02  0.51100000000E-03 0.  1.
         12    1    3    3    0    0 -0.11360947715E+02  0.91018140392E+01 -0.16258577631E+02  0.21823278818E+02  0.00000000000E+00 0. -1.
</event>
<event>
 7    1  0.5753610E-013  0.5052886E+02  0.7816164E-02  0.1300439E+00
        -11   -1    0    0    0    0  0.00000000000E+00  0.00000000000E+00  0.45593999997E+02  0.45594000000E+02  0.51100000000E-03 0.  1.
         11   -1    0    0    0    0 -0.00000000000E+00 -0.00000000000E+00 -0.45593999997E+02  0.45594000000E+02  0.51100000000E-03 0. -1.
    9900012    2    1    2    0    0 -0.11536520096E+02 -0.13837551518E+02 -0.36449920301E+02  0.50528858127E+02  0.29999994763E+02 0.  0.
        -12    1    1    2    0    0  0.11536520096E+02  0.13837551518E+02  0.36449920301E+02  0.40659141873E+02  0.00000000000E+00 0.  1.
         11    1    3    3    0    0 -0.92056920432E+01 -0.12442759420E+02 -0.28905165722E+02  0.32788346004E+02  0.51100000000E-03 0. -1.
        -11    1    3    3    0    0 -0.39426825398E+01 -0.72171704777E+01 -0.19463991199E+00  0.82261886843E+01  0.51100000000E-03 0.  1.
         12    1    3    3    0    0  0.16118544872E+01  0.58223783801E+01 -0.73501146663E+01  0.95143234387E+01  0.00000000000E+00 0. -1.
</event>
<event>
 7    1  0.5753610E-013  0.5052887E+02  0.7816164E-02  0.1300439E+00
        -11   -1    0    0    0    0  0.00000000000E+00  0.00000000000E+00  0.45593999997E+02  0.45594000000E+02  0.51100000000E-03 0. -1.
         11   -1    0    0    0    0 -0.00000000000E+00 -0.00000000000E+00 -0.45593999997E+02  0.45594000000E+02  0.51100000000E-03 0.  1.
    9900012    2    1    2    0    0 -0.26461131610E+02  0.28490176292E+02 -0.11886271141E+02  0.50528867289E+02  0.30000022611E+02 0.  0.
        -12    1    1    2    0    0  0.26461131610E+02 -0.28490176292E+02  0.11886271141E+02  0.40659132711E+02  0.00000000000E+00 0.  1.
         11    1    3    3    0    0 -0.10265228143E+02  0.15447198910E+01 -0.71452670411E+01  0.12602218445E+02  0.51100000000E-03 0. -1.
        -11    1    3    3    0    0 -0.19260109529E+02  0.13635860508E+02 -0.42204092151E+00  0.23602258995E+02  0.51100000000E-03 0.  1.
        -12    1    3    3    0    0  0.30642060627E+01  0.13309595892E+02 -0.43189631783E+01  0.14324389849E+02  0.00000000000E+00 0.  1.
</event>
<event>
 7    1  0.5753610E-013  0.5052887E+02  0.7816164E-02  0.1300439E+00
        -11   -1    0    0    0    0  0.00000000000E+00  0.00000000000E+00  0.45593999997E+02  0.45594000000E+02  0.51100000000E-03 0. -1.
         11   -1    0    0    0    0 -0.00000000000E+00 -0.00000000000E+00 -0.45593999997E+02  0.45594000000E+02  0.51100000000E-03 0.  1.
    9900012    2    1    2    0    0  0.13297871645E+02  0.36587519435E+02 -0.11733931926E+02  0.50528866621E+02  0.30000020580E+02 0.  0.
        -12    1    1    2    0    0 -0.13297871645E+02 -0.36587519435E+02  0.11733931926E+02  0.40659133379E+02  0.00000000000E+00 0.  1.
         11    1    3    3    0    0  0.40552331667E+01  0.19434183050E+01  0.43503406404E+01  0.62567767015E+01  0.51100000000E-03 0. -1.
        -11    1    3    3    0    0 -0.31684960280E+01  0.25407688530E+02 -0.80542525129E+01  0.26841404347E+02  0.51100000000E-03 0.  1.
         12    1    3    3    0    0  0.12411134506E+02  0.92364126007E+01 -0.80300200537E+01  0.17430685572E+02  0.00000000000E+00 0. -1.
</event>
<event>
 7    1  0.5753610E-013  0.5052885E+02  0.7816164E-02  0.1300439E+00
        -11   -1    0    0    0    0  0.00000000000E+00  0.00000000000E+00  0.45593999997E+02  0.45594000000E+02  0.51100000000E-03 0.  1.
         11   -1    0    0    0    0 -0.00000000000E+00 -0.00000000000E+00 -0.45593999997E+02  0.45594000000E+02  0.51100000000E-03 0. -1.
    9900012    2    1    2    0    0  0.77714976642E+01  0.24058274530E+02 -0.31842885637E+02  0.50528854473E+02  0.29999983657E+02 0.  0.
        -12    1    1    2    0    0 -0.77714976642E+01 -0.24058274530E+02  0.31842885637E+02  0.40659145527E+02  0.00000000000E+00 0.  1.
         11    1    3    3    0    0  0.20233276478E+01  0.21265860031E+01 -0.12521298742E+02  0.12860759901E+02  0.51100000000E-03 0. -1.
        -11    1    3    3    0    0  0.11318837514E+02  0.38136779751E+01 -0.22407383958E+01  0.12152412567E+02  0.51100000000E-03 0.  1.
        -12    1    3    3    0    0 -0.55706674981E+01  0.18118010552E+02 -0.17080848499E+02  0.25515682005E+02  0.00000000000E+00 0.  1.
</event>
<event>
 7    1  0.5753610E-013  0.5052885E+02  0.7816164E-02  0.1300439E+00
        -11   -1    0    0    0    0  0.00000000000E+00  0.00000000000E+00  0.45593999997E+02  0.45594000000E+02  0.51100000000E-03 0.  1.
         11   -1    0    0    0    0 -0.00000000000E+00 -0.00000000000E+00 -0.45593999997E+02  0.45594000000E+02  0.51100000000E-03 0. -1.
    9900012    2    1    2    0    0 -0.19880991421E+02  0.93514018273E+01 -0.34212048601E+02  0.50528845982E+02  0.29999957847E+02 0.  0.
        -12    1    1    2    0    0  0.19880991421E+02 -0.93514018273E+01  0.34212048601E+02  0.40659154018E+02  0.00000000000E+00 0.  1.
         11    1    3    3    0    0 -0.17394067800E+01 -0.97325878456E+00 -0.18773133994E+02  0.18878647431E+02  0.51100000000E-03 0. -1.
        -11    1    3    3    0    0 -0.47085885978E+01 -0.52277455762E+01 -0.47201792700E+01  0.84723209922E+01  0.51100000000E-03 0.  1.
        -12    1    3    3    0    0 -0.13432996043E+02  0.15552406188E+02 -0.10718735337E+02  0.23177877559E+02  0.00000000000E+00 0.  1.
</event>
<event>
 7    1  0.5753610E-013  0.5052886E+02  0.7816164E-02  0.1300439E+00
        -11   -1    0    0    0    0  0.00000000000E+00  0.00000000000E+00  0.45593999997E+02  0.45594000000E+02  0.51100000000E-03 0. -1.
         11   -1    0    0    0    0 -0.00000000000E+00 -0.00000000000E+00 -0.45593999997E+02  0.45594000000E+02  0.51100000000E-03 0.  1.
    9900012    2    1    2    0    0  0.38110819450E+01 -0.21157147092E+02  0.34511110764E+02  0.50528856074E+02  0.29999988522E+02 0.  0.
        -12    1    1    2    0    0 -0.38110819450E+01  0.21157147092E+02 -0.34511110764E+02  0.40659143926E+02  0.00000000000E+00 0.  1.
         11    1    3    3    0    0 -0.41675372814E+01  0.94645053713E+00  0.88548814255E+01  0.98322459760E+01  0.51100000000E-03 0. -1.
        -11    1    3    3    0    0  0.32028654142E+01 -0.64390891649E+01  0.23010203458E+02  0.24107875883E+02  0.51100000000E-03 0.  1.
        -12    1    3    3    0    0  0.47757538122E+01 -0.15664508464E+02  0.26460258804E+01  0.16588734215E+02  0.00000000000E+00 0.  1.
</event>
<event>
 7    1  0.5753610E-013  0.5052886E+02  0.7816164E-02  0.1300439E+00
        -11   -1    0    0    0    0  0.00000000000E+00  0.00000000000E+00  0.45593999997E+02  0.45594000000E+02  0.51100000000E-03 0.  1.
         11   -1    0    0    0    0 -0.00000000000E+00 -0.00000000000E+00 -0.45593999997E+02  0.45594000000E+02  0.51100000000E-03 0. -1.
    9900012    2    1    2    0    0 -0.68205419471E+01 -0.15441384997E+02 -0.36989318532E+02  0.50528857749E+02  0.29999993615E+02 0.  0.
        -12    1    1    2    0    0  0.68205419471E+01  0.15441384997E+02  0.36989318532E+02  0.40659142251E+02  0.00000000000E+00 0.  1.
         11    1    3    3    0    0 -0.69611647853E+01  0.37611195358E+01 -0.22494125416E+02  0.23845115093E+02  0.51100000000E-03 0. -1.
        -11    1    3    3    0    0  0.26863757882E+01 -0.24856517718E+01  0.95089143429E+00  0.37814381374E+01  0.51100000000E-03 0.  1.
        -12    1    3    3    0    0 -0.25457529499E+01 -0.16716852761E+02 -0.15446084550E+02  0.22902304519E+02  0.00000000000E+00 0.  1.
</event>
<event>
 7    1  0.5753610E-013  0.5052887E+02  0.7816164E-02  0.1300439E+00
        -11   -1    0    0    0    0  0.00000000000E+00  0.00000000000E+00  0.45593999997E+02  0.45594000000E+02  0.51100000000E-03 0.  1.
         11   -1    0    0    0    0 -0.00000000000E+00 -0.00000000000E+00 -0.45593999997E+02  0.45594000000E+02  0.51100000000E-03 0. -1.
    9900012    2    1    2    0    0  0.29622621938E+02  0.57403869852E+01 -0.27252764997E+02  0.50528868514E+02  0.30000026334E+02 0.  0.
        -12    1    1    2    0    0 -0.29622621938E+02 -0.57403869852E+01  0.27252764997E+02  0.40659131486E+02  0.00000000000E+00 0.  1.
         11    1    3    3    0    0  0.19951217880E+02  0.16281721430E+02 -0.21183491106E+02  0.33344952291E+02  0.51100000000E-03 0. -1.
        -11    1    3    3    0    0  0.21096698128E+01 -0.47379784436E+01  0.10438208082E+01  0.52904355767E+01  0.51100000000E-03 0.  1.
        -12    1    3    3    0    0  0.75617342459E+01 -0.58033560008E+01 -0.71130946988E+01  0.11893480646E+02  0.00000000000E+00 0.  1.
</event>
<event>
 7    1  0.5753610E-013  0.5052886E+02  0.7816164E-02  0.1300439E+00
        -11   -1    0    0    0    0  0.00000000000E+00  0.00000000000E+00  0.45593999997E+02  0.45594000000E+02  0.51100000000E-03 0.  1.
         11   -1    0    0    0    0 -0.00000000000E+00 -0.00000000000E+00 -0.45593999997E+02  0.45594000000E+02  0.51100000000E-03 0. -1.
    9900012    2    1    2    0    0 -0.10431053407E+02  0.25092299768E+02 -0.30244588434E+02  0.50528861884E+02  0.30000006182E+02 0.  0.
        -12    1    1    2    0    0  0.10431053407E+02 -0.25092299768E+02  0.30244588434E+02  0.40659138116E+02  0.00000000000E+00 0.  1.
         11    1    3    3    0    0 -0.18028946013E+02  0.12713833230E+02 -0.18833079662E+02  0.29006367224E+02  0.51100000000E-03 0. -1.
        -11    1    3    3    0    0  0.46435043854E+01 -0.34984074736E+00 -0.54256992834E+01  0.71500163987E+01  0.51100000000E-03 0.  1.
        -12    1    3    3    0    0  0.29543882212E+01  0.12728307286E+02 -0.59858094887E+01  0.14372478261E+02  0.00000000000E+00 0.  1.
</event>
<event>
 7    1  0.5753610E-013  0.5052887E+02  0.7816164E-02  0.1300439E+00
        -11   -1    0    0    0    0  0.00000000000E+00  0.00000000000E+00  0.45593999997E+02  0.45594000000E+02  0.51100000000E-03 0. -1.
         11   -1    0    0    0    0 -0.00000000000E+00 -0.00000000000E+00 -0.45593999997E+02  0.45594000000E+02  0.51100000000E-03 0.  1.
    9900012    2    1    2    0    0  0.27099559774E+02 -0.28442436589E+01  0.30177629432E+02  0.50528865971E+02  0.30000018604E+02 0.  0.
        -12    1    1    2    0    0 -0.27099559774E+02  0.28442436589E+01 -0.30177629432E+02  0.40659134029E+02  0.00000000000E+00 0.  1.
         11    1    3    3    0    0 -0.24089809481E+01 -0.29847876655E+01 -0.41513009436E+00  0.38580409372E+01  0.51100000000E-03 0. -1.
        -11    1    3    3    0    0  0.15905938091E+02 -0.86148037328E+01  0.10647429357E+02  0.20990032446E+02  0.51100000000E-03 0.  1.
        -12    1    3    3    0    0  0.13602602631E+02  0.87553477393E+01  0.19945330169E+02  0.25680792588E+02  0.00000000000E+00 0.  1.
</event>
<event>
 7    1  0.5753610E-013  0.5052883E+02  0.7816164E-02  0.1300439E+00
        -11   -1    0    0    0    0  0.00000000000E+00  0.00000000000E+00  0.45593999997E+02  0.45594000000E+02  0.51100000000E-03 0.  1.
         11   -1    0    0    0    0 -0.00000000000E+00 -0.00000000000E+00 -0.45593999997E+02  0.45594000000E+02  0.51100000000E-03 0. -1.
    9900012    2    1    2    0    0  0.10071716949E+02 -0.12521234745E+02 -0.37348989170E+02  0.50528833827E+02  0.29999920901E+02 0.  0.
        -12    1    1    2    0    0 -0.10071716949E+02  0.12521234745E+02  0.37348989170E+02  0.40659166173E+02  0.00000000000E+00 0.  1.
         11    1    3    3    0    0  0.56668948640E+01 -0.49298630061E+01 -0.32957015943E+01  0.82023713595E+01  0.51100000000E-03 0. -1.
        -11    1    3    3    0    0 -0.95499732123E+01 -0.13734763754E+01 -0.10572515488E+02  0.14313158621E+02  0.51100000000E-03 0.  1.
         12    1    3    3    0    0  0.13954795297E+02 -0.62178953637E+01 -0.23480772088E+02  0.28013303847E+02  0.00000000000E+00 0. -1.
</event>
<event>
 7    1  0.5753610E-013  0.5052885E+02  0.7816164E-02  0.1300439E+00
        -11   -1    0    0    0    0  0.00000000000E+00  0.00000000000E+00  0.45593999997E+02  0.45594000000E+02  0.51100000000E-03 0. -1.
         11   -1    0    0    0    0 -0.00000000000E+00 -0.00000000000E+00 -0.45593999997E+02  0.45594000000E+02  0.51100000000E-03 0.  1.
    9900012    2    1    2    0    0  0.56341627244E+01  0.40261949604E+02  0.63126211042E+00  0.50528845220E+02  0.29999955532E+02 0.  0.
        -12    1    1    2    0    0 -0.56341627244E+01 -0.40261949604E+02 -0.63126211042E+00  0.40659154780E+02  0.00000000000E+00 0.  1.
         11    1    3    3    0    0 -0.64336468151E+01  0.67111407059E+01  0.36850035743E+01  0.10000523612E+02  0.51100000000E-03 0. -1.
        -11    1    3    3    0    0  0.11229107484E+00  0.24716689645E+01 -0.65924515022E+01  0.70414610576E+01  0.51100000000E-03 0.  1.
         12    1    3    3    0    0  0.11955518465E+02  0.31079139934E+02  0.35387100383E+01  0.33486860550E+02  0.00000000000E+00 0. -1.
</event>
<event>
 7    1  0.5753610E-013  0.5052886E+02  0.7816164E-02  0.1300439E+00
        -11   -1    0    0    0    0  0.00000000000E+00  0.00000000000E+00  0.45593999997E+02  0.45594000000E+02  0.51100000000E-03 0. -1.
         11   -1    0    0    0    0 -0.00000000000E+00 -0.00000000000E+00 -0.45593999997E+02  0.45594000000E+02  0.51100000000E-03 0.  1.
    9900012    2    1    2    0    0 -0.59183557841E+01 -0.37921729315E+02  0.13419445663E+02  0.50528855747E+02  0.29999987529E+02 0.  0.
        -12    1    1    2    0    0  0.59183557841E+01  0.37921729315E+02 -0.13419445663E+02  0.40659144253E+02  0.00000000000E+00 0.  1.
         11    1    3    3    0    0  0.73383054698E+01 -0.18829333383E+02  0.16727505168E+02  0.26233641612E+02  0.51100000000E-03 0. -1.
        -11    1    3    3    0    0 -0.33568246257E+00 -0.42569236235E+01 -0.15526180871E+01  0.45436444225E+01  0.51100000000E-03 0.  1.
        -12    1    3    3    0    0 -0.12920978791E+02 -0.14835472309E+02 -0.17554414178E+01  0.19751569713E+02  0.00000000000E+00 0.  1.
</event>
<event>
 7    1  0.5753610E-013  0.5052899E+02  0.7816164E-02  0.1300438E+00
        -11   -1    0    0    0    0  0.00000000000E+00  0.00000000000E+00  0.45593999997E+02  0.45594000000E+02  0.51100000000E-03 0.  1.
         11   -1    0    0    0    0 -0.00000000000E+00 -0.00000000000E+00 -0.45593999997E+02  0.45594000000E+02  0.51100000000E-03 0. -1.
    9900012    2    1    2    0    0 -0.14537347806E+02  0.34699451528E+02 -0.15419742290E+02  0.50528992758E+02  0.30000403985E+02 0.  0.
        -12    1    1    2    0    0  0.14537347806E+02 -0.34699451528E+02  0.15419742290E+02  0.40659007242E+02  0.00000000000E+00 0.  1.
         11    1    3    3    0    0 -0.57703253020E+01  0.38525067318E+01 -0.35291512252E+01  0.77841743840E+01  0.51100000000E-03 0. -1.
        -11    1    3    3    0    0 -0.11750840584E+02  0.27535070133E+02  0.11550753065E+00  0.29937863717E+02  0.51100000000E-03 0.  1.
        -12    1    3    3    0    0  0.29838180798E+01  0.33118746633E+01 -0.12006098595E+02  0.12806954658E+02  0.00000000000E+00 0.  1.
</event>
<event>
 7    1  0.5753610E-013  0.5052886E+02  0.7816164E-02  0.1300439E+00
        -11   -1    0    0    0    0  0.00000000000E+00  0.00000000000E+00  0.45593999997E+02  0.45594000000E+02  0.51100000000E-03 0.  1.
         11   -1    0    0    0    0 -0.00000000000E+00 -0.00000000000E+00 -0.45593999997E+02  0.45594000000E+02  0.51100000000E-03 0. -1.
    9900012    2    1    2    0    0 -0.40408823858E+02 -0.20098231165E+01 -0.40314928897E+01  0.50528863641E+02  0.30000011522E+02 0.  0.
        -12    1    1    2    0    0  0.40408823858E+02  0.20098231165E+01  0.40314928897E+01  0.40659136359E+02  0.00000000000E+00 0.  1.
         11    1    3    3    0    0 -0.16213113833E+02 -0.26424211329E+01 -0.65144697573E+01  0.17671609041E+02  0.51100000000E-03 0. -1.
        -11    1    3    3    0    0 -0.16820015638E+02  0.32524884217E+01 -0.86945849737E+01  0.19211647902E+02  0.51100000000E-03 0.  1.
        -12    1    3    3    0    0 -0.73756943875E+01 -0.26198904054E+01  0.11177561841E+02  0.13645606698E+02  0.00000000000E+00 0.  1.
</event>
<event>
 7    1  0.5753610E-013  0.5052886E+02  0.7816164E-02  0.1300439E+00
        -11   -1    0    0    0    0  0.00000000000E+00  0.00000000000E+00  0.45593999997E+02  0.45594000000E+02  0.51100000000E-03 0.  1.
         11   -1    0    0    0    0 -0.00000000000E+00 -0.00000000000E+00 -0.45593999997E+02  0.45594000000E+02  0.51100000000E-03 0. -1.
    9900012    2    1    2    0    0 -0.74216399415E+01 -0.51789049789E+01 -0.39639173996E+02  0.50528856978E+02  0.29999991270E+02 0.  0.
        -12    1    1    2    0    0  0.74216399415E+01  0.51789049789E+01  0.39639173996E+02  0.40659143022E+02  0.00000000000E+00 0.  1.
         11    1    3    3    0    0 -0.54828943556E+01 -0.17164525031E+01 -0.13496654058E+02  0.14668606299E+02  0.51100000000E-03 0. -1.
        -11    1    3    3    0    0 -0.10730634463E+02  0.32220514991E+01 -0.55735903139E+01  0.12513714120E+02  0.51100000000E-03 0.  1.
        -12    1    3    3    0    0  0.87918888770E+01 -0.66845039749E+01 -0.20568929624E+02  0.23346536559E+02  0.00000000000E+00 0.  1.
</event>
<event>
 7    1  0.5753610E-013  0.5052886E+02  0.7816164E-02  0.1300439E+00
        -11   -1    0    0    0    0  0.00000000000E+00  0.00000000000E+00  0.45593999997E+02  0.45594000000E+02  0.51100000000E-03 0.  1.
         11   -1    0    0    0    0 -0.00000000000E+00 -0.00000000000E+00 -0.45593999997E+02  0.45594000000E+02  0.51100000000E-03 0. -1.
    9900012    2    1    2    0    0  0.60319255919E+01  0.39150908236E+02 -0.91644942088E+01  0.50528859623E+02  0.29999999311E+02 0.  0.
        -12    1    1    2    0    0 -0.60319255919E+01 -0.39150908236E+02  0.91644942088E+01  0.40659140377E+02  0.00000000000E+00 0.  1.
         11    1    3    3    0    0  0.54767034658E+00  0.86661846685E+01 -0.97953069919E+01  0.13090100796E+02  0.51100000000E-03 0. -1.
        -11    1    3    3    0    0 -0.20619230862E-02  0.57043969479E+01 -0.86950497777E+01  0.10399232649E+02  0.51100000000E-03 0.  1.
        -12    1    3    3    0    0  0.54863171684E+01  0.24780326620E+02  0.93258625608E+01  0.27039526179E+02  0.00000000000E+00 0.  1.
</event>
<event>
 7    1  0.5753610E-013  0.5052886E+02  0.7816164E-02  0.1300439E+00
        -11   -1    0    0    0    0  0.00000000000E+00  0.00000000000E+00  0.45593999997E+02  0.45594000000E+02  0.51100000000E-03 0.  1.
         11   -1    0    0    0    0 -0.00000000000E+00 -0.00000000000E+00 -0.45593999997E+02  0.45594000000E+02  0.51100000000E-03 0. -1.
    9900012    2    1    2    0    0 -0.77407220566E+01 -0.65564711665E+01 -0.39373339683E+02  0.50528856257E+02  0.29999989078E+02 0.  0.
        -12    1    1    2    0    0  0.77407220566E+01  0.65564711665E+01  0.39373339683E+02  0.40659143743E+02  0.00000000000E+00 0.  1.
         11    1    3    3    0    0 -0.16967378503E+01  0.30905633458E+01 -0.73021939190E+01  0.81087938326E+01  0.51100000000E-03 0. -1.
        -11    1    3    3    0    0 -0.13932812489E+02 -0.57255445567E+01 -0.85896319979E+01  0.17340325904E+02  0.51100000000E-03 0.  1.
         12    1    3    3    0    0  0.78888282831E+01 -0.39214899555E+01 -0.23481513767E+02  0.25079736520E+02  0.00000000000E+00 0. -1.
</event>
<event>
 7    1  0.5753610E-013  0.5052886E+02  0.7816164E-02  0.1300439E+00
        -11   -1    0    0    0    0  0.00000000000E+00  0.00000000000E+00  0.45593999997E+02  0.45594000000E+02  0.51100000000E-03 0.  1.
         11   -1    0    0    0    0 -0.00000000000E+00 -0.00000000000E+00 -0.45593999997E+02  0.45594000000E+02  0.51100000000E-03 0. -1.
    9900012    2    1    2    0    0 -0.32266599080E+02 -0.24733945512E+02 -0.51363714753E+00  0.50528864496E+02  0.30000014123E+02 0.  0.
        -12    1    1    2    0    0  0.32266599080E+02  0.24733945512E+02  0.51363714753E+00  0.40659135504E+02  0.00000000000E+00 0.  1.
         11    1    3    3    0    0 -0.96083299156E+01 -0.61066666462E+01  0.57595614669E+01  0.12758680568E+02  0.51100000000E-03 0. -1.
        -11    1    3    3    0    0  0.46572546756E+01 -0.26541697875E+01  0.58570552659E+00  0.53923732808E+01  0.51100000000E-03 0.  1.
         12    1    3    3    0    0 -0.27315523840E+02 -0.15973109078E+02 -0.68589041410E+01  0.32377810647E+02  0.00000000000E+00 0. -1.
</event>
<event>
 7    1  0.5753610E-013  0.5052886E+02  0.7816164E-02  0.1300439E+00
        -11   -1    0    0    0    0  0.00000000000E+00  0.00000000000E+00  0.45593999997E+02  0.45594000000E+02  0.51100000000E-03 0.  1.
         11   -1    0    0    0    0 -0.00000000000E+00 -0.00000000000E+00 -0.45593999997E+02  0.45594000000E+02  0.51100000000E-03 0. -1.
    9900012    2    1    2    0    0  0.15028597365E+02 -0.24679808986E+02 -0.28604443244E+02  0.50528857318E+02  0.29999992305E+02 0.  0.
        -12    1    1    2    0    0 -0.15028597365E+02  0.24679808986E+02  0.28604443244E+02  0.40659142682E+02  0.00000000000E+00 0.  1.
         11    1    3    3    0    0  0.13227975263E+02 -0.48260132688E+01 -0.52378274675E+01  0.15023467325E+02  0.51100000000E-03 0. -1.
        -11    1    3    3    0    0 -0.75629432689E-01  0.20658663055E+01  0.13088831316E+01  0.24467731232E+01  0.51100000000E-03 0.  1.
         12    1    3    3    0    0  0.18762515343E+01 -0.21919662023E+02 -0.24675498908E+02  0.33058616870E+02  0.00000000000E+00 0. -1.
</event>
<event>
 7    1  0.5753610E-013  0.5052884E+02  0.7816164E-02  0.1300439E+00
        -11   -1    0    0    0    0  0.00000000000E+00  0.00000000000E+00  0.45593999997E+02  0.45594000000E+02  0.51100000000E-03 0.  1.
         11   -1    0    0    0    0 -0.00000000000E+00 -0.00000000000E+00 -0.45593999997E+02  0.45594000000E+02  0.51100000000E-03 0. -1.
    9900012    2    1    2    0    0 -0.46223590324E+01 -0.33040484678E+02 -0.23240646846E+02  0.50528837483E+02  0.29999932012E+02 0.  0.
        -12    1    1    2    0    0  0.46223590324E+01  0.33040484678E+02  0.23240646846E+02  0.40659162517E+02  0.00000000000E+00 0.  1.
         11    1    3    3    0    0  0.19131165351E+01  0.11218983840E+01 -0.59557359828E+01  0.63552704284E+01  0.51100000000E-03 0. -1.
        -11    1    3    3    0    0  0.30609969325E+01 -0.15580168937E+02 -0.16994326040E+02  0.23257654313E+02  0.51100000000E-03 0.  1.
        -12    1    3    3    0    0 -0.95964725001E+01 -0.18582214125E+02 -0.29058482245E+00  0.20915912741E+02  0.00000000000E+00 0.  1.
</event>
<event>
 7    1  0.5753610E-013  0.5052885E+02  0.7816164E-02  0.1300439E+00
        -11   -1    0    0    0    0  0.00000000000E+00  0.00000000000E+00  0.45593999997E+02  0.45594000000E+02  0.51100000000E-03 0. -1.
         11   -1    0    0    0    0 -0.00000000000E+00 -0.00000000000E+00 -0.45593999997E+02  0.45594000000E+02  0.51100000000E-03 0.  1.
    9900012    2    1    2    0    0 -0.12767145119E+02  0.38588519413E+02 -0.10453752850E+01  0.50528848085E+02  0.29999964238E+02 0.  0.
        -12    1    1    2    0    0  0.12767145119E+02 -0.38588519413E+02  0.10453752850E+01  0.40659151915E+02  0.00000000000E+00 0.  1.
         11    1    3    3    0    0 -0.50323033109E+01 -0.24926276006E+01  0.35413507427E+01  0.66391591570E+01  0.51100000000E-03 0. -1.
        -11    1    3    3    0    0 -0.35728584127E+01  0.39559472440E+01  0.24638295003E+01  0.58724178923E+01  0.51100000000E-03 0.  1.
         12    1    3    3    0    0 -0.41619833959E+01  0.37125199770E+02 -0.70505555280E+01  0.38017271035E+02  0.00000000000E+00 0. -1.
</event>
<event>
 7    1  0.5753610E-013  0.5052886E+02  0.7816164E-02  0.1300439E+00
        -11   -1    0    0    0    0  0.00000000000E+00  0.00000000000E+00  0.45593999997E+02  0.45594000000E+02  0.51100000000E-03 0. -1.
         11   -1    0    0    0    0 -0.00000000000E+00 -0.00000000000E+00 -0.45593999997E+02  0.45594000000E+02  0.51100000000E-03 0.  1.
    9900012    2    1    2    0    0 -0.43133347468E+01  0.13855034534E+02  0.37981561422E+02  0.50528857773E+02  0.29999993686E+02 0.  0.
        -12    1    1    2    0    0  0.43133347468E+01 -0.13855034534E+02 -0.37981561422E+02  0.40659142227E+02  0.00000000000E+00 0.  1.
         11    1    3    3    0    0  0.11306233955E+01  0.47709233637E+01 -0.62753208071E+00  0.49430573311E+01  0.51100000000E-03 0. -1.
        -11    1    3    3    0    0  0.13088114974E+01  0.45409937649E+01 -0.12628582920E+01  0.48916687577E+01  0.51100000000E-03 0.  1.
         12    1    3    3    0    0 -0.67527696397E+01  0.45431174058E+01  0.39871951795E+02  0.40694131684E+02  0.00000000000E+00 0. -1.
</event>
<event>
 7    1  0.5753610E-013  0.5052892E+02  0.7816164E-02  0.1300439E+00
        -11   -1    0    0    0    0  0.00000000000E+00  0.00000000000E+00  0.45593999997E+02  0.45594000000E+02  0.51100000000E-03 0.  1.
         11   -1    0    0    0    0 -0.00000000000E+00 -0.00000000000E+00 -0.45593999997E+02  0.45594000000E+02  0.51100000000E-03 0. -1.
    9900012    2    1    2    0    0 -0.28468071287E+02 -0.29017402187E+02  0.84873073732E+00  0.50528916681E+02  0.30000172743E+02 0.  0.
        -12    1    1    2    0    0  0.28468071287E+02  0.29017402187E+02 -0.84873073732E+00  0.40659083319E+02  0.00000000000E+00 0.  1.
         11    1    3    3    0    0 -0.10330775620E+02  0.16463354663E+01 -0.11024808450E+01  0.10519068859E+02  0.51100000000E-03 0. -1.
        -11    1    3    3    0    0 -0.14260209239E+01 -0.66594195137E+01  0.76170127594E+01  0.10217645892E+02  0.51100000000E-03 0.  1.
        -12    1    3    3    0    0 -0.16711274744E+02 -0.24004318139E+02 -0.56658011770E+01  0.29792201930E+02  0.00000000000E+00 0.  1.
</event>
<event>
 7    1  0.5753610E-013  0.5052886E+02  0.7816164E-02  0.1300439E+00
        -11   -1    0    0    0    0  0.00000000000E+00  0.00000000000E+00  0.45593999997E+02  0.45594000000E+02  0.51100000000E-03 0.  1.
         11   -1    0    0    0    0 -0.00000000000E+00 -0.00000000000E+00 -0.45593999997E+02  0.45594000000E+02  0.51100000000E-03 0. -1.
    9900012    2    1    2    0    0  0.95339401619E+01 -0.10494151586E+02 -0.38106986828E+02  0.50528859851E+02  0.30000000004E+02 0.  0.
        -12    1    1    2    0    0 -0.95339401619E+01  0.10494151586E+02  0.38106986828E+02  0.40659140149E+02  0.00000000000E+00 0.  1.
         11    1    3    3    0    0  0.44291318499E+01 -0.12248060777E+01 -0.49827720855E+01  0.67783019104E+01  0.51100000000E-03 0.  1.
        -11    1    3    3    0    0 -0.65937971596E+01 -0.10242125660E+02 -0.48047355069E+01  0.13094456177E+02  0.51100000000E-03 0. -1.
         12    1    3    3    0    0  0.11698605472E+02  0.97278015169E+00 -0.28319479236E+02  0.30656101764E+02  0.00000000000E+00 0. -1.
</event>
<event>
 7    1  0.5753610E-013  0.5052886E+02  0.7816164E-02  0.1300439E+00
        -11   -1    0    0    0    0  0.00000000000E+00  0.00000000000E+00  0.45593999997E+02  0.45594000000E+02  0.51100000000E-03 0.  1.
         11   -1    0    0    0    0 -0.00000000000E+00 -0.00000000000E+00 -0.45593999997E+02  0.45594000000E+02  0.51100000000E-03 0. -1.
    9900012    2    1    2    0    0  0.32827528624E+02 -0.23156654585E+02 -0.62680745076E+01  0.50528855331E+02  0.29999986266E+02 0.  0.
        -12    1    1    2    0    0 -0.32827528624E+02  0.23156654585E+02  0.62680745076E+01  0.40659144669E+02  0.00000000000E+00 0.  1.
         11    1    3    3    0    0  0.12793490016E+02 -0.91792127694E+01 -0.11632323961E+02  0.19576575156E+02  0.51100000000E-03 0. -1.
        -11    1    3    3    0    0  0.16415139440E+02 -0.18472284589E+02  0.42364791010E+01  0.25072492022E+02  0.51100000000E-03 0.  1.
         12    1    3    3    0    0  0.36188991685E+01  0.44948427738E+01  0.11277703524E+01  0.58797881527E+01  0.00000000000E+00 0. -1.
</event>
<event>
 7    1  0.5753610E-013  0.5052883E+02  0.7816164E-02  0.1300439E+00
        -11   -1    0    0    0    0  0.00000000000E+00  0.00000000000E+00  0.45593999997E+02  0.45594000000E+02  0.51100000000E-03 0. -1.
         11   -1    0    0    0    0 -0.00000000000E+00 -0.00000000000E+00 -0.45593999997E+02  0.45594000000E+02  0.51100000000E-03 0.  1.
    9900012    2    1    2    0    0 -0.33459619795E+02  0.38724357526E+00  0.23097005978E+02  0.50528833758E+02  0.29999920690E+02 0.  0.
        -12    1    1    2    0    0  0.33459619795E+02 -0.38724357526E+00 -0.23097005978E+02  0.40659166242E+02  0.00000000000E+00 0.  1.
         11    1    3    3    0    0 -0.16308726322E+02  0.80045143729E+01  0.19713491801E+02  0.26807994402E+02  0.51100000000E-03 0. -1.
        -11    1    3    3    0    0 -0.10130763730E+02  0.31482948291E+01  0.19844591587E+01  0.10792692550E+02  0.51100000000E-03 0.  1.
        -12    1    3    3    0    0 -0.70201297433E+01 -0.10765565627E+02  0.13990550175E+01  0.12928146805E+02  0.00000000000E+00 0.  1.
</event>
<event>
 7    1  0.1369032E-012  0.5052884E+02  0.7816164E-02  0.1300439E+00
        -11   -1    0    0    0    0  0.00000000000E+00  0.00000000000E+00  0.45593999997E+02  0.45594000000E+02  0.51100000000E-03 0. -1.
         11   -1    0    0    0    0 -0.00000000000E+00 -0.00000000000E+00 -0.45593999997E+02  0.45594000000E+02  0.51100000000E-03 0.  1.
    9900012    2    1    2    0    0 -0.16624926663E+02 -0.16596733361E+02  0.33186250575E+02  0.50528843934E+02  0.29999951622E+02 0.  0.
        -12    1    1    2    0    0  0.16624926663E+02  0.16596733361E+02 -0.33186250575E+02  0.40659156066E+02  0.00000000000E+00 0.  1.
         11    1    3    3    0    0 -0.58081137793E+01 -0.60560847912E+01  0.22597824005E+02  0.24105435045E+02  0.51100000000E-03 0. -1.
        -11    1    3    3    0    0  0.52298797758E+01 -0.25471568855E+01  0.49269542023E+01  0.76232885713E+01  0.51100000000E-03 0.  1.
        -12    1    3    3    0    0 -0.16046692659E+02 -0.79934916843E+01  0.56614723675E+01  0.18800120318E+02  0.00000000000E+00 0.  1.
</event>
<event>
 7    1  0.5753610E-013  0.5052886E+02  0.7816164E-02  0.1300439E+00
        -11   -1    0    0    0    0  0.00000000000E+00  0.00000000000E+00  0.45593999997E+02  0.45594000000E+02  0.51100000000E-03 0.  1.
         11   -1    0    0    0    0 -0.00000000000E+00 -0.00000000000E+00 -0.45593999997E+02  0.45594000000E+02  0.51100000000E-03 0. -1.
    9900012    2    1    2    0    0 -0.12107649747E+02 -0.24251419748E+02 -0.30305760816E+02  0.50528859812E+02  0.29999999884E+02 0.  0.
        -12    1    1    2    0    0  0.12107649747E+02  0.24251419748E+02  0.30305760816E+02  0.40659140188E+02  0.00000000000E+00 0.  1.
         11    1    3    3    0    0 -0.98030892387E+01 -0.39976643545E+00 -0.82225124474E+01  0.12801175065E+02  0.51100000000E-03 0. -1.
        -11    1    3    3    0    0 -0.63194876831E+01 -0.13885074570E+02 -0.25964996250E+01  0.15474916186E+02  0.51100000000E-03 0.  1.
         12    1    3    3    0    0  0.40149271746E+01 -0.99665787428E+01 -0.19486748744E+02  0.22252768562E+02  0.00000000000E+00 0. -1.
</event>
<event>
 7    1  0.5753610E-013  0.5052888E+02  0.7816164E-02  0.1300439E+00
        -11   -1    0    0    0    0  0.00000000000E+00  0.00000000000E+00  0.45593999997E+02  0.45594000000E+02  0.51100000000E-03 0.  1.
         11   -1    0    0    0    0 -0.00000000000E+00 -0.00000000000E+00 -0.45593999997E+02  0.45594000000E+02  0.51100000000E-03 0. -1.
    9900012    2    1    2    0    0  0.87014491260E+01 -0.31394413143E+02 -0.24327761445E+02  0.50528875927E+02  0.30000048867E+02 0.  0.
        -12    1    1    2    0    0 -0.87014491260E+01  0.31394413143E+02  0.24327761445E+02  0.40659124073E+02  0.00000000000E+00 0.  1.
         11    1    3    3    0    0 -0.62677927249E+01 -0.11792911111E+02 -0.12579941946E+02  0.18347013865E+02  0.51100000000E-03 0.  1.
        -11    1    3    3    0    0  0.30395072210E+01 -0.17602560349E+02 -0.71818116661E+01  0.19252718095E+02  0.51100000000E-03 0. -1.
         12    1    3    3    0    0  0.11929734630E+02 -0.19989416836E+01 -0.45660078324E+01  0.12929143967E+02  0.00000000000E+00 0. -1.
</event>
<event>
 7    1  0.5753610E-013  0.5052886E+02  0.7816164E-02  0.1300439E+00
        -11   -1    0    0    0    0  0.00000000000E+00  0.00000000000E+00  0.45593999997E+02  0.45594000000E+02  0.51100000000E-03 0.  1.
         11   -1    0    0    0    0 -0.00000000000E+00 -0.00000000000E+00 -0.45593999997E+02  0.45594000000E+02  0.51100000000E-03 0. -1.
    9900012    2    1    2    0    0 -0.10508344339E+02  0.20291573369E+02 -0.33630232425E+02  0.50528858549E+02  0.29999996046E+02 0.  0.
        -12    1    1    2    0    0  0.10508344339E+02 -0.20291573369E+02  0.33630232425E+02  0.40659141451E+02  0.00000000000E+00 0.  1.
         11    1    3    3    0    0  0.94263614694E+00  0.20782881984E+02 -0.24831727187E+02  0.32394928952E+02  0.51100000000E-03 0.  1.
        -11    1    3    3    0    0 -0.49406194960E+01  0.48178007444E+01 -0.16306131195E+01  0.70908267799E+01  0.51100000000E-03 0. -1.
        -12    1    3    3    0    0 -0.65103609898E+01 -0.53091093591E+01 -0.71678921190E+01  0.11043102817E+02  0.00000000000E+00 0.  1.
</event>
<event>
 7    1  0.5753610E-013  0.5052886E+02  0.7816164E-02  0.1300439E+00
        -11   -1    0    0    0    0  0.00000000000E+00  0.00000000000E+00  0.45593999997E+02  0.45594000000E+02  0.51100000000E-03 0. -1.
         11   -1    0    0    0    0 -0.00000000000E+00 -0.00000000000E+00 -0.45593999997E+02  0.45594000000E+02  0.51100000000E-03 0.  1.
    9900012    2    1    2    0    0  0.18401545105E+02  0.32834658895E+02  0.15376419650E+02  0.50528856277E+02  0.29999989140E+02 0.  0.
        -12    1    1    2    0    0 -0.18401545105E+02 -0.32834658895E+02 -0.15376419650E+02  0.40659143723E+02  0.00000000000E+00 0.  1.
         11    1    3    3    0    0  0.44682689973E-01  0.92799194651E+01  0.11290326772E+01  0.93484553199E+01  0.51100000000E-03 0. -1.
        -11    1    3    3    0    0  0.14592258622E+01  0.93960965352E+01 -0.60036564031E+01  0.11245437327E+02  0.51100000000E-03 0.  1.
         12    1    3    3    0    0  0.16897636553E+02  0.14158642894E+02  0.20251043376E+02  0.29934963630E+02  0.00000000000E+00 0. -1.
</event>
<event>
 7    1  0.5753610E-013  0.5052886E+02  0.7816164E-02  0.1300439E+00
        -11   -1    0    0    0    0  0.00000000000E+00  0.00000000000E+00  0.45593999997E+02  0.45594000000E+02  0.51100000000E-03 0. -1.
         11   -1    0    0    0    0 -0.00000000000E+00 -0.00000000000E+00 -0.45593999997E+02  0.45594000000E+02  0.51100000000E-03 0.  1.
    9900012    2    1    2    0    0  0.37611834808E+02  0.56494730516E+01  0.14373553291E+02  0.50528859606E+02  0.29999999257E+02 0.  0.
        -12    1    1    2    0    0 -0.37611834808E+02 -0.56494730516E+01 -0.14373553291E+02  0.40659140394E+02  0.00000000000E+00 0.  1.
         11    1    3    3    0    0  0.48414346596E+01  0.20114758017E+01  0.61111651745E+01  0.80518236764E+01  0.51100000000E-03 0. -1.
        -11    1    3    3    0    0 -0.26856851885E+01  0.23924249735E+01 -0.35800526580E+01  0.50747787617E+01  0.51100000000E-03 0.  1.
        -12    1    3    3    0    0  0.35456085337E+02  0.12455722764E+01  0.11842440774E+02  0.37402257167E+02  0.00000000000E+00 0.  1.
</event>
<event>
 7    1  0.5753610E-013  0.5052886E+02  0.7816164E-02  0.1300439E+00
        -11   -1    0    0    0    0  0.00000000000E+00  0.00000000000E+00  0.45593999997E+02  0.45594000000E+02  0.51100000000E-03 0. -1.
         11   -1    0    0    0    0 -0.00000000000E+00 -0.00000000000E+00 -0.45593999997E+02  0.45594000000E+02  0.51100000000E-03 0.  1.
    9900012    2    1    2    0    0  0.54612456042E+01 -0.24557044221E+02  0.31942015093E+02  0.50528856470E+02  0.29999989726E+02 0.  0.
        -12    1    1    2    0    0 -0.54612456042E+01  0.24557044221E+02 -0.31942015093E+02  0.40659143530E+02  0.00000000000E+00 0.  1.
         11    1    3    3    0    0  0.50813055778E+01 -0.12534643190E+02  0.79553337843E+01  0.15691535367E+02  0.51100000000E-03 0. -1.
        -11    1    3    3    0    0  0.76850536186E+01 -0.41656910206E+01  0.22332576278E+02  0.23982430950E+02  0.51100000000E-03 0.  1.
         12    1    3    3    0    0 -0.73051135923E+01 -0.78567100100E+01  0.16541050299E+01  0.10854890153E+02  0.00000000000E+00 0. -1.
</event>
<event>
 7    1  0.5753610E-013  0.5052886E+02  0.7816164E-02  0.1300439E+00
        -11   -1    0    0    0    0  0.00000000000E+00  0.00000000000E+00  0.45593999997E+02  0.45594000000E+02  0.51100000000E-03 0.  1.
         11   -1    0    0    0    0 -0.00000000000E+00 -0.00000000000E+00 -0.45593999997E+02  0.45594000000E+02  0.51100000000E-03 0. -1.
    9900012    2    1    2    0    0 -0.61136641780E+01 -0.30183832790E+02 -0.26546653882E+02  0.50528862234E+02  0.30000007246E+02 0.  0.
        -12    1    1    2    0    0  0.61136641780E+01  0.30183832790E+02  0.26546653882E+02  0.40659137766E+02  0.00000000000E+00 0.  1.
         11    1    3    3    0    0  0.64981305533E+01 -0.64582420945E+01 -0.11887031753E+02  0.15007868463E+02  0.51100000000E-03 0.  1.
        -11    1    3    3    0    0  0.39516321262E+01 -0.19452473652E+01 -0.45970046223E+01  0.63664617749E+01  0.51100000000E-03 0. -1.
        -12    1    3    3    0    0 -0.16563426857E+02 -0.21780343330E+02 -0.10062617507E+02  0.29154531996E+02  0.00000000000E+00 0.  1.
</event>
<event>
 7    1  0.5753610E-013  0.5052887E+02  0.7816164E-02  0.1300439E+00
        -11   -1    0    0    0    0  0.00000000000E+00  0.00000000000E+00  0.45593999997E+02  0.45594000000E+02  0.51100000000E-03 0.  1.
         11   -1    0    0    0    0 -0.00000000000E+00 -0.00000000000E+00 -0.45593999997E+02  0.45594000000E+02  0.51100000000E-03 0. -1.
    9900012    2    1    2    0    0 -0.34292852162E+01 -0.83026126519E+01 -0.39654403473E+02  0.50528867093E+02  0.30000022015E+02 0.  0.
        -12    1    1    2    0    0  0.34292852162E+01  0.83026126519E+01  0.39654403473E+02  0.40659132907E+02  0.00000000000E+00 0.  1.
         11    1    3    3    0    0  0.44047064028E+01  0.13813370522E+01 -0.17663201749E+02  0.18256457127E+02  0.51100000000E-03 0. -1.
        -11    1    3    3    0    0 -0.50263409757E+01 -0.81628883738E+01 -0.25669699502E+02  0.27401283237E+02  0.51100000000E-03 0.  1.
        -12    1    3    3    0    0 -0.28076506433E+01 -0.15210613303E+01  0.36784977783E+01  0.48711267290E+01  0.00000000000E+00 0.  1.
</event>
<event>
 7    1  0.5753610E-013  0.5052886E+02  0.7816164E-02  0.1300439E+00
        -11   -1    0    0    0    0  0.00000000000E+00  0.00000000000E+00  0.45593999997E+02  0.45594000000E+02  0.51100000000E-03 0. -1.
         11   -1    0    0    0    0 -0.00000000000E+00 -0.00000000000E+00 -0.45593999997E+02  0.45594000000E+02  0.51100000000E-03 0.  1.
    9900012    2    1    2    0    0  0.12834343122E+01 -0.93369543972E-01  0.40638770099E+02  0.50528861339E+02  0.30000004526E+02 0.  0.
        -12    1    1    2    0    0 -0.12834343122E+01  0.93369543972E-01 -0.40638770099E+02  0.40659138661E+02  0.00000000000E+00 0.  1.
         11    1    3    3    0    0 -0.84800952217E+01  0.47412853522E+01  0.22244453531E+02  0.24273597074E+02  0.51100000000E-03 0. -1.
        -11    1    3    3    0    0  0.63972024771E+01  0.50230241192E+01  0.99114522055E+01  0.12821538750E+02  0.51100000000E-03 0.  1.
        -12    1    3    3    0    0  0.33663270568E+01 -0.98576790154E+01  0.84828643629E+01  0.13433725515E+02  0.00000000000E+00 0.  1.
</event>
<event>
 7    1  0.5753610E-013  0.5052886E+02  0.7816164E-02  0.1300439E+00
        -11   -1    0    0    0    0  0.00000000000E+00  0.00000000000E+00  0.45593999997E+02  0.45594000000E+02  0.51100000000E-03 0.  1.
         11   -1    0    0    0    0 -0.00000000000E+00 -0.00000000000E+00 -0.45593999997E+02  0.45594000000E+02  0.51100000000E-03 0. -1.
    9900012    2    1    2    0    0  0.31352378202E+02 -0.20821949578E+02 -0.15383122280E+02  0.50528860139E+02  0.30000000879E+02 0.  0.
        -12    1    1    2    0    0 -0.31352378202E+02  0.20821949578E+02  0.15383122280E+02  0.40659139861E+02  0.00000000000E+00 0.  1.
         11    1    3    3    0    0  0.78437529283E+01 -0.60361547326E+01 -0.45907546310E+01  0.10910300285E+02  0.51100000000E-03 0. -1.
        -11    1    3    3    0    0 -0.19561634183E+01 -0.74295319541E+01 -0.10625437209E+02  0.13111995901E+02  0.51100000000E-03 0.  1.
         12    1    3    3    0    0  0.25464788692E+02 -0.73562628915E+01 -0.16693044002E+00  0.26506563954E+02  0.00000000000E+00 0. -1.
</event>
<event>
 7    1  0.5753610E-013  0.5052886E+02  0.7816164E-02  0.1300439E+00
        -11   -1    0    0    0    0  0.00000000000E+00  0.00000000000E+00  0.45593999997E+02  0.45594000000E+02  0.51100000000E-03 0.  1.
         11   -1    0    0    0    0 -0.00000000000E+00 -0.00000000000E+00 -0.45593999997E+02  0.45594000000E+02  0.51100000000E-03 0. -1.
    9900012    2    1    2    0    0 -0.63643825803E+01 -0.77043977925E+01 -0.39411962026E+02  0.50528857588E+02  0.29999993123E+02 0.  0.
        -12    1    1    2    0    0  0.63643825803E+01  0.77043977925E+01  0.39411962026E+02  0.40659142412E+02  0.00000000000E+00 0.  1.
         11    1    3    3    0    0 -0.88413447451E+01 -0.29330156191E+01 -0.41911000717E+01  0.10214562036E+02  0.51100000000E-03 0. -1.
        -11    1    3    3    0    0  0.58384533100E+01 -0.10979975146E+02 -0.20278039577E+02  0.23787523634E+02  0.51100000000E-03 0.  1.
         12    1    3    3    0    0 -0.33614911452E+01  0.62085929730E+01 -0.14942822377E+02  0.16526771917E+02  0.00000000000E+00 0. -1.
</event>
<event>
 7    1  0.5753610E-013  0.5052885E+02  0.7816164E-02  0.1300439E+00
        -11   -1    0    0    0    0  0.00000000000E+00  0.00000000000E+00  0.45593999997E+02  0.45594000000E+02  0.51100000000E-03 0. -1.
         11   -1    0    0    0    0 -0.00000000000E+00 -0.00000000000E+00 -0.45593999997E+02  0.45594000000E+02  0.51100000000E-03 0.  1.
    9900012    2    1    2    0    0 -0.23080698685E+02 -0.23692313544E+02 -0.23645757172E+02  0.50528853365E+02  0.29999980289E+02 0.  0.
        -12    1    1    2    0    0  0.23080698685E+02  0.23692313544E+02  0.23645757172E+02  0.40659146635E+02  0.00000000000E+00 0.  1.
         11    1    3    3    0    0 -0.74974236493E+00  0.35649716996E+01 -0.95871905739E+01  0.10255991429E+02  0.51100000000E-03 0.  1.
        -11    1    3    3    0    0 -0.22505160302E+01 -0.62126795535E+01  0.21816007910E+01  0.69585624887E+01  0.51100000000E-03 0. -1.
        -12    1    3    3    0    0 -0.20080440289E+02 -0.21044605690E+02 -0.16240167389E+02  0.33314299448E+02  0.00000000000E+00 0.  1.
</event>
<event>
 7    1  0.5753610E-013  0.5052886E+02  0.7816164E-02  0.1300439E+00
        -11   -1    0    0    0    0  0.00000000000E+00  0.00000000000E+00  0.45593999997E+02  0.45594000000E+02  0.51100000000E-03 0.  1.
         11   -1    0    0    0    0 -0.00000000000E+00 -0.00000000000E+00 -0.45593999997E+02  0.45594000000E+02  0.51100000000E-03 0. -1.
    9900012    2    1    2    0    0 -0.18474122651E+02  0.32327110736E+02 -0.16334944707E+02  0.50528859394E+02  0.29999998613E+02 0.  0.
        -12    1    1    2    0    0  0.18474122651E+02 -0.32327110736E+02  0.16334944707E+02  0.40659140606E+02  0.00000000000E+00 0.  1.
         11    1    3    3    0    0 -0.10971263725E+02  0.58054359131E+01 -0.15219977517E+02  0.19639741081E+02  0.51100000000E-03 0. -1.
        -11    1    3    3    0    0  0.40957034912E+01  0.68047864807E+01 -0.10674933021E+01  0.80137037845E+01  0.51100000000E-03 0.  1.
        -12    1    3    3    0    0 -0.11598562418E+02  0.19716888342E+02 -0.47473887425E-01  0.22875414528E+02  0.00000000000E+00 0.  1.
</event>
<event>
 7    1  0.5753610E-013  0.5052886E+02  0.7816164E-02  0.1300439E+00
        -11   -1    0    0    0    0  0.00000000000E+00  0.00000000000E+00  0.45593999997E+02  0.45594000000E+02  0.51100000000E-03 0.  1.
         11   -1    0    0    0    0 -0.00000000000E+00 -0.00000000000E+00 -0.45593999997E+02  0.45594000000E+02  0.51100000000E-03 0. -1.
    9900012    2    1    2    0    0 -0.18439898045E+02 -0.26089487489E+02 -0.25149052900E+02  0.50528855160E+02  0.29999985744E+02 0.  0.
        -12    1    1    2    0    0  0.18439898045E+02  0.26089487489E+02  0.25149052900E+02  0.40659144840E+02  0.00000000000E+00 0.  1.
         11    1    3    3    0    0  0.29410285098E+01 -0.54005711954E+01 -0.11175614539E+02  0.12755790000E+02  0.51100000000E-03 0. -1.
        -11    1    3    3    0    0 -0.53731835796E+01  0.32019419922E+01 -0.34982901958E+01  0.71666986024E+01  0.51100000000E-03 0.  1.
        -12    1    3    3    0    0 -0.16007742976E+02 -0.23890858286E+02 -0.10475148165E+02  0.30606366558E+02  0.00000000000E+00 0.  1.
</event>
<event>
 7    1  0.6353306E-013  0.5052885E+02  0.7816164E-02  0.1300439E+00
        -11   -1    0    0    0    0  0.00000000000E+00  0.00000000000E+00  0.45593999997E+02  0.45594000000E+02  0.51100000000E-03 0. -1.
         11   -1    0    0    0    0 -0.00000000000E+00 -0.00000000000E+00 -0.45593999997E+02  0.45594000000E+02  0.51100000000E-03 0.  1.
    9900012    2    1    2    0    0 -0.12956611153E+02  0.37982348489E+02 -0.65294581508E+01  0.50528851054E+02  0.29999973263E+02 0.  0.
        -12    1    1    2    0    0  0.12956611153E+02 -0.37982348489E+02  0.65294581508E+01  0.40659148946E+02  0.00000000000E+00 0.  1.
         11    1    3    3    0    0 -0.71328427659E+01  0.92549489168E+01 -0.87785394569E+01  0.14614865057E+02  0.51100000000E-03 0. -1.
        -11    1    3    3    0    0 -0.39591788497E+01 -0.24176703582E+01  0.11877178802E+00  0.46405101146E+01  0.51100000000E-03 0.  1.
        -12    1    3    3    0    0 -0.18645895374E+01  0.31145069930E+02  0.21303095180E+01  0.31273475882E+02  0.00000000000E+00 0.  1.
</event>
<event>
 7    1  0.5753610E-013  0.5052889E+02  0.7816164E-02  0.1300439E+00
        -11   -1    0    0    0    0  0.00000000000E+00  0.00000000000E+00  0.45593999997E+02  0.45594000000E+02  0.51100000000E-03 0.  1.
         11   -1    0    0    0    0 -0.00000000000E+00 -0.00000000000E+00 -0.45593999997E+02  0.45594000000E+02  0.51100000000E-03 0. -1.
    9900012    2    1    2    0    0  0.26940471835E+02  0.75671889167E+01 -0.29497652190E+02  0.50528894556E+02  0.30000105493E+02 0.  0.
        -12    1    1    2    0    0 -0.26940471835E+02 -0.75671889167E+01  0.29497652190E+02  0.40659105444E+02  0.00000000000E+00 0.  1.
         11    1    3    3    0    0  0.80097138864E+01  0.39234228815E+01 -0.15321364979E+02  0.17728310375E+02  0.51100000000E-03 0.  1.
        -11    1    3    3    0    0 -0.49670173560E+01  0.18035707096E+01 -0.45426738703E+01  0.69685016232E+01  0.51100000000E-03 0. -1.
        -12    1    3    3    0    0  0.23897775304E+02  0.18401953256E+01 -0.96336133404E+01  0.25832082559E+02  0.00000000000E+00 0.  1.
</event>
<event>
 7    1  0.5753610E-013  0.5052886E+02  0.7816164E-02  0.1300439E+00
        -11   -1    0    0    0    0  0.00000000000E+00  0.00000000000E+00  0.45593999997E+02  0.45594000000E+02  0.51100000000E-03 0. -1.
         11   -1    0    0    0    0 -0.00000000000E+00 -0.00000000000E+00 -0.45593999997E+02  0.45594000000E+02  0.51100000000E-03 0.  1.
    9900012    2    1    2    0    0  0.59109152095E+01 -0.37486067344E+02  0.14595266142E+02  0.50528856412E+02  0.29999989551E+02 0.  0.
        -12    1    1    2    0    0 -0.59109152095E+01  0.37486067344E+02 -0.14595266142E+02  0.40659143588E+02  0.00000000000E+00 0.  1.
         11    1    3    3    0    0  0.15385360493E+01 -0.68419957461E+01  0.83850094704E+00  0.70627956974E+01  0.51100000000E-03 0. -1.
        -11    1    3    3    0    0  0.73844468735E+01 -0.23698863450E+02 -0.30728947278E+01  0.25012174370E+02  0.51100000000E-03 0.  1.
         12    1    3    3    0    0 -0.30120677134E+01 -0.69452081485E+01  0.16829659922E+02  0.18453886345E+02  0.00000000000E+00 0. -1.
</event>
<event>
 7    1  0.5753610E-013  0.5052887E+02  0.7816164E-02  0.1300439E+00
        -11   -1    0    0    0    0  0.00000000000E+00  0.00000000000E+00  0.45593999997E+02  0.45594000000E+02  0.51100000000E-03 0.  1.
         11   -1    0    0    0    0 -0.00000000000E+00 -0.00000000000E+00 -0.45593999997E+02  0.45594000000E+02  0.51100000000E-03 0. -1.
    9900012    2    1    2    0    0  0.30445752594E+02 -0.16933855087E+01 -0.26895236400E+02  0.50528866383E+02  0.30000019857E+02 0.  0.
        -12    1    1    2    0    0 -0.30445752594E+02  0.16933855087E+01  0.26895236400E+02  0.40659133617E+02  0.00000000000E+00 0.  1.
         11    1    3    3    0    0  0.19799788777E+02  0.45293848034E+01 -0.24581913958E+02  0.31887575267E+02  0.51100000000E-03 0. -1.
        -11    1    3    3    0    0  0.13196449652E+02 -0.35887534971E+01 -0.44698032454E+01  0.14387653610E+02  0.51100000000E-03 0.  1.
        -12    1    3    3    0    0 -0.25504858356E+01 -0.26340168149E+01  0.21564808029E+01  0.42536375060E+01  0.00000000000E+00 0.  1.
</event>
<event>
 7    1  0.5753610E-013  0.5052887E+02  0.7816164E-02  0.1300439E+00
        -11   -1    0    0    0    0  0.00000000000E+00  0.00000000000E+00  0.45593999997E+02  0.45594000000E+02  0.51100000000E-03 0.  1.
         11   -1    0    0    0    0 -0.00000000000E+00 -0.00000000000E+00 -0.45593999997E+02  0.45594000000E+02  0.51100000000E-03 0. -1.
    9900012    2    1    2    0    0 -0.14572499404E+02  0.32240212795E+01 -0.37820803777E+02  0.50528865105E+02  0.30000015972E+02 0.  0.
        -12    1    1    2    0    0  0.14572499404E+02 -0.32240212795E+01  0.37820803777E+02  0.40659134895E+02  0.00000000000E+00 0.  1.
         11    1    3    3    0    0  0.33949091653E+01  0.43518540758E+01 -0.63205764539E+00  0.55554963114E+01  0.51100000000E-03 0.  1.
        -11    1    3    3    0    0 -0.13510136343E+02  0.73535676066E+01 -0.26313577035E+02  0.30479551788E+02  0.51100000000E-03 0. -1.
        -12    1    3    3    0    0 -0.44572722262E+01 -0.84814004029E+01 -0.10875169097E+02  0.14493817005E+02  0.00000000000E+00 0.  1.
</event>
<event>
 7    1  0.5753610E-013  0.5052886E+02  0.7816164E-02  0.1300439E+00
        -11   -1    0    0    0    0  0.00000000000E+00  0.00000000000E+00  0.45593999997E+02  0.45594000000E+02  0.51100000000E-03 0.  1.
         11   -1    0    0    0    0 -0.00000000000E+00 -0.00000000000E+00 -0.45593999997E+02  0.45594000000E+02  0.51100000000E-03 0. -1.
    9900012    2    1    2    0    0  0.40475972800E+02  0.34248088513E+01  0.17696927534E+01  0.50528862009E+02  0.30000006561E+02 0.  0.
        -12    1    1    2    0    0 -0.40475972800E+02 -0.34248088513E+01 -0.17696927534E+01  0.40659137991E+02  0.00000000000E+00 0.  1.
         11    1    3    3    0    0  0.32944255763E+02  0.26159102434E+01 -0.67032572547E+00  0.33054747178E+02  0.51100000000E-03 0. -1.
        -11    1    3    3    0    0  0.99331221261E+01  0.54553835371E+00  0.71022277688E+01  0.12223181534E+02  0.51100000000E-03 0.  1.
        -12    1    3    3    0    0 -0.24014050891E+01  0.26336025410E+00 -0.46622092899E+01  0.52509332968E+01  0.00000000000E+00 0.  1.
</event>
<event>
 7    1  0.5753610E-013  0.5052885E+02  0.7816164E-02  0.1300439E+00
        -11   -1    0    0    0    0  0.00000000000E+00  0.00000000000E+00  0.45593999997E+02  0.45594000000E+02  0.51100000000E-03 0.  1.
         11   -1    0    0    0    0 -0.00000000000E+00 -0.00000000000E+00 -0.45593999997E+02  0.45594000000E+02  0.51100000000E-03 0. -1.
    9900012    2    1    2    0    0  0.81392005279E+01 -0.43518650503E+01 -0.39597746869E+02  0.50528845167E+02  0.29999955368E+02 0.  0.
        -12    1    1    2    0    0 -0.81392005279E+01  0.43518650503E+01  0.39597746869E+02  0.40659154833E+02  0.00000000000E+00 0.  1.
         11    1    3    3    0    0 -0.24274549622E+01 -0.27853402402E+00 -0.22790422029E+02  0.22921026489E+02  0.51100000000E-03 0. -1.
        -11    1    3    3    0    0  0.50901420060E+01  0.70044637708E+01 -0.10872367139E+02  0.13898936140E+02  0.51100000000E-03 0.  1.
        -12    1    3    3    0    0  0.54765134841E+01 -0.11077794797E+02 -0.59349577012E+01  0.13708882537E+02  0.00000000000E+00 0.  1.
</event>
<event>
 7    1  0.5753610E-013  0.5052889E+02  0.7816164E-02  0.1300439E+00
        -11   -1    0    0    0    0  0.00000000000E+00  0.00000000000E+00  0.45593999997E+02  0.45594000000E+02  0.51100000000E-03 0. -1.
         11   -1    0    0    0    0 -0.00000000000E+00 -0.00000000000E+00 -0.45593999997E+02  0.45594000000E+02  0.51100000000E-03 0.  1.
    9900012    2    1    2    0    0 -0.23650697957E+02 -0.33070569279E+02  0.38115341650E+00  0.50528888546E+02  0.30000087225E+02 0.  0.
        -12    1    1    2    0    0  0.23650697957E+02  0.33070569279E+02 -0.38115341650E+00  0.40659111454E+02  0.00000000000E+00 0.  1.
         11    1    3    3    0    0 -0.10259327635E+02 -0.42226827111E+01 -0.63275910876E+01  0.12771971736E+02  0.51100000000E-03 0. -1.
        -11    1    3    3    0    0 -0.94358813985E+01 -0.17597005095E+02 -0.54786386578E+01  0.20705214992E+02  0.51100000000E-03 0.  1.
         12    1    3    3    0    0 -0.39554889233E+01 -0.11250881473E+02  0.12187383162E+02  0.17051701818E+02  0.00000000000E+00 0. -1.
</event>
<event>
 7    1  0.5753610E-013  0.5052883E+02  0.7816164E-02  0.1300439E+00
        -11   -1    0    0    0    0  0.00000000000E+00  0.00000000000E+00  0.45593999997E+02  0.45594000000E+02  0.51100000000E-03 0. -1.
         11   -1    0    0    0    0 -0.00000000000E+00 -0.00000000000E+00 -0.45593999997E+02  0.45594000000E+02  0.51100000000E-03 0.  1.
    9900012    2    1    2    0    0 -0.95233713475E+01  0.34966401007E+02  0.18434315503E+02  0.50528833884E+02  0.29999921073E+02 0.  0.
        -12    1    1    2    0    0  0.95233713475E+01 -0.34966401007E+02 -0.18434315503E+02  0.40659166116E+02  0.00000000000E+00 0.  1.
         11    1    3    3    0    0 -0.62729816076E+00  0.66471098985E+01 -0.31260285035E+01  0.73722199812E+01  0.51100000000E-03 0. -1.
        -11    1    3    3    0    0 -0.30571576504E+00  0.28490713823E+02  0.14160273075E+02  0.31817095563E+02  0.51100000000E-03 0.  1.
        -12    1    3    3    0    0 -0.85903574217E+01 -0.17142271397E+00  0.74000709310E+01  0.11339518339E+02  0.00000000000E+00 0.  1.
</event>
<event>
 7    1  0.5753610E-013  0.5052886E+02  0.7816164E-02  0.1300439E+00
        -11   -1    0    0    0    0  0.00000000000E+00  0.00000000000E+00  0.45593999997E+02  0.45594000000E+02  0.51100000000E-03 0.  1.
         11   -1    0    0    0    0 -0.00000000000E+00 -0.00000000000E+00 -0.45593999997E+02  0.45594000000E+02  0.51100000000E-03 0. -1.
    9900012    2    1    2    0    0  0.33513062021E+01 -0.38961801107E+02  0.11131581368E+02  0.50528864465E+02  0.30000014027E+02 0.  0.
        -12    1    1    2    0    0 -0.33513062021E+01  0.38961801107E+02 -0.11131581368E+02  0.40659135535E+02  0.00000000000E+00 0.  1.
         11    1    3    3    0    0 -0.11905821711E+01 -0.22383154816E+01 -0.66769893639E+01  0.71421095853E+01  0.51100000000E-03 0. -1.
        -11    1    3    3    0    0  0.62134167167E+01 -0.91857443998E+01  0.11266729636E+01  0.11146920638E+02  0.51100000000E-03 0.  1.
         12    1    3    3    0    0 -0.16715283436E+01 -0.27537741225E+02  0.16681897768E+02  0.32239834242E+02  0.00000000000E+00 0. -1.
</event>
<event>
 7    1  0.6470441E-013  0.5052886E+02  0.7816164E-02  0.1300439E+00
        -11   -1    0    0    0    0  0.00000000000E+00  0.00000000000E+00  0.45593999997E+02  0.45594000000E+02  0.51100000000E-03 0.  1.
         11   -1    0    0    0    0 -0.00000000000E+00 -0.00000000000E+00 -0.45593999997E+02  0.45594000000E+02  0.51100000000E-03 0. -1.
    9900012    2    1    2    0    0 -0.36950551607E+02 -0.51427849177E+01  0.16167063238E+02  0.50528862841E+02  0.30000009090E+02 0.  0.
        -12    1    1    2    0    0  0.36950551607E+02  0.51427849177E+01 -0.16167063238E+02  0.40659137159E+02  0.00000000000E+00 0.  1.
         11    1    3    3    0    0 -0.26130804160E+02 -0.31288598841E+01  0.20499956107E+01  0.26397181146E+02  0.51100000000E-03 0. -1.
        -11    1    3    3    0    0 -0.29072262689E+01  0.19884596542E+01 -0.31471696484E+01  0.47234112071E+01  0.51100000000E-03 0.  1.
        -12    1    3    3    0    0 -0.79125211789E+01 -0.40023846878E+01  0.17264237276E+02  0.19408270487E+02  0.00000000000E+00 0.  1.
</event>
<event>
 7    1  0.5753610E-013  0.5052893E+02  0.7816164E-02  0.1300439E+00
        -11   -1    0    0    0    0  0.00000000000E+00  0.00000000000E+00  0.45593999997E+02  0.45594000000E+02  0.51100000000E-03 0.  1.
         11   -1    0    0    0    0 -0.00000000000E+00 -0.00000000000E+00 -0.45593999997E+02  0.45594000000E+02  0.51100000000E-03 0. -1.
    9900012    2    1    2    0    0 -0.13379432414E+02  0.27806381263E+02 -0.26475577180E+02  0.50528926748E+02  0.30000203344E+02 0.  0.
        -12    1    1    2    0    0  0.13379432414E+02 -0.27806381263E+02  0.26475577180E+02  0.40659073252E+02  0.00000000000E+00 0.  1.
         11    1    3    3    0    0 -0.73613215945E+01  0.68804811886E+00 -0.78844507898E+01  0.10808655344E+02  0.51100000000E-03 0. -1.
        -11    1    3    3    0    0 -0.14122094640E+02  0.18270932135E+02 -0.12692722393E+02  0.26350820103E+02  0.51100000000E-03 0.  1.
        -12    1    3    3    0    0  0.81039838203E+01  0.88474010091E+01 -0.58984039971E+01  0.13369451301E+02  0.00000000000E+00 0.  1.
</event>
<event>
 7    1  0.5753610E-013  0.5052886E+02  0.7816164E-02  0.1300439E+00
        -11   -1    0    0    0    0  0.00000000000E+00  0.00000000000E+00  0.45593999997E+02  0.45594000000E+02  0.51100000000E-03 0. -1.
         11   -1    0    0    0    0 -0.00000000000E+00 -0.00000000000E+00 -0.45593999997E+02  0.45594000000E+02  0.51100000000E-03 0.  1.
    9900012    2    1    2    0    0  0.36124984205E+02  0.18658543000E+02  0.10055401926E+00  0.50528858078E+02  0.29999994613E+02 0.  0.
        -12    1    1    2    0    0 -0.36124984205E+02 -0.18658543000E+02 -0.10055401926E+00  0.40659141922E+02  0.00000000000E+00 0.  1.
         11    1    3    3    0    0  0.97349437295E+01  0.26618610011E+01  0.50560524066E+01  0.11287971457E+02  0.51100000000E-03 0. -1.
        -11    1    3    3    0    0  0.30153087346E+02  0.11493948994E+02 -0.70125325235E+01  0.33022646058E+02  0.51100000000E-03 0.  1.
         12    1    3    3    0    0 -0.37630468706E+01  0.45027330055E+01  0.20570341362E+01  0.62182405635E+01  0.00000000000E+00 0. -1.
</event>
<event>
 7    1  0.5753610E-013  0.5052885E+02  0.7816164E-02  0.1300439E+00
        -11   -1    0    0    0    0  0.00000000000E+00  0.00000000000E+00  0.45593999997E+02  0.45594000000E+02  0.51100000000E-03 0.  1.
         11   -1    0    0    0    0 -0.00000000000E+00 -0.00000000000E+00 -0.45593999997E+02  0.45594000000E+02  0.51100000000E-03 0. -1.
    9900012    2    1    2    0    0 -0.34381224015E+02  0.96853495677E+01 -0.19423998435E+02  0.50528852490E+02  0.29999977630E+02 0.  0.
        -12    1    1    2    0    0  0.34381224015E+02 -0.96853495677E+01  0.19423998435E+02  0.40659147510E+02  0.00000000000E+00 0.  1.
         11    1    3    3    0    0 -0.13085797992E+02 -0.24772923944E-01 -0.18031432788E+01  0.13209468147E+02  0.51100000000E-03 0. -1.
        -11    1    3    3    0    0  0.93019037126E+00 -0.51126196515E+01  0.20929126001E+00  0.52007631094E+01  0.51100000000E-03 0.  1.
        -12    1    3    3    0    0 -0.22225616395E+02  0.14822742143E+02 -0.17830146416E+02  0.32118621234E+02  0.00000000000E+00 0.  1.
</event>
<event>
 7    1  0.5753610E-013  0.5052886E+02  0.7816164E-02  0.1300439E+00
        -11   -1    0    0    0    0  0.00000000000E+00  0.00000000000E+00  0.45593999997E+02  0.45594000000E+02  0.51100000000E-03 0.  1.
         11   -1    0    0    0    0 -0.00000000000E+00 -0.00000000000E+00 -0.45593999997E+02  0.45594000000E+02  0.51100000000E-03 0. -1.
    9900012    2    1    2    0    0 -0.25659096956E+02  0.26710382381E+02 -0.16772953935E+02  0.50528858749E+02  0.29999996655E+02 0.  0.
        -12    1    1    2    0    0  0.25659096956E+02 -0.26710382381E+02  0.16772953935E+02  0.40659141251E+02  0.00000000000E+00 0.  1.
         11    1    3    3    0    0 -0.59046489846E+01  0.77420397953E+01 -0.29660525833E+01  0.10178483581E+02  0.51100000000E-03 0. -1.
        -11    1    3    3    0    0  0.14314189780E+01  0.14888153735E+01 -0.12695094745E+02  0.12861996826E+02  0.51100000000E-03 0.  1.
        -12    1    3    3    0    0 -0.21185866949E+02  0.17479527212E+02 -0.11118066068E+01  0.27488378342E+02  0.00000000000E+00 0.  1.
</event>
<event>
 7    1  0.5753610E-013  0.5052881E+02  0.7816164E-02  0.1300439E+00
        -11   -1    0    0    0    0  0.00000000000E+00  0.00000000000E+00  0.45593999997E+02  0.45594000000E+02  0.51100000000E-03 0.  1.
         11   -1    0    0    0    0 -0.00000000000E+00 -0.00000000000E+00 -0.45593999997E+02  0.45594000000E+02  0.51100000000E-03 0. -1.
    9900012    2    1    2    0    0  0.29465075684E+02 -0.16632703765E+02 -0.22546224813E+02  0.50528809490E+02  0.29999846926E+02 0.  0.
        -12    1    1    2    0    0 -0.29465075684E+02  0.16632703765E+02  0.22546224813E+02  0.40659190510E+02  0.00000000000E+00 0.  1.
         11    1    3    3    0    0  0.19304108478E+01  0.51300091641E+00  0.13794467807E+01  0.24274533287E+01  0.51100000000E-03 0. -1.
        -11    1    3    3    0    0  0.44254885141E+00  0.48787573373E+01 -0.87561049564E+01  0.10033319337E+02  0.51100000000E-03 0.  1.
         12    1    3    3    0    0  0.27092115985E+02 -0.22024462019E+02 -0.15169566638E+02  0.38068036825E+02  0.00000000000E+00 0. -1.
</event>
<event>
 7    1  0.5753610E-013  0.5052887E+02  0.7816164E-02  0.1300439E+00
        -11   -1    0    0    0    0  0.00000000000E+00  0.00000000000E+00  0.45593999997E+02  0.45594000000E+02  0.51100000000E-03 0.  1.
         11   -1    0    0    0    0 -0.00000000000E+00 -0.00000000000E+00 -0.45593999997E+02  0.45594000000E+02  0.51100000000E-03 0. -1.
    9900012    2    1    2    0    0 -0.17808659391E+02  0.49467692234E+01 -0.36215271167E+02  0.50528871372E+02  0.30000035023E+02 0.  0.
        -12    1    1    2    0    0  0.17808659391E+02 -0.49467692234E+01  0.36215271167E+02  0.40659128628E+02  0.00000000000E+00 0.  1.
         11    1    3    3    0    0 -0.97745478904E+01  0.31103116370E+01 -0.47401639825E+01  0.11299777864E+02  0.51100000000E-03 0. -1.
        -11    1    3    3    0    0  0.24832375206E+01 -0.40005121481E+01  0.80847490102E+00  0.47774677349E+01  0.51100000000E-03 0.  1.
         12    1    3    3    0    0 -0.10517349021E+02  0.58369697345E+01 -0.32283582086E+02  0.34451625773E+02  0.00000000000E+00 0. -1.
</event>
<event>
 7    1  0.5753610E-013  0.5052886E+02  0.7816164E-02  0.1300439E+00
        -11   -1    0    0    0    0  0.00000000000E+00  0.00000000000E+00  0.45593999997E+02  0.45594000000E+02  0.51100000000E-03 0.  1.
         11   -1    0    0    0    0 -0.00000000000E+00 -0.00000000000E+00 -0.45593999997E+02  0.45594000000E+02  0.51100000000E-03 0. -1.
    9900012    2    1    2    0    0 -0.29804925863E+02 -0.15531667505E+02 -0.22882299170E+02  0.50528856914E+02  0.29999991076E+02 0.  0.
        -12    1    1    2    0    0  0.29804925863E+02  0.15531667505E+02  0.22882299170E+02  0.40659143086E+02  0.00000000000E+00 0.  1.
         11    1    3    3    0    0 -0.29267760337E+01 -0.76204925862E+01 -0.40283160995E+01  0.91030355413E+01  0.51100000000E-03 0. -1.
        -11    1    3    3    0    0 -0.11248955041E+02 -0.50379947633E+01  0.45483948133E+01  0.13138046901E+02  0.51100000000E-03 0.  1.
         12    1    3    3    0    0 -0.15629194789E+02 -0.28731801551E+01 -0.23402377883E+02  0.28287774471E+02  0.00000000000E+00 0. -1.
</event>
<event>
 7    1  0.5753610E-013  0.5052886E+02  0.7816164E-02  0.1300439E+00
        -11   -1    0    0    0    0  0.00000000000E+00  0.00000000000E+00  0.45593999997E+02  0.45594000000E+02  0.51100000000E-03 0. -1.
         11   -1    0    0    0    0 -0.00000000000E+00 -0.00000000000E+00 -0.45593999997E+02  0.45594000000E+02  0.51100000000E-03 0.  1.
    9900012    2    1    2    0    0 -0.33732663969E+02 -0.14192386461E+02  0.17715784307E+02  0.50528862460E+02  0.30000007935E+02 0.  0.
        -12    1    1    2    0    0  0.33732663969E+02  0.14192386461E+02 -0.17715784307E+02  0.40659137540E+02  0.00000000000E+00 0.  1.
         11    1    3    3    0    0 -0.19095914832E+01 -0.21091164530E+01  0.38009814782E+01  0.47478808225E+01  0.51100000000E-03 0. -1.
        -11    1    3    3    0    0 -0.35634750425E+02 -0.67564704135E+01  0.84267683249E+01  0.37235678522E+02  0.51100000000E-03 0.  1.
        -12    1    3    3    0    0  0.38116779399E+01 -0.53267995942E+01  0.54880345035E+01  0.85453031161E+01  0.00000000000E+00 0.  1.
</event>
<event>
 7    1  0.8031761E-013  0.5052885E+02  0.7816164E-02  0.1300439E+00
        -11   -1    0    0    0    0  0.00000000000E+00  0.00000000000E+00  0.45593999997E+02  0.45594000000E+02  0.51100000000E-03 0.  1.
         11   -1    0    0    0    0 -0.00000000000E+00 -0.00000000000E+00 -0.45593999997E+02  0.45594000000E+02  0.51100000000E-03 0. -1.
    9900012    2    1    2    0    0 -0.38779861523E+02  0.37382623750E+01 -0.11632461020E+02  0.50528850787E+02  0.29999972453E+02 0.  0.
        -12    1    1    2    0    0  0.38779861523E+02 -0.37382623750E+01  0.11632461020E+02  0.40659149213E+02  0.00000000000E+00 0.  1.
         11    1    3    3    0    0 -0.19529729558E+02 -0.84771827982E+01 -0.79216084120E+01  0.22716180244E+02  0.51100000000E-03 0. -1.
        -11    1    3    3    0    0 -0.19360601640E+02  0.46130352370E+01 -0.18732684804E+01  0.19990550893E+02  0.51100000000E-03 0.  1.
        -12    1    3    3    0    0  0.11046967510E+00  0.76024099362E+01 -0.18375841281E+01  0.78221196498E+01  0.00000000000E+00 0.  1.
</event>
<event>
 7    1  0.5753610E-013  0.5052886E+02  0.7816164E-02  0.1300439E+00
        -11   -1    0    0    0    0  0.00000000000E+00  0.00000000000E+00  0.45593999997E+02  0.45594000000E+02  0.51100000000E-03 0. -1.
         11   -1    0    0    0    0 -0.00000000000E+00 -0.00000000000E+00 -0.45593999997E+02  0.45594000000E+02  0.51100000000E-03 0.  1.
    9900012    2    1    2    0    0 -0.84765152479E+01  0.39516263496E+02  0.44473704593E+01  0.50528862092E+02  0.30000006814E+02 0.  0.
        -12    1    1    2    0    0  0.84765152479E+01 -0.39516263496E+02 -0.44473704593E+01  0.40659137908E+02  0.00000000000E+00 0.  1.
         11    1    3    3    0    0 -0.10894630539E+02  0.35344641263E+02  0.58785188554E+00  0.36990298873E+02  0.51100000000E-03 0. -1.
        -11    1    3    3    0    0 -0.48194011537E+01  0.15994923858E+01  0.27593564896E+01  0.57791912817E+01  0.51100000000E-03 0.  1.
        -12    1    3    3    0    0  0.72375164453E+01  0.25721298475E+01  0.11001620842E+01  0.77593719372E+01  0.00000000000E+00 0.  1.
</event>
<event>
 7    1  0.5753610E-013  0.5052886E+02  0.7816164E-02  0.1300439E+00
        -11   -1    0    0    0    0  0.00000000000E+00  0.00000000000E+00  0.45593999997E+02  0.45594000000E+02  0.51100000000E-03 0.  1.
         11   -1    0    0    0    0 -0.00000000000E+00 -0.00000000000E+00 -0.45593999997E+02  0.45594000000E+02  0.51100000000E-03 0. -1.
    9900012    2    1    2    0    0 -0.31494923870E+02 -0.70364116644E+01 -0.24733061111E+02  0.50528860430E+02  0.30000001763E+02 0.  0.
        -12    1    1    2    0    0  0.31494923870E+02  0.70364116644E+01  0.24733061111E+02  0.40659139570E+02  0.00000000000E+00 0.  1.
         11    1    3    3    0    0 -0.13131855597E+02 -0.15285278006E+01 -0.91751904434E+01  0.16092425193E+02  0.51100000000E-03 0. -1.
        -11    1    3    3    0    0 -0.11877345589E+02 -0.65139590071E+00  0.45669508039E+01  0.12741769687E+02  0.51100000000E-03 0.  1.
         12    1    3    3    0    0 -0.64857226837E+01 -0.48564879631E+01 -0.20124821471E+02  0.21694665550E+02  0.00000000000E+00 0. -1.
</event>
<event>
 7    1  0.5753610E-013  0.5052886E+02  0.7816164E-02  0.1300439E+00
        -11   -1    0    0    0    0  0.00000000000E+00  0.00000000000E+00  0.45593999997E+02  0.45594000000E+02  0.51100000000E-03 0.  1.
         11   -1    0    0    0    0 -0.00000000000E+00 -0.00000000000E+00 -0.45593999997E+02  0.45594000000E+02  0.51100000000E-03 0. -1.
    9900012    2    1    2    0    0  0.27345131434E+02 -0.23381470486E+02 -0.18939806566E+02  0.50528860216E+02  0.30000001112E+02 0.  0.
        -12    1    1    2    0    0 -0.27345131434E+02  0.23381470486E+02  0.18939806566E+02  0.40659139784E+02  0.00000000000E+00 0.  1.
         11    1    3    3    0    0 -0.34195511053E+01  0.24861115365E+01 -0.25756327078E+01  0.49505519329E+01  0.51100000000E-03 0.  1.
        -11    1    3    3    0    0  0.10973126207E+02 -0.17278863466E+02 -0.11439968911E+02  0.23448699545E+02  0.51100000000E-03 0. -1.
        -12    1    3    3    0    0  0.19791556333E+02 -0.85887185568E+01 -0.49242049471E+01  0.22129608738E+02  0.00000000000E+00 0.  1.
</event>
<event>
 7    1  0.5753610E-013  0.5052887E+02  0.7816164E-02  0.1300439E+00
        -11   -1    0    0    0    0  0.00000000000E+00  0.00000000000E+00  0.45593999997E+02  0.45594000000E+02  0.51100000000E-03 0.  1.
         11   -1    0    0    0    0 -0.00000000000E+00 -0.00000000000E+00 -0.45593999997E+02  0.45594000000E+02  0.51100000000E-03 0. -1.
    9900012    2    1    2    0    0  0.34209323841E+01  0.84572572146E+01 -0.39622426552E+02  0.50528872318E+02  0.30000037899E+02 0.  0.
        -12    1    1    2    0    0 -0.34209323841E+01 -0.84572572146E+01  0.39622426552E+02  0.40659127682E+02  0.00000000000E+00 0.  1.
         11    1    3    3    0    0 -0.42242020572E+00  0.53485923398E+01 -0.16929689925E+02  0.17759512383E+02  0.51100000000E-03 0. -1.
        -11    1    3    3    0    0  0.13213305555E+02  0.44240723514E+01 -0.15777946578E+02  0.21050117775E+02  0.51100000000E-03 0.  1.
         12    1    3    3    0    0 -0.93699529654E+01 -0.13154074767E+01 -0.69147900489E+01  0.11719242161E+02  0.00000000000E+00 0. -1.
</event>
<event>
 7    1  0.5753610E-013  0.5052886E+02  0.7816164E-02  0.1300439E+00
        -11   -1    0    0    0    0  0.00000000000E+00  0.00000000000E+00  0.45593999997E+02  0.45594000000E+02  0.51100000000E-03 0. -1.
         11   -1    0    0    0    0 -0.00000000000E+00 -0.00000000000E+00 -0.45593999997E+02  0.45594000000E+02  0.51100000000E-03 0.  1.
    9900012    2    1    2    0    0 -0.21841333384E+02 -0.25323689185E+02  0.23126442354E+02  0.50528863095E+02  0.30000009862E+02 0.  0.
        -12    1    1    2    0    0  0.21841333384E+02  0.25323689185E+02 -0.23126442354E+02  0.40659136905E+02  0.00000000000E+00 0.  1.
         11    1    3    3    0    0 -0.58766740435E+01 -0.71547735876E+01 -0.36901983405E+00  0.92661890118E+01  0.51100000000E-03 0. -1.
        -11    1    3    3    0    0  0.36790941725E+01 -0.11507786765E+02  0.38152343450E+01  0.12669684429E+02  0.51100000000E-03 0.  1.
         12    1    3    3    0    0 -0.19643753513E+02 -0.66611288327E+01  0.19680227843E+02  0.28592989654E+02  0.00000000000E+00 0. -1.
</event>
<event>
 7    1  0.5753610E-013  0.5052886E+02  0.7816164E-02  0.1300439E+00
        -11   -1    0    0    0    0  0.00000000000E+00  0.00000000000E+00  0.45593999997E+02  0.45594000000E+02  0.51100000000E-03 0.  1.
         11   -1    0    0    0    0 -0.00000000000E+00 -0.00000000000E+00 -0.45593999997E+02  0.45594000000E+02  0.51100000000E-03 0. -1.
    9900012    2    1    2    0    0 -0.20848022983E+02 -0.32526675126E+02 -0.12670464645E+02  0.50528864109E+02  0.30000012946E+02 0.  0.
        -12    1    1    2    0    0  0.20848022983E+02  0.32526675126E+02  0.12670464645E+02  0.40659135891E+02  0.00000000000E+00 0.  1.
         11    1    3    3    0    0 -0.88860456217E+01 -0.12967973805E+02 -0.66816629308E+01  0.17081415959E+02  0.51100000000E-03 0. -1.
        -11    1    3    3    0    0 -0.12820888594E+02 -0.53924549817E+00 -0.65357284311E+01  0.14400754023E+02  0.51100000000E-03 0.  1.
         12    1    3    3    0    0  0.85891123252E+00 -0.19019455823E+02  0.54692671674E+00  0.19046694127E+02  0.00000000000E+00 0. -1.
</event>
<event>
 7    1  0.5753610E-013  0.5052886E+02  0.7816164E-02  0.1300439E+00
        -11   -1    0    0    0    0  0.00000000000E+00  0.00000000000E+00  0.45593999997E+02  0.45594000000E+02  0.51100000000E-03 0.  1.
         11   -1    0    0    0    0 -0.00000000000E+00 -0.00000000000E+00 -0.45593999997E+02  0.45594000000E+02  0.51100000000E-03 0. -1.
    9900012    2    1    2    0    0 -0.22918779754E+02  0.51266207026E+01  0.33190555702E+02  0.50528859662E+02  0.29999999428E+02 0.  0.
        -12    1    1    2    0    0  0.22918779754E+02 -0.51266207026E+01 -0.33190555702E+02  0.40659140338E+02  0.00000000000E+00 0.  1.
         11    1    3    3    0    0  0.17045929785E+01 -0.46491436736E+01  0.14498755146E+02  0.15321033749E+02  0.51100000000E-03 0. -1.
        -11    1    3    3    0    0 -0.29067137923E+01  0.56068129950E+01  0.91638392609E+01  0.11129298598E+02  0.51100000000E-03 0.  1.
         12    1    3    3    0    0 -0.21716658941E+02  0.41689513811E+01  0.95279612952E+01  0.24078527314E+02  0.00000000000E+00 0. -1.
</event>
<event>
 7    1  0.5753610E-013  0.5052888E+02  0.7816164E-02  0.1300439E+00
        -11   -1    0    0    0    0  0.00000000000E+00  0.00000000000E+00  0.45593999997E+02  0.45594000000E+02  0.51100000000E-03 0.  1.
         11   -1    0    0    0    0 -0.00000000000E+00 -0.00000000000E+00 -0.45593999997E+02  0.45594000000E+02  0.51100000000E-03 0. -1.
    9900012    2    1    2    0    0 -0.25842596233E+02 -0.21531435666E+02 -0.22841228259E+02  0.50528877896E+02  0.30000054854E+02 0.  0.
        -12    1    1    2    0    0  0.25842596233E+02  0.21531435666E+02  0.22841228259E+02  0.40659122104E+02  0.00000000000E+00 0.  1.
         11    1    3    3    0    0 -0.16442698222E+02 -0.21240916561E+02 -0.19660165821E+02  0.33287549948E+02  0.51100000000E-03 0. -1.
        -11    1    3    3    0    0  0.27685165335E-01  0.11167318546E+01 -0.69145543276E+01  0.70042071867E+01  0.51100000000E-03 0.  1.
        -12    1    3    3    0    0 -0.94275831760E+01 -0.14072509594E+01  0.37334918897E+01  0.10237120762E+02  0.00000000000E+00 0.  1.
</event>
<event>
 7    1  0.5753610E-013  0.5052886E+02  0.7816164E-02  0.1300439E+00
        -11   -1    0    0    0    0  0.00000000000E+00  0.00000000000E+00  0.45593999997E+02  0.45594000000E+02  0.51100000000E-03 0.  1.
         11   -1    0    0    0    0 -0.00000000000E+00 -0.00000000000E+00 -0.45593999997E+02  0.45594000000E+02  0.51100000000E-03 0. -1.
    9900012    2    1    2    0    0 -0.15314103594E+02 -0.36480587789E+02 -0.93707239632E+01  0.50528861767E+02  0.30000005826E+02 0.  0.
        -12    1    1    2    0    0  0.15314103594E+02  0.36480587789E+02  0.93707239632E+01  0.40659138233E+02  0.00000000000E+00 0.  1.
         11    1    3    3    0    0 -0.78167004429E+00 -0.27262445653E+02 -0.13599702350E+00  0.27273988460E+02  0.51100000000E-03 0. -1.
        -11    1    3    3    0    0 -0.42891930020E+01 -0.90906943723E+01 -0.81745524537E+01  0.12956126306E+02  0.51100000000E-03 0.  1.
        -12    1    3    3    0    0 -0.10243240547E+02 -0.12744776323E+00 -0.10601744859E+01  0.10298747001E+02  0.00000000000E+00 0.  1.
</event>
<event>
 7    1  0.5753610E-013  0.5052886E+02  0.7816164E-02  0.1300439E+00
        -11   -1    0    0    0    0  0.00000000000E+00  0.00000000000E+00  0.45593999997E+02  0.45594000000E+02  0.51100000000E-03 0.  1.
         11   -1    0    0    0    0 -0.00000000000E+00 -0.00000000000E+00 -0.45593999997E+02  0.45594000000E+02  0.51100000000E-03 0. -1.
    9900012    2    1    2    0    0 -0.16367686139E+02  0.36564995663E+02 -0.69473581063E+01  0.50528857829E+02  0.29999993857E+02 0.  0.
        -12    1    1    2    0    0  0.16367686139E+02 -0.36564995663E+02  0.69473581063E+01  0.40659142171E+02  0.00000000000E+00 0.  1.
         11    1    3    3    0    0 -0.13977935350E+02  0.13143337900E+02 -0.49166924843E+01  0.19806662340E+02  0.51100000000E-03 0. -1.
        -11    1    3    3    0    0 -0.52663652323E+01  0.23660698523E+00  0.39719974613E+01  0.66005567735E+01  0.51100000000E-03 0.  1.
        -12    1    3    3    0    0  0.28766144430E+01  0.23185050778E+02 -0.60026630834E+01  0.24121638716E+02  0.00000000000E+00 0.  1.
</event>
<event>
 7    1  0.5753610E-013  0.5052886E+02  0.7816164E-02  0.1300439E+00
        -11   -1    0    0    0    0  0.00000000000E+00  0.00000000000E+00  0.45593999997E+02  0.45594000000E+02  0.51100000000E-03 0.  1.
         11   -1    0    0    0    0 -0.00000000000E+00 -0.00000000000E+00 -0.45593999997E+02  0.45594000000E+02  0.51100000000E-03 0. -1.
    9900012    2    1    2    0    0  0.32556005855E+02 -0.13800299911E+02 -0.20070470951E+02  0.50528860818E+02  0.30000002942E+02 0.  0.
        -12    1    1    2    0    0 -0.32556005855E+02  0.13800299911E+02  0.20070470951E+02  0.40659139182E+02  0.00000000000E+00 0.  1.
         11    1    3    3    0    0  0.92114587325E+01 -0.10030949671E+02  0.28205576895E+01  0.13907784483E+02  0.51100000000E-03 0. -1.
        -11    1    3    3    0    0  0.12120440445E+02 -0.93946785972E+01 -0.85373667809E+01  0.17551401492E+02  0.51100000000E-03 0.  1.
        -12    1    3    3    0    0  0.11224106678E+02  0.56253283576E+01 -0.14353661859E+02  0.19069674843E+02  0.00000000000E+00 0.  1.
</event>
<event>
 7    1  0.5753610E-013  0.5052889E+02  0.7816164E-02  0.1300439E+00
        -11   -1    0    0    0    0  0.00000000000E+00  0.00000000000E+00  0.45593999997E+02  0.45594000000E+02  0.51100000000E-03 0.  1.
         11   -1    0    0    0    0 -0.00000000000E+00 -0.00000000000E+00 -0.45593999997E+02  0.45594000000E+02  0.51100000000E-03 0. -1.
    9900012    2    1    2    0    0 -0.48242846903E+01  0.68065622980E+01 -0.39793967054E+02  0.50528894906E+02  0.30000106558E+02 0.  0.
        -12    1    1    2    0    0  0.48242846903E+01 -0.68065622980E+01  0.39793967054E+02  0.40659105094E+02  0.00000000000E+00 0.  1.
         11    1    3    3    0    0 -0.89123226288E+00 -0.22892379200E+01 -0.13096338979E+02  0.13324751409E+02  0.51100000000E-03 0. -1.
        -11    1    3    3    0    0 -0.12621293638E+02  0.18678927270E+01 -0.71528175931E+01  0.14626991356E+02  0.51100000000E-03 0.  1.
         12    1    3    3    0    0  0.86882412109E+01  0.72279074911E+01 -0.19544810482E+02  0.22577152142E+02  0.00000000000E+00 0. -1.
</event>
<event>
 7    1  0.5753610E-013  0.5052887E+02  0.7816164E-02  0.1300439E+00
        -11   -1    0    0    0    0  0.00000000000E+00  0.00000000000E+00  0.45593999997E+02  0.45594000000E+02  0.51100000000E-03 0.  1.
         11   -1    0    0    0    0 -0.00000000000E+00 -0.00000000000E+00 -0.45593999997E+02  0.45594000000E+02  0.51100000000E-03 0. -1.
    9900012    2    1    2    0    0  0.29472905006E+02 -0.27883332182E+02  0.26518458279E+01  0.50528872743E+02  0.30000039188E+02 0.  0.
        -12    1    1    2    0    0 -0.29472905006E+02  0.27883332182E+02 -0.26518458279E+01  0.40659127257E+02  0.00000000000E+00 0.  1.
         11    1    3    3    0    0  0.50209126010E+01 -0.69637367424E+01  0.14824602740E+01  0.87121111958E+01  0.51100000000E-03 0. -1.
        -11    1    3    3    0    0  0.83341598590E+01 -0.19825235795E+01  0.11957821236E+02  0.14709796371E+02  0.51100000000E-03 0.  1.
         12    1    3    3    0    0  0.16117832546E+02 -0.18937071860E+02 -0.10788435682E+02  0.27106965176E+02  0.00000000000E+00 0. -1.
</event>
<event>
 7    1  0.5753610E-013  0.5052886E+02  0.7816164E-02  0.1300439E+00
        -11   -1    0    0    0    0  0.00000000000E+00  0.00000000000E+00  0.45593999997E+02  0.45594000000E+02  0.51100000000E-03 0.  1.
         11   -1    0    0    0    0 -0.00000000000E+00 -0.00000000000E+00 -0.45593999997E+02  0.45594000000E+02  0.51100000000E-03 0. -1.
    9900012    2    1    2    0    0 -0.13392936582E+02  0.26918271721E+02 -0.27371546642E+02  0.50528859966E+02  0.30000000352E+02 0.  0.
        -12    1    1    2    0    0  0.13392936582E+02 -0.26918271721E+02  0.27371546642E+02  0.40659140034E+02  0.00000000000E+00 0.  1.
         11    1    3    3    0    0 -0.24771208244E+01  0.89065919714E+01 -0.16718087730E+02  0.19103873056E+02  0.51100000000E-03 0. -1.
        -11    1    3    3    0    0  0.36931726647E+01  0.13720668048E+02 -0.36794858522E+01  0.14677699834E+02  0.51100000000E-03 0.  1.
         12    1    3    3    0    0 -0.14608988423E+02  0.42910117018E+01 -0.69739730593E+01  0.16747287075E+02  0.00000000000E+00 0. -1.
</event>
<event>
 7    1  0.5753610E-013  0.5052886E+02  0.7816164E-02  0.1300439E+00
        -11   -1    0    0    0    0  0.00000000000E+00  0.00000000000E+00  0.45593999997E+02  0.45594000000E+02  0.51100000000E-03 0.  1.
         11   -1    0    0    0    0 -0.00000000000E+00 -0.00000000000E+00 -0.45593999997E+02  0.45594000000E+02  0.51100000000E-03 0. -1.
    9900012    2    1    2    0    0 -0.22386541028E+02  0.94292947718E+01 -0.32605166848E+02  0.50528859278E+02  0.29999998262E+02 0.  0.
        -12    1    1    2    0    0  0.22386541028E+02 -0.94292947718E+01  0.32605166848E+02  0.40659140722E+02  0.00000000000E+00 0.  1.
         11    1    3    3    0    0  0.28918635050E+01  0.10207506268E+00  0.84179467057E+00  0.30136211405E+01  0.51100000000E-03 0. -1.
        -11    1    3    3    0    0 -0.21316396196E+02 -0.20564613665E+01 -0.24259368259E+02  0.32359461194E+02  0.51100000000E-03 0.  1.
         12    1    3    3    0    0 -0.39620083361E+01  0.11383681076E+02 -0.91875932589E+01  0.15155776944E+02  0.00000000000E+00 0. -1.
</event>
<event>
 7    1  0.5753610E-013  0.5052886E+02  0.7816164E-02  0.1300439E+00
        -11   -1    0    0    0    0  0.00000000000E+00  0.00000000000E+00  0.45593999997E+02  0.45594000000E+02  0.51100000000E-03 0.  1.
         11   -1    0    0    0    0 -0.00000000000E+00 -0.00000000000E+00 -0.45593999997E+02  0.45594000000E+02  0.51100000000E-03 0. -1.
    9900012    2    1    2    0    0 -0.21662756642E+02  0.23224507891E+02 -0.25387257748E+02  0.50528860215E+02  0.30000001110E+02 0.  0.
        -12    1    1    2    0    0  0.21662756642E+02 -0.23224507891E+02  0.25387257748E+02  0.40659139785E+02  0.00000000000E+00 0.  1.
         11    1    3    3    0    0 -0.12318476775E+02  0.21287802949E+02 -0.14337088935E+02  0.28468711665E+02  0.51100000000E-03 0. -1.
        -11    1    3    3    0    0  0.45516657193E+01  0.16500966493E+01 -0.10950299656E+01  0.49638262116E+01  0.51100000000E-03 0.  1.
         12    1    3    3    0    0 -0.13895945586E+02  0.28660829213E+00 -0.99551388473E+01  0.17096322339E+02  0.00000000000E+00 0. -1.
</event>
<event>
 7    1  0.5753610E-013  0.5052888E+02  0.7816164E-02  0.1300439E+00
        -11   -1    0    0    0    0  0.00000000000E+00  0.00000000000E+00  0.45593999997E+02  0.45594000000E+02  0.51100000000E-03 0.  1.
         11   -1    0    0    0    0 -0.00000000000E+00 -0.00000000000E+00 -0.45593999997E+02  0.45594000000E+02  0.51100000000E-03 0. -1.
    9900012    2    1    2    0    0 -0.11896492043E+02  0.14644480779E+02 -0.36016339286E+02  0.50528880042E+02  0.30000061376E+02 0.  0.
        -12    1    1    2    0    0  0.11896492043E+02 -0.14644480779E+02  0.36016339286E+02  0.40659119958E+02  0.00000000000E+00 0.  1.
         11    1    3    3    0    0  0.35440085638E+01  0.86878020144E+01 -0.16253970954E+02  0.18767777508E+02  0.51100000000E-03 0. -1.
        -11    1    3    3    0    0 -0.58994737724E+00  0.69175226081E+01  0.98635816930E-01  0.69433339418E+01  0.51100000000E-03 0.  1.
         12    1    3    3    0    0 -0.14850553230E+02 -0.96084384360E+00 -0.19861004148E+02  0.24817768592E+02  0.00000000000E+00 0. -1.
</event>
<event>
 7    1  0.5753610E-013  0.5052891E+02  0.7816164E-02  0.1300439E+00
        -11   -1    0    0    0    0  0.00000000000E+00  0.00000000000E+00  0.45593999997E+02  0.45594000000E+02  0.51100000000E-03 0.  1.
         11   -1    0    0    0    0 -0.00000000000E+00 -0.00000000000E+00 -0.45593999997E+02  0.45594000000E+02  0.51100000000E-03 0. -1.
    9900012    2    1    2    0    0  0.37193675293E+02 -0.68360864685E+01  0.14935186898E+02  0.50528912853E+02  0.30000161106E+02 0.  0.
        -12    1    1    2    0    0 -0.37193675293E+02  0.68360864685E+01 -0.14935186898E+02  0.40659087147E+02  0.00000000000E+00 0.  1.
         11    1    3    3    0    0  0.13141264478E+01 -0.60815606022E+01  0.12155073848E+01  0.63395398999E+01  0.51100000000E-03 0. -1.
        -11    1    3    3    0    0  0.10237252032E+02  0.74362995783E+01  0.11636215452E+02  0.17190153894E+02  0.51100000000E-03 0.  1.
         12    1    3    3    0    0  0.25642296813E+02 -0.81908254446E+01  0.20834640612E+01  0.26999219059E+02  0.00000000000E+00 0. -1.
</event>
<event>
 7    1  0.5753610E-013  0.5052883E+02  0.7816164E-02  0.1300439E+00
        -11   -1    0    0    0    0  0.00000000000E+00  0.00000000000E+00  0.45593999997E+02  0.45594000000E+02  0.51100000000E-03 0.  1.
         11   -1    0    0    0    0 -0.00000000000E+00 -0.00000000000E+00 -0.45593999997E+02  0.45594000000E+02  0.51100000000E-03 0. -1.
    9900012    2    1    2    0    0  0.24274042705E+02  0.30238792504E+02 -0.12229256988E+02  0.50528825786E+02  0.29999896458E+02 0.  0.
        -12    1    1    2    0    0 -0.24274042705E+02 -0.30238792504E+02  0.12229256988E+02  0.40659174214E+02  0.00000000000E+00 0.  1.
         11    1    3    3    0    0  0.13204232357E+02  0.22427727649E+02 -0.16879140021E+02  0.31020317338E+02  0.51100000000E-03 0. -1.
        -11    1    3    3    0    0  0.80367951261E+01 -0.22359531317E+01  0.10224840247E+01  0.84044652506E+01  0.51100000000E-03 0.  1.
        -12    1    3    3    0    0  0.30330152216E+01  0.10047017986E+02  0.36273990091E+01  0.11104043197E+02  0.00000000000E+00 0.  1.
</event>
<event>
 7    1  0.5753610E-013  0.5052886E+02  0.7816164E-02  0.1300439E+00
        -11   -1    0    0    0    0  0.00000000000E+00  0.00000000000E+00  0.45593999997E+02  0.45594000000E+02  0.51100000000E-03 0.  1.
         11   -1    0    0    0    0 -0.00000000000E+00 -0.00000000000E+00 -0.45593999997E+02  0.45594000000E+02  0.51100000000E-03 0. -1.
    9900012    2    1    2    0    0 -0.24864935093E+02 -0.26496020264E+02 -0.18244502911E+02  0.50528856213E+02  0.29999988946E+02 0.  0.
        -12    1    1    2    0    0  0.24864935093E+02  0.26496020264E+02  0.18244502911E+02  0.40659143787E+02  0.00000000000E+00 0.  1.
         11    1    3    3    0    0 -0.14660850908E+02 -0.16792901919E+02 -0.68759723776E+01  0.23328546903E+02  0.51100000000E-03 0. -1.
        -11    1    3    3    0    0  0.20035493366E+01 -0.52661973252E+01 -0.12943046940E+02  0.14116285226E+02  0.51100000000E-03 0.  1.
         12    1    3    3    0    0 -0.12207633521E+02 -0.44369210199E+01  0.15745164071E+01  0.13084024085E+02  0.00000000000E+00 0. -1.
</event>
<event>
 7    1  0.5753610E-013  0.5052892E+02  0.7816164E-02  0.1300439E+00
        -11   -1    0    0    0    0  0.00000000000E+00  0.00000000000E+00  0.45593999997E+02  0.45594000000E+02  0.51100000000E-03 0. -1.
         11   -1    0    0    0    0 -0.00000000000E+00 -0.00000000000E+00 -0.45593999997E+02  0.45594000000E+02  0.51100000000E-03 0.  1.
    9900012    2    1    2    0    0 -0.33909961930E+02  0.22388567668E+02 -0.14237318906E+01  0.50528923611E+02  0.30000193807E+02 0.  0.
        -12    1    1    2    0    0  0.33909961930E+02 -0.22388567668E+02  0.14237318906E+01  0.40659076389E+02  0.00000000000E+00 0.  1.
         11    1    3    3    0    0 -0.73289953113E+01  0.23657431447E+01  0.76572860686E+01  0.10860245996E+02  0.51100000000E-03 0. -1.
        -11    1    3    3    0    0 -0.17081880269E+02  0.19323545042E+02  0.98567789184E+00  0.25810106309E+02  0.51100000000E-03 0.  1.
         12    1    3    3    0    0 -0.94990863495E+01  0.69927948150E+00 -0.10066695851E+02  0.13858571305E+02  0.00000000000E+00 0. -1.
</event>
<event>
 7    1  0.5753610E-013  0.5052886E+02  0.7816164E-02  0.1300439E+00
        -11   -1    0    0    0    0  0.00000000000E+00  0.00000000000E+00  0.45593999997E+02  0.45594000000E+02  0.51100000000E-03 0. -1.
         11   -1    0    0    0    0 -0.00000000000E+00 -0.00000000000E+00 -0.45593999997E+02  0.45594000000E+02  0.51100000000E-03 0.  1.
    9900012    2    1    2    0    0 -0.12964792415E+01  0.26067555703E+02  0.31176397352E+02  0.50528855019E+02  0.29999985314E+02 0.  0.
        -12    1    1    2    0    0  0.12964792415E+01 -0.26067555703E+02 -0.31176397352E+02  0.40659144981E+02  0.00000000000E+00 0.  1.
         11    1    3    3    0    0 -0.63025753626E+01  0.11752174912E+02  0.61321120281E+01  0.14677835997E+02  0.51100000000E-03 0. -1.
        -11    1    3    3    0    0  0.71939155757E+01  0.19060479789E+02  0.20847172828E+02  0.29148909521E+02  0.51100000000E-03 0.  1.
         12    1    3    3    0    0 -0.21878194547E+01 -0.47450989970E+01  0.41971124965E+01  0.67021095012E+01  0.00000000000E+00 0. -1.
</event>
<event>
 7    1  0.5753610E-013  0.5052885E+02  0.7816164E-02  0.1300439E+00
        -11   -1    0    0    0    0  0.00000000000E+00  0.00000000000E+00  0.45593999997E+02  0.45594000000E+02  0.51100000000E-03 0.  1.
         11   -1    0    0    0    0 -0.00000000000E+00 -0.00000000000E+00 -0.45593999997E+02  0.45594000000E+02  0.51100000000E-03 0. -1.
    9900012    2    1    2    0    0  0.19769792842E+02  0.33345777280E+02  0.12262986263E+02  0.50528850925E+02  0.29999972872E+02 0.  0.
        -12    1    1    2    0    0 -0.19769792842E+02 -0.33345777280E+02 -0.12262986263E+02  0.40659149075E+02  0.00000000000E+00 0.  1.
         11    1    3    3    0    0 -0.58167617676E+00  0.53065720089E+01 -0.44258798663E+01  0.69344406056E+01  0.51100000000E-03 0. -1.
        -11    1    3    3    0    0  0.14152337089E+02  0.85111308251E+01  0.16150302623E+02  0.23098923526E+02  0.51100000000E-03 0.  1.
         12    1    3    3    0    0  0.61991319304E+01  0.19528074446E+02  0.53856350658E+00  0.20495486793E+02  0.00000000000E+00 0. -1.
</event>
<event>
 7    1  0.5753610E-013  0.5052885E+02  0.7816164E-02  0.1300439E+00
        -11   -1    0    0    0    0  0.00000000000E+00  0.00000000000E+00  0.45593999997E+02  0.45594000000E+02  0.51100000000E-03 0. -1.
         11   -1    0    0    0    0 -0.00000000000E+00 -0.00000000000E+00 -0.45593999997E+02  0.45594000000E+02  0.51100000000E-03 0.  1.
    9900012    2    1    2    0    0 -0.83189376722E+01 -0.10615073454E+01  0.39784859834E+02  0.50528848584E+02  0.29999965755E+02 0.  0.
        -12    1    1    2    0    0  0.83189376722E+01  0.10615073454E+01 -0.39784859834E+02  0.40659151416E+02  0.00000000000E+00 0.  1.
         11    1    3    3    0    0 -0.11277799367E+02 -0.60103257515E+01  0.14804518640E+02  0.19557263270E+02  0.51100000000E-03 0. -1.
        -11    1    3    3    0    0  0.33048916024E+01 -0.46657622464E+01  0.19978827956E+01  0.60566642444E+01  0.51100000000E-03 0.  1.
         12    1    3    3    0    0 -0.34602990741E+00  0.96145806525E+01  0.22982458399E+02  0.24914921069E+02  0.00000000000E+00 0. -1.
</event>
<event>
 7    1  0.5753610E-013  0.5052886E+02  0.7816164E-02  0.1300439E+00
        -11   -1    0    0    0    0  0.00000000000E+00  0.00000000000E+00  0.45593999997E+02  0.45594000000E+02  0.51100000000E-03 0.  1.
         11   -1    0    0    0    0 -0.00000000000E+00 -0.00000000000E+00 -0.45593999997E+02  0.45594000000E+02  0.51100000000E-03 0. -1.
    9900012    2    1    2    0    0 -0.59795358475E+01  0.31984003367E+02 -0.24381018760E+02  0.50528863313E+02  0.30000010527E+02 0.  0.
        -12    1    1    2    0    0  0.59795358475E+01 -0.31984003367E+02  0.24381018760E+02  0.40659136687E+02  0.00000000000E+00 0.  1.
         11    1    3    3    0    0 -0.42057312012E+01  0.23679026603E+02 -0.18484552254E+02  0.30332542724E+02  0.51100000000E-03 0. -1.
        -11    1    3    3    0    0  0.56261355502E+01  0.63634772771E+01 -0.85950192747E+01  0.12083939791E+02  0.51100000000E-03 0.  1.
        -12    1    3    3    0    0 -0.73999401965E+01  0.19414994866E+01  0.26985527688E+01  0.81123807982E+01  0.00000000000E+00 0.  1.
</event>
<event>
 7    1  0.5753610E-013  0.5052886E+02  0.7816164E-02  0.1300439E+00
        -11   -1    0    0    0    0  0.00000000000E+00  0.00000000000E+00  0.45593999997E+02  0.45594000000E+02  0.51100000000E-03 0.  1.
         11   -1    0    0    0    0 -0.00000000000E+00 -0.00000000000E+00 -0.45593999997E+02  0.45594000000E+02  0.51100000000E-03 0. -1.
    9900012    2    1    2    0    0  0.57373503109E+01  0.38572701145E+02 -0.11506312008E+02  0.50528859844E+02  0.29999999981E+02 0.  0.
        -12    1    1    2    0    0 -0.57373503109E+01 -0.38572701145E+02  0.11506312008E+02  0.40659140156E+02  0.00000000000E+00 0.  1.
         11    1    3    3    0    0 -0.51921215005E+01  0.10121866764E+02 -0.15835847782E+02  0.19498317560E+02  0.51100000000E-03 0. -1.
        -11    1    3    3    0    0  0.91820710481E+00  0.55473887556E+01  0.18148883005E+01  0.59085062492E+01  0.51100000000E-03 0.  1.
        -12    1    3    3    0    0  0.10011264707E+02  0.22903445626E+02  0.25146474735E+01  0.25122036034E+02  0.00000000000E+00 0.  1.
</event>
<event>
 7    1  0.5753610E-013  0.5052886E+02  0.7816164E-02  0.1300439E+00
        -11   -1    0    0    0    0  0.00000000000E+00  0.00000000000E+00  0.45593999997E+02  0.45594000000E+02  0.51100000000E-03 0.  1.
         11   -1    0    0    0    0 -0.00000000000E+00 -0.00000000000E+00 -0.45593999997E+02  0.45594000000E+02  0.51100000000E-03 0. -1.
    9900012    2    1    2    0    0 -0.47134774787E+01  0.21457829438E+02 -0.34212723324E+02  0.50528858944E+02  0.29999997246E+02 0.  0.
        -12    1    1    2    0    0  0.47134774787E+01 -0.21457829438E+02  0.34212723324E+02  0.40659141056E+02  0.00000000000E+00 0.  1.
         11    1    3    3    0    0  0.73453658199E+01  0.14598517186E+02 -0.15323508730E+02  0.22402701246E+02  0.51100000000E-03 0. -1.
        -11    1    3    3    0    0 -0.22245014823E+01  0.20521230014E+01 -0.16688542884E+02  0.16960751148E+02  0.51100000000E-03 0.  1.
        -12    1    3    3    0    0 -0.98343418163E+01  0.48071892508E+01 -0.22006717107E+01  0.11165406550E+02  0.00000000000E+00 0.  1.
</event>
<event>
 7    1  0.5753610E-013  0.5052875E+02  0.7816164E-02  0.1300439E+00
        -11   -1    0    0    0    0  0.00000000000E+00  0.00000000000E+00  0.45593999997E+02  0.45594000000E+02  0.51100000000E-03 0.  1.
         11   -1    0    0    0    0 -0.00000000000E+00 -0.00000000000E+00 -0.45593999997E+02  0.45594000000E+02  0.51100000000E-03 0. -1.
    9900012    2    1    2    0    0 -0.39246374743E+02  0.10167020673E+02 -0.30868114568E+01  0.50528749579E+02  0.29999664819E+02 0.  0.
        -12    1    1    2    0    0  0.39246374743E+02 -0.10167020673E+02  0.30868114568E+01  0.40659250421E+02  0.00000000000E+00 0.  1.
         11    1    3    3    0    0 -0.22429705489E+02 -0.20593152078E+01 -0.46435689967E+01  0.22997721642E+02  0.51100000000E-03 0. -1.
        -11    1    3    3    0    0 -0.40666523844E+01 -0.40293319919E+01  0.36130279990E+01  0.67695752820E+01  0.51100000000E-03 0.  1.
        -12    1    3    3    0    0 -0.12750016870E+02  0.16255667872E+02 -0.20562704591E+01  0.20761452655E+02  0.00000000000E+00 0.  1.
</event>
<event>
 7    1  0.5753610E-013  0.5052888E+02  0.7816164E-02  0.1300439E+00
        -11   -1    0    0    0    0  0.00000000000E+00  0.00000000000E+00  0.45593999997E+02  0.45594000000E+02  0.51100000000E-03 0. -1.
         11   -1    0    0    0    0 -0.00000000000E+00 -0.00000000000E+00 -0.45593999997E+02  0.45594000000E+02  0.51100000000E-03 0.  1.
    9900012    2    1    2    0    0  0.11449888786E+02 -0.31201388562E+01  0.38888669905E+02  0.50528882121E+02  0.30000067696E+02 0.  0.
        -12    1    1    2    0    0 -0.11449888786E+02  0.31201388562E+01 -0.38888669905E+02  0.40659117879E+02  0.00000000000E+00 0.  1.
         11    1    3    3    0    0 -0.51261344925E+01 -0.40157831992E+01  0.21811928164E+01  0.68674137710E+01  0.51100000000E-03 0. -1.
        -11    1    3    3    0    0 -0.13648423581E+01 -0.24794912158E+01  0.19191378239E+00  0.28368120334E+01  0.51100000000E-03 0.  1.
         12    1    3    3    0    0  0.17940865636E+02  0.33751355589E+01  0.36515563306E+02  0.40824656317E+02  0.00000000000E+00 0. -1.
</event>
<event>
 7    1  0.5753610E-013  0.5052883E+02  0.7816164E-02  0.1300439E+00
        -11   -1    0    0    0    0  0.00000000000E+00  0.00000000000E+00  0.45593999997E+02  0.45594000000E+02  0.51100000000E-03 0.  1.
         11   -1    0    0    0    0 -0.00000000000E+00 -0.00000000000E+00 -0.45593999997E+02  0.45594000000E+02  0.51100000000E-03 0. -1.
    9900012    2    1    2    0    0 -0.24801686811E+02  0.61174276320E+01 -0.31632600405E+02  0.50528831318E+02  0.29999913275E+02 0.  0.
        -12    1    1    2    0    0  0.24801686811E+02 -0.61174276320E+01  0.31632600405E+02  0.40659168682E+02  0.00000000000E+00 0.  1.
         11    1    3    3    0    0  0.10138716753E+01 -0.75493482825E+00  0.12480930807E+01  0.17764005652E+01  0.51100000000E-03 0. -1.
        -11    1    3    3    0    0 -0.13209238870E+02  0.43364805726E+01 -0.49987062043E+00  0.13911826845E+02  0.51100000000E-03 0.  1.
         12    1    3    3    0    0 -0.12606319616E+02  0.25358818876E+01 -0.32380822865E+02  0.34840603908E+02  0.00000000000E+00 0. -1.
</event>
<event>
 7    1  0.5753610E-013  0.5052887E+02  0.7816164E-02  0.1300439E+00
        -11   -1    0    0    0    0  0.00000000000E+00  0.00000000000E+00  0.45593999997E+02  0.45594000000E+02  0.51100000000E-03 0.  1.
         11   -1    0    0    0    0 -0.00000000000E+00 -0.00000000000E+00 -0.45593999997E+02  0.45594000000E+02  0.51100000000E-03 0. -1.
    9900012    2    1    2    0    0 -0.36254588138E+02 -0.10277343195E+02 -0.15269124364E+02  0.50528866918E+02  0.30000021483E+02 0.  0.
        -12    1    1    2    0    0  0.36254588138E+02  0.10277343195E+02  0.15269124364E+02  0.40659133082E+02  0.00000000000E+00 0.  1.
         11    1    3    3    0    0 -0.42181814971E+01 -0.91475371648E+01  0.11943512209E+01  0.10143814195E+02  0.51100000000E-03 0. -1.
        -11    1    3    3    0    0 -0.26736217011E+01  0.37836578503E+01  0.23223761192E+01  0.51824464135E+01  0.51100000000E-03 0.  1.
        -12    1    3    3    0    0 -0.29362784939E+02 -0.49134638806E+01 -0.18785851704E+02  0.35202606309E+02  0.00000000000E+00 0.  1.
</event>
<event>
 7    1  0.5753610E-013  0.5052886E+02  0.7816164E-02  0.1300439E+00
        -11   -1    0    0    0    0  0.00000000000E+00  0.00000000000E+00  0.45593999997E+02  0.45594000000E+02  0.51100000000E-03 0.  1.
         11   -1    0    0    0    0 -0.00000000000E+00 -0.00000000000E+00 -0.45593999997E+02  0.45594000000E+02  0.51100000000E-03 0. -1.
    9900012    2    1    2    0    0 -0.36643885181E+02  0.12457793838E+02 -0.12457715814E+02  0.50528860415E+02  0.30000001718E+02 0.  0.
        -12    1    1    2    0    0  0.36643885181E+02 -0.12457793838E+02  0.12457715814E+02  0.40659139585E+02  0.00000000000E+00 0.  1.
         11    1    3    3    0    0  0.13078568405E+01 -0.11509802193E+01  0.30747798466E+00  0.17691206721E+01  0.51100000000E-03 0. -1.
        -11    1    3    3    0    0 -0.15399026830E+02  0.11741158622E+02  0.49885611771E+01  0.19996764137E+02  0.51100000000E-03 0.  1.
         12    1    3    3    0    0 -0.22552715192E+02  0.18676154356E+01 -0.17753754976E+02  0.28762975606E+02  0.00000000000E+00 0. -1.
</event>
<event>
 7    1  0.5753610E-013  0.5052886E+02  0.7816164E-02  0.1300439E+00
        -11   -1    0    0    0    0  0.00000000000E+00  0.00000000000E+00  0.45593999997E+02  0.45594000000E+02  0.51100000000E-03 0.  1.
         11   -1    0    0    0    0 -0.00000000000E+00 -0.00000000000E+00 -0.45593999997E+02  0.45594000000E+02  0.51100000000E-03 0. -1.
    9900012    2    1    2    0    0  0.48563801238E+01 -0.65521126969E+01 -0.39832785483E+02  0.50528863167E+02  0.30000010081E+02 0.  0.
        -12    1    1    2    0    0 -0.48563801238E+01  0.65521126969E+01  0.39832785483E+02  0.40659136833E+02  0.00000000000E+00 0.  1.
         11    1    3    3    0    0 -0.40346503486E+01 -0.52908037391E+01 -0.29848502010E+01  0.72924850788E+01  0.51100000000E-03 0. -1.
        -11    1    3    3    0    0  0.16336796311E+01  0.62690643887E+01 -0.18913594637E+01  0.67488753381E+01  0.51100000000E-03 0.  1.
         12    1    3    3    0    0  0.72573508412E+01 -0.75303733465E+01 -0.34956575818E+02  0.36487502750E+02  0.00000000000E+00 0. -1.
</event>
<event>
 7    1  0.5753610E-013  0.5052886E+02  0.7816164E-02  0.1300439E+00
        -11   -1    0    0    0    0  0.00000000000E+00  0.00000000000E+00  0.45593999997E+02  0.45594000000E+02  0.51100000000E-03 0.  1.
         11   -1    0    0    0    0 -0.00000000000E+00 -0.00000000000E+00 -0.45593999997E+02  0.45594000000E+02  0.51100000000E-03 0. -1.
    9900012    2    1    2    0    0  0.13641187085E+02 -0.36420546146E+02  0.11858634039E+02  0.50528863660E+02  0.30000011580E+02 0.  0.
        -12    1    1    2    0    0 -0.13641187085E+02  0.36420546146E+02 -0.11858634039E+02  0.40659136340E+02  0.00000000000E+00 0.  1.
         11    1    3    3    0    0  0.10650024182E+02 -0.43591687082E+01  0.68462646183E+01  0.13390172007E+02  0.51100000000E-03 0. -1.
        -11    1    3    3    0    0  0.14369187026E+01 -0.35374753555E+01 -0.55035897093E+01  0.66983555592E+01  0.51100000000E-03 0.  1.
        -12    1    3    3    0    0  0.15542442007E+01 -0.28523902082E+02  0.10515959130E+02  0.30440336093E+02  0.00000000000E+00 0.  1.
</event>
<event>
 7    1  0.5753610E-013  0.5052886E+02  0.7816164E-02  0.1300439E+00
        -11   -1    0    0    0    0  0.00000000000E+00  0.00000000000E+00  0.45593999997E+02  0.45594000000E+02  0.51100000000E-03 0.  1.
         11   -1    0    0    0    0 -0.00000000000E+00 -0.00000000000E+00 -0.45593999997E+02  0.45594000000E+02  0.51100000000E-03 0. -1.
    9900012    2    1    2    0    0  0.61571654575E+01 -0.74037556558E+01 -0.39502398328E+02  0.50528858864E+02  0.29999997002E+02 0.  0.
        -12    1    1    2    0    0 -0.61571654575E+01  0.74037556558E+01  0.39502398328E+02  0.40659141136E+02  0.00000000000E+00 0.  1.
         11    1    3    3    0    0 -0.24340517742E+01  0.26993082501E+01  0.29266427478E+01  0.46664880909E+01  0.51100000000E-03 0. -1.
        -11    1    3    3    0    0  0.51735139462E+01 -0.17425061195E+01 -0.51506286024E+01  0.75053680382E+01  0.51100000000E-03 0.  1.
         12    1    3    3    0    0  0.34177032855E+01 -0.83605577865E+01 -0.37278412473E+02  0.38357002735E+02  0.00000000000E+00 0. -1.
</event>
<event>
 7    1  0.5753610E-013  0.5052886E+02  0.7816164E-02  0.1300439E+00
        -11   -1    0    0    0    0  0.00000000000E+00  0.00000000000E+00  0.45593999997E+02  0.45594000000E+02  0.51100000000E-03 0.  1.
         11   -1    0    0    0    0 -0.00000000000E+00 -0.00000000000E+00 -0.45593999997E+02  0.45594000000E+02  0.51100000000E-03 0. -1.
    9900012    2    1    2    0    0  0.25414474742E+02 -0.21385831970E+02 -0.23450299537E+02  0.50528857316E+02  0.29999992296E+02 0.  0.
        -12    1    1    2    0    0 -0.25414474742E+02  0.21385831970E+02  0.23450299537E+02  0.40659142684E+02  0.00000000000E+00 0.  1.
         11    1    3    3    0    0 -0.19327718619E+01 -0.36568831924E+01 -0.18359319805E+01  0.45253782440E+01  0.51100000000E-03 0. -1.
        -11    1    3    3    0    0  0.48215643706E+01  0.60771487529E+01 -0.30396984957E+01  0.83318057557E+01  0.51100000000E-03 0.  1.
         12    1    3    3    0    0  0.22525682234E+02 -0.23806097530E+02 -0.18574669061E+02  0.37671673316E+02  0.00000000000E+00 0. -1.
</event>
<event>
 7    1  0.5753610E-013  0.5052886E+02  0.7816164E-02  0.1300439E+00
        -11   -1    0    0    0    0  0.00000000000E+00  0.00000000000E+00  0.45593999997E+02  0.45594000000E+02  0.51100000000E-03 0. -1.
         11   -1    0    0    0    0 -0.00000000000E+00 -0.00000000000E+00 -0.45593999997E+02  0.45594000000E+02  0.51100000000E-03 0.  1.
    9900012    2    1    2    0    0  0.37129022331E+02 -0.16348289047E+02 -0.27083415228E+01  0.50528856282E+02  0.29999989155E+02 0.  0.
        -12    1    1    2    0    0 -0.37129022331E+02  0.16348289047E+02  0.27083415228E+01  0.40659143718E+02  0.00000000000E+00 0.  1.
         11    1    3    3    0    0  0.21977596471E+02 -0.87930799281E+01  0.87442387209E+01  0.25234791704E+02  0.51100000000E-03 0. -1.
        -11    1    3    3    0    0  0.14307680910E+02 -0.81230786110E+01 -0.29307701953E+01  0.16711778880E+02  0.51100000000E-03 0.  1.
        -12    1    3    3    0    0  0.84374495009E+00  0.56786949159E+00 -0.85218100484E+01  0.85822856980E+01  0.00000000000E+00 0.  1.
</event>
<event>
 7    1  0.5753610E-013  0.5052887E+02  0.7816164E-02  0.1300439E+00
        -11   -1    0    0    0    0  0.00000000000E+00  0.00000000000E+00  0.45593999997E+02  0.45594000000E+02  0.51100000000E-03 0. -1.
         11   -1    0    0    0    0 -0.00000000000E+00 -0.00000000000E+00 -0.45593999997E+02  0.45594000000E+02  0.51100000000E-03 0.  1.
    9900012    2    1    2    0    0 -0.29363128192E+02 -0.70869744480E+01  0.27216659795E+02  0.50528867269E+02  0.30000022550E+02 0.  0.
        -12    1    1    2    0    0  0.29363128192E+02  0.70869744480E+01 -0.27216659795E+02  0.40659132731E+02  0.00000000000E+00 0.  1.
         11    1    3    3    0    0 -0.59601374377E+01 -0.10779476631E+01 -0.10202751169E+01  0.61421633824E+01  0.51100000000E-03 0. -1.
        -11    1    3    3    0    0  0.17478614686E+01  0.49834607709E+01  0.10365395231E+02  0.11633199024E+02  0.51100000000E-03 0.  1.
         12    1    3    3    0    0 -0.25150852223E+02 -0.10992487556E+02  0.17871539681E+02  0.32753504862E+02  0.00000000000E+00 0. -1.
</event>
<event>
 7    1  0.5753610E-013  0.5052889E+02  0.7816164E-02  0.1300439E+00
        -11   -1    0    0    0    0  0.00000000000E+00  0.00000000000E+00  0.45593999997E+02  0.45594000000E+02  0.51100000000E-03 0. -1.
         11   -1    0    0    0    0 -0.00000000000E+00 -0.00000000000E+00 -0.45593999997E+02  0.45594000000E+02  0.51100000000E-03 0.  1.
    9900012    2    1    2    0    0 -0.33674284769E+02  0.30511553145E+01  0.22580877659E+02  0.50528892296E+02  0.30000098622E+02 0.  0.
        -12    1    1    2    0    0  0.33674284769E+02 -0.30511553145E+01 -0.22580877659E+02  0.40659107704E+02  0.00000000000E+00 0.  1.
         11    1    3    3    0    0 -0.74335477521E+00  0.15364719684E+00 -0.41811098353E+01  0.42494544943E+01  0.51100000000E-03 0. -1.
        -11    1    3    3    0    0 -0.41594238614E+01 -0.62971024049E+01  0.56563981301E+01  0.94312854703E+01  0.51100000000E-03 0.  1.
         12    1    3    3    0    0 -0.28771506133E+02  0.91946105226E+01  0.21105589364E+02  0.36848152331E+02  0.00000000000E+00 0. -1.
</event>
<event>
 7    1  0.5753610E-013  0.5052885E+02  0.7816164E-02  0.1300439E+00
        -11   -1    0    0    0    0  0.00000000000E+00  0.00000000000E+00  0.45593999997E+02  0.45594000000E+02  0.51100000000E-03 0.  1.
         11   -1    0    0    0    0 -0.00000000000E+00 -0.00000000000E+00 -0.45593999997E+02  0.45594000000E+02  0.51100000000E-03 0. -1.
    9900012    2    1    2    0    0 -0.89509554778E+01 -0.17719263436E+02 -0.35483436532E+02  0.50528853811E+02  0.29999981644E+02 0.  0.
        -12    1    1    2    0    0  0.89509554778E+01  0.17719263436E+02  0.35483436532E+02  0.40659146189E+02  0.00000000000E+00 0.  1.
         11    1    3    3    0    0 -0.13068162517E+02 -0.16852199818E+02 -0.28846899321E+02  0.35873626956E+02  0.51100000000E-03 0. -1.
        -11    1    3    3    0    0 -0.32293479860E+01  0.12510616505E+01  0.12395734650E+01  0.36783673422E+01  0.51100000000E-03 0.  1.
        -12    1    3    3    0    0  0.73465550248E+01 -0.21181252681E+01 -0.78761106764E+01  0.10976859513E+02  0.00000000000E+00 0.  1.
</event>
<event>
 7    1  0.5753610E-013  0.5052886E+02  0.7816164E-02  0.1300439E+00
        -11   -1    0    0    0    0  0.00000000000E+00  0.00000000000E+00  0.45593999997E+02  0.45594000000E+02  0.51100000000E-03 0.  1.
         11   -1    0    0    0    0 -0.00000000000E+00 -0.00000000000E+00 -0.45593999997E+02  0.45594000000E+02  0.51100000000E-03 0. -1.
    9900012    2    1    2    0    0  0.30155017049E+02 -0.20730480107E+02 -0.17722525834E+02  0.50528858584E+02  0.29999996153E+02 0.  0.
        -12    1    1    2    0    0 -0.30155017049E+02  0.20730480107E+02  0.17722525834E+02  0.40659141416E+02  0.00000000000E+00 0.  1.
         11    1    3    3    0    0  0.15062185353E+02  0.12232509809E+01 -0.84892427660E+01  0.17333003593E+02  0.51100000000E-03 0. -1.
        -11    1    3    3    0    0  0.91501143633E+01 -0.65966550395E+01 -0.12032219245E+02  0.16492869696E+02  0.51100000000E-03 0.  1.
        -12    1    3    3    0    0  0.59427173337E+01 -0.15357076048E+02  0.27989361770E+01  0.16702985296E+02  0.00000000000E+00 0.  1.
</event>
<event>
 7    1  0.5753610E-013  0.5052886E+02  0.7816164E-02  0.1300439E+00
        -11   -1    0    0    0    0  0.00000000000E+00  0.00000000000E+00  0.45593999997E+02  0.45594000000E+02  0.51100000000E-03 0. -1.
         11   -1    0    0    0    0 -0.00000000000E+00 -0.00000000000E+00 -0.45593999997E+02  0.45594000000E+02  0.51100000000E-03 0.  1.
    9900012    2    1    2    0    0  0.12306226861E+02  0.38752065185E+02  0.12165536091E-01  0.50528856826E+02  0.29999990810E+02 0.  0.
        -12    1    1    2    0    0 -0.12306226861E+02 -0.38752065185E+02 -0.12165536091E-01  0.40659143174E+02  0.00000000000E+00 0.  1.
         11    1    3    3    0    0  0.30128799173E+01  0.71463046115E+01 -0.48354410156E+01  0.91393985071E+01  0.51100000000E-03 0. -1.
        -11    1    3    3    0    0  0.62835270195E+01 -0.25102363626E+01 -0.20933114993E+00  0.67696246714E+01  0.51100000000E-03 0.  1.
         12    1    3    3    0    0  0.30098199240E+01  0.34115996936E+02  0.50569377016E+01  0.34619833648E+02  0.00000000000E+00 0. -1.
</event>
<event>
 7    1  0.5753610E-013  0.5052887E+02  0.7816164E-02  0.1300439E+00
        -11   -1    0    0    0    0  0.00000000000E+00  0.00000000000E+00  0.45593999997E+02  0.45594000000E+02  0.51100000000E-03 0.  1.
         11   -1    0    0    0    0 -0.00000000000E+00 -0.00000000000E+00 -0.45593999997E+02  0.45594000000E+02  0.51100000000E-03 0. -1.
    9900012    2    1    2    0    0 -0.92228293092E+01  0.11013116606E+02 -0.38037033704E+02  0.50528865099E+02  0.30000015956E+02 0.  0.
        -12    1    1    2    0    0  0.92228293092E+01 -0.11013116606E+02  0.38037033704E+02  0.40659134901E+02  0.00000000000E+00 0.  1.
         11    1    3    3    0    0 -0.57997408657E+01  0.15198910042E+02 -0.12915816076E+02  0.20771667380E+02  0.51100000000E-03 0. -1.
        -11    1    3    3    0    0 -0.35147396450E+01 -0.11722849178E+01  0.69145481363E+00  0.37690524965E+01  0.51100000000E-03 0.  1.
         12    1    3    3    0    0  0.91651201472E-01 -0.30135085177E+01 -0.25812672442E+02  0.25988145223E+02  0.00000000000E+00 0. -1.
</event>
<event>
 7    1  0.5753610E-013  0.5052885E+02  0.7816164E-02  0.1300439E+00
        -11   -1    0    0    0    0  0.00000000000E+00  0.00000000000E+00  0.45593999997E+02  0.45594000000E+02  0.51100000000E-03 0.  1.
         11   -1    0    0    0    0 -0.00000000000E+00 -0.00000000000E+00 -0.45593999997E+02  0.45594000000E+02  0.51100000000E-03 0. -1.
    9900012    2    1    2    0    0 -0.44379598840E+01 -0.39560647794E+02  0.82720115844E+01  0.50528849523E+02  0.29999968611E+02 0.  0.
        -12    1    1    2    0    0  0.44379598840E+01  0.39560647794E+02 -0.82720115844E+01  0.40659150477E+02  0.00000000000E+00 0.  1.
         11    1    3    3    0    0  0.45083780192E+01 -0.17099107655E+02 -0.57385657451E+01  0.18591290758E+02  0.51100000000E-03 0. -1.
        -11    1    3    3    0    0  0.13182964377E+01  0.21715135010E+00  0.54528971745E+01  0.56141916661E+01  0.51100000000E-03 0.  1.
         12    1    3    3    0    0 -0.10264634341E+02 -0.22678691489E+02  0.85576801550E+01  0.26323367100E+02  0.00000000000E+00 0. -1.
</event>
<event>
 7    1  0.5753610E-013  0.5052886E+02  0.7816164E-02  0.1300439E+00
        -11   -1    0    0    0    0  0.00000000000E+00  0.00000000000E+00  0.45593999997E+02  0.45594000000E+02  0.51100000000E-03 0. -1.
         11   -1    0    0    0    0 -0.00000000000E+00 -0.00000000000E+00 -0.45593999997E+02  0.45594000000E+02  0.51100000000E-03 0.  1.
    9900012    2    1    2    0    0 -0.12369308171E+02  0.38679648814E+02  0.20125660173E+01  0.50528862786E+02  0.30000008925E+02 0.  0.
        -12    1    1    2    0    0  0.12369308171E+02 -0.38679648814E+02 -0.20125660173E+01  0.40659137214E+02  0.00000000000E+00 0.  1.
         11    1    3    3    0    0 -0.69056753867E+01  0.11039696597E+02  0.64184683782E+01  0.14517575213E+02  0.51100000000E-03 0. -1.
        -11    1    3    3    0    0 -0.24564590012E+01  0.31065298710E+02 -0.34356657545E+01  0.31351088883E+02  0.51100000000E-03 0.  1.
        -12    1    3    3    0    0 -0.30071737828E+01 -0.34253464923E+01 -0.97023660637E+00  0.46601986894E+01  0.00000000000E+00 0.  1.
</event>
<event>
 7    1  0.5753610E-013  0.5052887E+02  0.7816164E-02  0.1300439E+00
        -11   -1    0    0    0    0  0.00000000000E+00  0.00000000000E+00  0.45593999997E+02  0.45594000000E+02  0.51100000000E-03 0.  1.
         11   -1    0    0    0    0 -0.00000000000E+00 -0.00000000000E+00 -0.45593999997E+02  0.45594000000E+02  0.51100000000E-03 0. -1.
    9900012    2    1    2    0    0 -0.24340793444E+02  0.21141169083E+02 -0.24773816101E+02  0.50528865481E+02  0.30000017115E+02 0.  0.
        -12    1    1    2    0    0  0.24340793444E+02 -0.21141169083E+02  0.24773816101E+02  0.40659134519E+02  0.00000000000E+00 0.  1.
         11    1    3    3    0    0 -0.17313160114E+01  0.15198910160E+02 -0.12022617531E+02  0.19456301235E+02  0.51100000000E-03 0. -1.
        -11    1    3    3    0    0 -0.20704554736E+01  0.35237653788E+01  0.30054363237E+01  0.50731012280E+01  0.51100000000E-03 0.  1.
        -12    1    3    3    0    0 -0.20539021959E+02  0.24184935441E+01 -0.15756634893E+02  0.25999463018E+02  0.00000000000E+00 0.  1.
</event>
<event>
 7    1  0.5753610E-013  0.5052888E+02  0.7816164E-02  0.1300439E+00
        -11   -1    0    0    0    0  0.00000000000E+00  0.00000000000E+00  0.45593999997E+02  0.45594000000E+02  0.51100000000E-03 0.  1.
         11   -1    0    0    0    0 -0.00000000000E+00 -0.00000000000E+00 -0.45593999997E+02  0.45594000000E+02  0.51100000000E-03 0. -1.
    9900012    2    1    2    0    0  0.34243468122E+02 -0.17243569543E+02 -0.13535455102E+02  0.50528876246E+02  0.30000049839E+02 0.  0.
        -12    1    1    2    0    0 -0.34243468122E+02  0.17243569543E+02  0.13535455102E+02  0.40659123754E+02  0.00000000000E+00 0.  1.
         11    1    3    3    0    0  0.18495637690E+02 -0.51400502242E+01 -0.10600530114E+02  0.21928975553E+02  0.51100000000E-03 0. -1.
        -11    1    3    3    0    0  0.16462985930E+02 -0.14964701649E+02  0.25285997439E+01  0.22391204034E+02  0.51100000000E-03 0.  1.
         12    1    3    3    0    0 -0.71515549766E+00  0.28611823302E+01 -0.54635247316E+01  0.62086966592E+01  0.00000000000E+00 0. -1.
</event>
<event>
 7    1  0.5753610E-013  0.5052886E+02  0.7816164E-02  0.1300439E+00
        -11   -1    0    0    0    0  0.00000000000E+00  0.00000000000E+00  0.45593999997E+02  0.45594000000E+02  0.51100000000E-03 0.  1.
         11   -1    0    0    0    0 -0.00000000000E+00 -0.00000000000E+00 -0.45593999997E+02  0.45594000000E+02  0.51100000000E-03 0. -1.
    9900012    2    1    2    0    0 -0.75797864080E+01 -0.31270962259E+02 -0.24856374013E+02  0.50528861154E+02  0.30000003964E+02 0.  0.
        -12    1    1    2    0    0  0.75797864080E+01  0.31270962259E+02  0.24856374013E+02  0.40659138846E+02  0.00000000000E+00 0.  1.
         11    1    3    3    0    0  0.46630526806E+01 -0.15024906382E+02 -0.49221563517E+01  0.16483916267E+02  0.51100000000E-03 0. -1.
        -11    1    3    3    0    0 -0.82245920143E+01 -0.53485543330E+01  0.12455662549E+01  0.98895087245E+01  0.51100000000E-03 0.  1.
         12    1    3    3    0    0 -0.40182470743E+01 -0.10897501544E+02 -0.21179783916E+02  0.24155436162E+02  0.00000000000E+00 0. -1.
</event>
<event>
 7    1  0.5753610E-013  0.5052886E+02  0.7816164E-02  0.1300439E+00
        -11   -1    0    0    0    0  0.00000000000E+00  0.00000000000E+00  0.45593999997E+02  0.45594000000E+02  0.51100000000E-03 0.  1.
         11   -1    0    0    0    0 -0.00000000000E+00 -0.00000000000E+00 -0.45593999997E+02  0.45594000000E+02  0.51100000000E-03 0. -1.
    9900012    2    1    2    0    0 -0.18964500805E+02  0.33606914579E+02 -0.12809698750E+02  0.50528863507E+02  0.30000011116E+02 0.  0.
        -12    1    1    2    0    0  0.18964500805E+02 -0.33606914579E+02  0.12809698750E+02  0.40659136493E+02  0.00000000000E+00 0.  1.
         11    1    3    3    0    0 -0.10740420467E+02  0.16961235854E+02 -0.19398525594E+02  0.27916714509E+02  0.51100000000E-03 0.  1.
        -11    1    3    3    0    0 -0.16657164186E+01  0.99950531529E+01 -0.15159186642E+01  0.10245667786E+02  0.51100000000E-03 0. -1.
         12    1    3    3    0    0 -0.65583639202E+01  0.66506255721E+01  0.81047455088E+01  0.12366481212E+02  0.00000000000E+00 0. -1.
</event>
<event>
 7    1  0.5753610E-013  0.5052886E+02  0.7816164E-02  0.1300439E+00
        -11   -1    0    0    0    0  0.00000000000E+00  0.00000000000E+00  0.45593999997E+02  0.45594000000E+02  0.51100000000E-03 0.  1.
         11   -1    0    0    0    0 -0.00000000000E+00 -0.00000000000E+00 -0.45593999997E+02  0.45594000000E+02  0.51100000000E-03 0. -1.
    9900012    2    1    2    0    0  0.36926263286E+02  0.16583184485E+02 -0.38229467486E+01  0.50528857734E+02  0.29999993569E+02 0.  0.
        -12    1    1    2    0    0 -0.36926263286E+02 -0.16583184485E+02  0.38229467486E+01  0.40659142266E+02  0.00000000000E+00 0.  1.
         11    1    3    3    0    0  0.24523281877E+02  0.33028347776E+01 -0.27480721510E+01  0.24896826553E+02  0.51100000000E-03 0. -1.
        -11    1    3    3    0    0  0.88627776042E+01  0.15075551935E+01  0.65882078358E+01  0.11145673253E+02  0.51100000000E-03 0.  1.
         12    1    3    3    0    0  0.35402038047E+01  0.11772794513E+02 -0.76630824334E+01  0.14486357928E+02  0.00000000000E+00 0. -1.
</event>
<event>
 7    1  0.5753610E-013  0.5052887E+02  0.7816164E-02  0.1300439E+00
        -11   -1    0    0    0    0  0.00000000000E+00  0.00000000000E+00  0.45593999997E+02  0.45594000000E+02  0.51100000000E-03 0.  1.
         11   -1    0    0    0    0 -0.00000000000E+00 -0.00000000000E+00 -0.45593999997E+02  0.45594000000E+02  0.51100000000E-03 0. -1.
    9900012    2    1    2    0    0  0.26140732383E+02  0.19977888768E+02 -0.23889565075E+02  0.50528865127E+02  0.30000016040E+02 0.  0.
        -12    1    1    2    0    0 -0.26140732383E+02 -0.19977888768E+02  0.23889565075E+02  0.40659134873E+02  0.00000000000E+00 0.  1.
         11    1    3    3    0    0  0.88873275038E+01  0.26236815572E+01 -0.57338944164E-01  0.92666921330E+01  0.51100000000E-03 0. -1.
        -11    1    3    3    0    0 -0.29954141856E+01 -0.32364314828E+01 -0.55262165592E+01  0.70700823620E+01  0.51100000000E-03 0.  1.
         12    1    3    3    0    0  0.20248819065E+02  0.20590638694E+02 -0.18306009572E+02  0.34192090632E+02  0.00000000000E+00 0. -1.
</event>
<event>
 7    1  0.5753610E-013  0.5052886E+02  0.7816164E-02  0.1300439E+00
        -11   -1    0    0    0    0  0.00000000000E+00  0.00000000000E+00  0.45593999997E+02  0.45594000000E+02  0.51100000000E-03 0.  1.
         11   -1    0    0    0    0 -0.00000000000E+00 -0.00000000000E+00 -0.45593999997E+02  0.45594000000E+02  0.51100000000E-03 0. -1.
    9900012    2    1    2    0    0 -0.16950868649E+02 -0.28466371061E+02 -0.23569035241E+02  0.50528860172E+02  0.30000000980E+02 0.  0.
        -12    1    1    2    0    0  0.16950868649E+02  0.28466371061E+02  0.23569035241E+02  0.40659139828E+02  0.00000000000E+00 0.  1.
         11    1    3    3    0    0 -0.18115005183E+01 -0.29539154988E+01  0.37460786626E+01  0.51029654623E+01  0.51100000000E-03 0. -1.
        -11    1    3    3    0    0  0.10877124389E+01  0.23954188583E+01 -0.65058894906E+01  0.70176739865E+01  0.51100000000E-03 0.  1.
         12    1    3    3    0    0 -0.16227080569E+02 -0.27907874421E+02 -0.20809224413E+02  0.38408220724E+02  0.00000000000E+00 0. -1.
</event>
<event>
 7    1  0.5753610E-013  0.5052884E+02  0.7816164E-02  0.1300439E+00
        -11   -1    0    0    0    0  0.00000000000E+00  0.00000000000E+00  0.45593999997E+02  0.45594000000E+02  0.51100000000E-03 0.  1.
         11   -1    0    0    0    0 -0.00000000000E+00 -0.00000000000E+00 -0.45593999997E+02  0.45594000000E+02  0.51100000000E-03 0. -1.
    9900012    2    1    2    0    0  0.30037706600E+02 -0.19734898827E+02 -0.19011510824E+02  0.50528836294E+02  0.29999928399E+02 0.  0.
        -12    1    1    2    0    0 -0.30037706600E+02  0.19734898827E+02  0.19011510824E+02  0.40659163706E+02  0.00000000000E+00 0.  1.
         11    1    3    3    0    0  0.19448445546E+02 -0.98377013630E+01 -0.11965430105E+02  0.24863505789E+02  0.51100000000E-03 0. -1.
        -11    1    3    3    0    0  0.93158773507E+01 -0.15926169375E+02 -0.44561817771E+01  0.18981201176E+02  0.51100000000E-03 0.  1.
         12    1    3    3    0    0  0.12733837031E+01  0.60289719115E+01 -0.25898989416E+01  0.66841293294E+01  0.00000000000E+00 0. -1.
</event>
<event>
 7    1  0.5753610E-013  0.5052888E+02  0.7816164E-02  0.1300439E+00
        -11   -1    0    0    0    0  0.00000000000E+00  0.00000000000E+00  0.45593999997E+02  0.45594000000E+02  0.51100000000E-03 0.  1.
         11   -1    0    0    0    0 -0.00000000000E+00 -0.00000000000E+00 -0.45593999997E+02  0.45594000000E+02  0.51100000000E-03 0. -1.
    9900012    2    1    2    0    0  0.61516840229E+01 -0.14014072274E+01 -0.40166615702E+02  0.50528878324E+02  0.30000056154E+02 0.  0.
        -12    1    1    2    0    0 -0.61516840229E+01  0.14014072274E+01  0.40166615702E+02  0.40659121676E+02  0.00000000000E+00 0.  1.
         11    1    3    3    0    0  0.16659411089E+01 -0.53778418601E+01 -0.91275884831E+01  0.10724244245E+02  0.51100000000E-03 0. -1.
        -11    1    3    3    0    0  0.13271972991E+02  0.41717592355E+01 -0.10391834968E+02  0.17364880548E+02  0.51100000000E-03 0.  1.
         12    1    3    3    0    0 -0.87862300775E+01 -0.19532460286E+00 -0.20647192251E+02  0.22439753531E+02  0.00000000000E+00 0. -1.
</event>
<event>
 7    1  0.5753610E-013  0.5052886E+02  0.7816164E-02  0.1300439E+00
        -11   -1    0    0    0    0  0.00000000000E+00  0.00000000000E+00  0.45593999997E+02  0.45594000000E+02  0.51100000000E-03 0.  1.
         11   -1    0    0    0    0 -0.00000000000E+00 -0.00000000000E+00 -0.45593999997E+02  0.45594000000E+02  0.51100000000E-03 0. -1.
    9900012    2    1    2    0    0  0.26220240779E+02  0.12081870163E+02 -0.28630286863E+02  0.50528856637E+02  0.29999990234E+02 0.  0.
        -12    1    1    2    0    0 -0.26220240779E+02 -0.12081870163E+02  0.28630286863E+02  0.40659143363E+02  0.00000000000E+00 0.  1.
         11    1    3    3    0    0  0.13425457315E+02 -0.24456737098E+01 -0.17300417130E+02  0.22034714819E+02  0.51100000000E-03 0. -1.
        -11    1    3    3    0    0  0.85820244716E+01 -0.16586490201E+01 -0.90910603150E+00  0.87879880883E+01  0.51100000000E-03 0.  1.
        -12    1    3    3    0    0  0.42127589925E+01  0.16186192893E+02 -0.10420763701E+02  0.19706153729E+02  0.00000000000E+00 0.  1.
</event>
<event>
 7    1  0.5753610E-013  0.5052886E+02  0.7816164E-02  0.1300439E+00
        -11   -1    0    0    0    0  0.00000000000E+00  0.00000000000E+00  0.45593999997E+02  0.45594000000E+02  0.51100000000E-03 0.  1.
         11   -1    0    0    0    0 -0.00000000000E+00 -0.00000000000E+00 -0.45593999997E+02  0.45594000000E+02  0.51100000000E-03 0. -1.
    9900012    2    1    2    0    0 -0.23041856098E+02  0.15711524407E+02 -0.29586938532E+02  0.50528855108E+02  0.29999985585E+02 0.  0.
        -12    1    1    2    0    0  0.23041856098E+02 -0.15711524407E+02  0.29586938532E+02  0.40659144892E+02  0.00000000000E+00 0.  1.
         11    1    3    3    0    0 -0.16972203148E+02  0.15450771821E+02 -0.21095893514E+02  0.31174007651E+02  0.51100000000E-03 0. -1.
        -11    1    3    3    0    0 -0.48592455641E+01  0.72872285730E+01 -0.68929278949E+00  0.87858461481E+01  0.51100000000E-03 0.  1.
         12    1    3    3    0    0 -0.12104073858E+01 -0.70264759867E+01 -0.78017522285E+01  0.10569001309E+02  0.00000000000E+00 0. -1.
</event>
<event>
 7    1  0.5753610E-013  0.5052885E+02  0.7816164E-02  0.1300439E+00
        -11   -1    0    0    0    0  0.00000000000E+00  0.00000000000E+00  0.45593999997E+02  0.45594000000E+02  0.51100000000E-03 0.  1.
         11   -1    0    0    0    0 -0.00000000000E+00 -0.00000000000E+00 -0.45593999997E+02  0.45594000000E+02  0.51100000000E-03 0. -1.
    9900012    2    1    2    0    0  0.23697153085E+02  0.22088678800E+02 -0.24570335363E+02  0.50528853731E+02  0.29999981400E+02 0.  0.
        -12    1    1    2    0    0 -0.23697153085E+02 -0.22088678800E+02  0.24570335363E+02  0.40659146269E+02  0.00000000000E+00 0.  1.
         11    1    3    3    0    0  0.15724659558E+02  0.22506805679E+02 -0.26405928210E+02  0.38093231223E+02  0.51100000000E-03 0. -1.
        -11    1    3    3    0    0 -0.14902765174E+01  0.19971716762E+01 -0.33932657573E-01  0.24921417474E+01  0.51100000000E-03 0.  1.
        -12    1    3    3    0    0  0.94627700449E+01 -0.24152985550E+01  0.18695255047E+01  0.99434807610E+01  0.00000000000E+00 0.  1.
</event>
<event>
 7    1  0.5753610E-013  0.5052886E+02  0.7816164E-02  0.1300439E+00
        -11   -1    0    0    0    0  0.00000000000E+00  0.00000000000E+00  0.45593999997E+02  0.45594000000E+02  0.51100000000E-03 0.  1.
         11   -1    0    0    0    0 -0.00000000000E+00 -0.00000000000E+00 -0.45593999997E+02  0.45594000000E+02  0.51100000000E-03 0. -1.
    9900012    2    1    2    0    0  0.25108998385E+02  0.92062148985E+01 -0.30625960264E+02  0.50528860379E+02  0.30000001608E+02 0.  0.
        -12    1    1    2    0    0 -0.25108998385E+02 -0.92062148985E+01  0.30625960264E+02  0.40659139621E+02  0.00000000000E+00 0.  1.
         11    1    3    3    0    0  0.16480858681E+02  0.63171235933E+01 -0.84501957292E+01  0.19568611639E+02  0.51100000000E-03 0.  1.
        -11    1    3    3    0    0  0.14082224752E+02  0.19159155542E+01 -0.20901229482E+02  0.25275307723E+02  0.51100000000E-03 0. -1.
        -12    1    3    3    0    0 -0.54540850487E+01  0.97317575097E+00 -0.12745350521E+01  0.56849410164E+01  0.00000000000E+00 0.  1.
</event>
<event>
 7    1  0.5753610E-013  0.5052878E+02  0.7816164E-02  0.1300439E+00
        -11   -1    0    0    0    0  0.00000000000E+00  0.00000000000E+00  0.45593999997E+02  0.45594000000E+02  0.51100000000E-03 0. -1.
         11   -1    0    0    0    0 -0.00000000000E+00 -0.00000000000E+00 -0.45593999997E+02  0.45594000000E+02  0.51100000000E-03 0.  1.
    9900012    2    1    2    0    0  0.67687852223E+01  0.38102364829E+02  0.12472585196E+02  0.50528781606E+02  0.29999762167E+02 0.  0.
        -12    1    1    2    0    0 -0.67687852223E+01 -0.38102364829E+02 -0.12472585196E+02  0.40659218394E+02  0.00000000000E+00 0.  1.
         11    1    3    3    0    0  0.13588480459E+01  0.75783010392E+01  0.13037444727E+02  0.15141072615E+02  0.51100000000E-03 0. -1.
        -11    1    3    3    0    0 -0.56773432431E+01  0.16826055327E+02 -0.79770373638E-01  0.17758229859E+02  0.51100000000E-03 0.  1.
        -12    1    3    3    0    0  0.11087280420E+02  0.13698008463E+02 -0.48508915725E+00  0.17629479132E+02  0.00000000000E+00 0.  1.
</event>
<event>
 7    1  0.5753610E-013  0.5052886E+02  0.7816164E-02  0.1300439E+00
        -11   -1    0    0    0    0  0.00000000000E+00  0.00000000000E+00  0.45593999997E+02  0.45594000000E+02  0.51100000000E-03 0.  1.
         11   -1    0    0    0    0 -0.00000000000E+00 -0.00000000000E+00 -0.45593999997E+02  0.45594000000E+02  0.51100000000E-03 0. -1.
    9900012    2    1    2    0    0 -0.34167931941E+02 -0.14673758290E+02 -0.16443803820E+02  0.50528862779E+02  0.30000008904E+02 0.  0.
        -12    1    1    2    0    0  0.34167931941E+02  0.14673758290E+02  0.16443803820E+02  0.40659137221E+02  0.00000000000E+00 0.  1.
         11    1    3    3    0    0 -0.74314233689E+01 -0.96743707100E+01  0.27904164750E+01  0.12514228953E+02  0.51100000000E-03 0. -1.
        -11    1    3    3    0    0 -0.18812723434E+02 -0.89560366403E+01 -0.52922544732E+01  0.21497374560E+02  0.51100000000E-03 0.  1.
        -12    1    3    3    0    0 -0.79237851383E+01  0.39566490607E+01 -0.13941965822E+02  0.16517259267E+02  0.00000000000E+00 0.  1.
</event>
<event>
 7    1  0.5753610E-013  0.5052886E+02  0.7816164E-02  0.1300439E+00
        -11   -1    0    0    0    0  0.00000000000E+00  0.00000000000E+00  0.45593999997E+02  0.45594000000E+02  0.51100000000E-03 0.  1.
         11   -1    0    0    0    0 -0.00000000000E+00 -0.00000000000E+00 -0.45593999997E+02  0.45594000000E+02  0.51100000000E-03 0. -1.
    9900012    2    1    2    0    0  0.21951962679E+01 -0.21528532921E+01 -0.40542719915E+02  0.50528858321E+02  0.29999995353E+02 0.  0.
        -12    1    1    2    0    0 -0.21951962679E+01  0.21528532921E+01  0.40542719915E+02  0.40659141679E+02  0.00000000000E+00 0.  1.
         11    1    3    3    0    0 -0.83799727699E+01  0.43885313249E+01 -0.92650674063E+01  0.13241020547E+02  0.51100000000E-03 0. -1.
        -11    1    3    3    0    0  0.93081288636E-01 -0.58766258954E+01 -0.20407541940E+01  0.62215813088E+01  0.51100000000E-03 0.  1.
        -12    1    3    3    0    0  0.10482087749E+02 -0.66475872160E+00 -0.29236898315E+02  0.31066256466E+02  0.00000000000E+00 0.  1.
</event>
<event>
 7    1  0.5753610E-013  0.5052887E+02  0.7816164E-02  0.1300439E+00
        -11   -1    0    0    0    0  0.00000000000E+00  0.00000000000E+00  0.45593999997E+02  0.45594000000E+02  0.51100000000E-03 0.  1.
         11   -1    0    0    0    0 -0.00000000000E+00 -0.00000000000E+00 -0.45593999997E+02  0.45594000000E+02  0.51100000000E-03 0. -1.
    9900012    2    1    2    0    0  0.16961224283E+02  0.31438256499E+02 -0.19419530078E+02  0.50528865118E+02  0.30000016014E+02 0.  0.
        -12    1    1    2    0    0 -0.16961224283E+02 -0.31438256499E+02  0.19419530078E+02  0.40659134882E+02  0.00000000000E+00 0.  1.
         11    1    3    3    0    0  0.13682649811E+02  0.33905476297E+02 -0.10596120760E+02  0.38066704667E+02  0.51100000000E-03 0. -1.
        -11    1    3    3    0    0  0.34266754314E+00  0.25466521613E+01 -0.46351447621E+01  0.52997571173E+01  0.51100000000E-03 0.  1.
         12    1    3    3    0    0  0.29359069289E+01 -0.50138719599E+01 -0.41882645562E+01  0.71624033339E+01  0.00000000000E+00 0. -1.
</event>
<event>
 7    1  0.5753610E-013  0.5052886E+02  0.7816164E-02  0.1300439E+00
        -11   -1    0    0    0    0  0.00000000000E+00  0.00000000000E+00  0.45593999997E+02  0.45594000000E+02  0.51100000000E-03 0.  1.
         11   -1    0    0    0    0 -0.00000000000E+00 -0.00000000000E+00 -0.45593999997E+02  0.45594000000E+02  0.51100000000E-03 0. -1.
    9900012    2    1    2    0    0  0.31102046724E+02  0.21399088327E+02 -0.15096601386E+02  0.50528860006E+02  0.30000000474E+02 0.  0.
        -12    1    1    2    0    0 -0.31102046724E+02 -0.21399088327E+02  0.15096601386E+02  0.40659139994E+02  0.00000000000E+00 0.  1.
         11    1    3    3    0    0  0.17348077999E+02  0.16634594358E+02 -0.18141872633E+02  0.30113005207E+02  0.51100000000E-03 0. -1.
        -11    1    3    3    0    0  0.86742671028E+01  0.36099603425E+01 -0.51430163356E+01  0.10710991585E+02  0.51100000000E-03 0.  1.
        -12    1    3    3    0    0  0.50797016229E+01  0.11545336262E+01  0.81882875824E+01  0.97048632141E+01  0.00000000000E+00 0.  1.
</event>
<event>
 7    1  0.5753610E-013  0.5052886E+02  0.7816164E-02  0.1300439E+00
        -11   -1    0    0    0    0  0.00000000000E+00  0.00000000000E+00  0.45593999997E+02  0.45594000000E+02  0.51100000000E-03 0.  1.
         11   -1    0    0    0    0 -0.00000000000E+00 -0.00000000000E+00 -0.45593999997E+02  0.45594000000E+02  0.51100000000E-03 0. -1.
    9900012    2    1    2    0    0 -0.36714567753E+02 -0.10734734372E+02 -0.13783027791E+02  0.50528857579E+02  0.29999993098E+02 0.  0.
        -12    1    1    2    0    0  0.36714567753E+02  0.10734734372E+02  0.13783027791E+02  0.40659142421E+02  0.00000000000E+00 0.  1.
         11    1    3    3    0    0 -0.21002734913E+02 -0.13672483364E+02  0.33925006531E+01  0.25289538076E+02  0.51100000000E-03 0. -1.
        -11    1    3    3    0    0 -0.58990086063E+01 -0.33862777670E+01 -0.68636228592E+01  0.96630481043E+01  0.51100000000E-03 0.  1.
        -12    1    3    3    0    0 -0.98128242336E+01  0.63240267596E+01 -0.10311905585E+02  0.15576271399E+02  0.00000000000E+00 0.  1.
</event>
<event>
 7    1  0.5753610E-013  0.5052888E+02  0.7816164E-02  0.1300439E+00
        -11   -1    0    0    0    0  0.00000000000E+00  0.00000000000E+00  0.45593999997E+02  0.45594000000E+02  0.51100000000E-03 0.  1.
         11   -1    0    0    0    0 -0.00000000000E+00 -0.00000000000E+00 -0.45593999997E+02  0.45594000000E+02  0.51100000000E-03 0. -1.
    9900012    2    1    2    0    0  0.49194266940E+01  0.87795374102E+00 -0.40350865890E+02  0.50528881222E+02  0.30000064961E+02 0.  0.
        -12    1    1    2    0    0 -0.49194266940E+01 -0.87795374102E+00  0.40350865890E+02  0.40659118778E+02  0.00000000000E+00 0.  1.
         11    1    3    3    0    0 -0.58366730828E+01 -0.27760073201E+01 -0.37210821279E+01  0.74578429710E+01  0.51100000000E-03 0. -1.
        -11    1    3    3    0    0  0.20283497214E+01  0.49236802812E+01  0.70809057553E-01  0.53255839386E+01  0.51100000000E-03 0.  1.
         12    1    3    3    0    0  0.87277500553E+01 -0.12697192200E+01 -0.36700592819E+02  0.37745454312E+02  0.00000000000E+00 0. -1.
</event>
<event>
 7    1  0.5753610E-013  0.5052887E+02  0.7816164E-02  0.1300439E+00
        -11   -1    0    0    0    0  0.00000000000E+00  0.00000000000E+00  0.45593999997E+02  0.45594000000E+02  0.51100000000E-03 0. -1.
         11   -1    0    0    0    0 -0.00000000000E+00 -0.00000000000E+00 -0.45593999997E+02  0.45594000000E+02  0.51100000000E-03 0.  1.
    9900012    2    1    2    0    0  0.80213367957E+01  0.39286639502E+02  0.67367113749E+01  0.50528866125E+02  0.30000019073E+02 0.  0.
        -12    1    1    2    0    0 -0.80213367957E+01 -0.39286639502E+02 -0.67367113749E+01  0.40659133875E+02  0.00000000000E+00 0.  1.
         11    1    3    3    0    0  0.59318134647E+01 -0.77581521628E+00 -0.74669187095E+00  0.60287518808E+01  0.51100000000E-03 0. -1.
        -11    1    3    3    0    0 -0.63387935658E+01  0.67134468924E+01 -0.27986358526E+00  0.92373695896E+01  0.51100000000E-03 0.  1.
         12    1    3    3    0    0  0.84283168968E+01  0.33349007826E+02  0.77632668311E+01  0.35262744654E+02  0.00000000000E+00 0. -1.
</event>
<event>
 7    1  0.5753610E-013  0.5052886E+02  0.7816164E-02  0.1300439E+00
        -11   -1    0    0    0    0  0.00000000000E+00  0.00000000000E+00  0.45593999997E+02  0.45594000000E+02  0.51100000000E-03 0.  1.
         11   -1    0    0    0    0 -0.00000000000E+00 -0.00000000000E+00 -0.45593999997E+02  0.45594000000E+02  0.51100000000E-03 0. -1.
    9900012    2    1    2    0    0  0.21340621418E+02  0.32134766717E+02  0.12849134255E+02  0.50528860738E+02  0.30000002698E+02 0.  0.
        -12    1    1    2    0    0 -0.21340621418E+02 -0.32134766717E+02 -0.12849134255E+02  0.40659139262E+02  0.00000000000E+00 0.  1.
         11    1    3    3    0    0  0.20727094966E+02  0.19870730467E+02 -0.70794601280E+00  0.28722109652E+02  0.51100000000E-03 0. -1.
        -11    1    3    3    0    0 -0.56214868035E+00  0.10125225882E+02  0.24471660363E+01  0.10431914119E+02  0.51100000000E-03 0.  1.
        -12    1    3    3    0    0  0.11756751324E+01  0.21388103678E+01  0.11109914231E+02  0.11374836967E+02  0.00000000000E+00 0.  1.
</event>
<event>
 7    1  0.5753610E-013  0.5052891E+02  0.7816164E-02  0.1300439E+00
        -11   -1    0    0    0    0  0.00000000000E+00  0.00000000000E+00  0.45593999997E+02  0.45594000000E+02  0.51100000000E-03 0. -1.
         11   -1    0    0    0    0 -0.00000000000E+00 -0.00000000000E+00 -0.45593999997E+02  0.45594000000E+02  0.51100000000E-03 0.  1.
    9900012    2    1    2    0    0  0.27626788738E+02 -0.10119640058E+02  0.28062700912E+02  0.50528908110E+02  0.30000146690E+02 0.  0.
        -12    1    1    2    0    0 -0.27626788738E+02  0.10119640058E+02 -0.28062700912E+02  0.40659091890E+02  0.00000000000E+00 0.  1.
         11    1    3    3    0    0  0.22975059360E+01 -0.47442655948E+01  0.29780527733E+01  0.60543693430E+01  0.51100000000E-03 0. -1.
        -11    1    3    3    0    0 -0.35367119077E+01  0.43849309162E+01  0.72009690003E+01  0.91427515039E+01  0.51100000000E-03 0.  1.
         12    1    3    3    0    0  0.28865994709E+02 -0.97603053791E+01  0.17883679139E+02  0.35331787263E+02  0.00000000000E+00 0. -1.
</event>
<event>
 7    1  0.5753610E-013  0.5052887E+02  0.7816164E-02  0.1300439E+00
        -11   -1    0    0    0    0  0.00000000000E+00  0.00000000000E+00  0.45593999997E+02  0.45594000000E+02  0.51100000000E-03 0.  1.
         11   -1    0    0    0    0 -0.00000000000E+00 -0.00000000000E+00 -0.45593999997E+02  0.45594000000E+02  0.51100000000E-03 0. -1.
    9900012    2    1    2    0    0  0.25487704755E+02 -0.27592542608E+02 -0.15562570295E+02  0.50528867011E+02  0.30000021766E+02 0.  0.
        -12    1    1    2    0    0 -0.25487704755E+02  0.27592542608E+02  0.15562570295E+02  0.40659132989E+02  0.00000000000E+00 0.  1.
         11    1    3    3    0    0  0.17430132617E+02 -0.99553232841E+00 -0.12488353332E+02  0.21465311013E+02  0.51100000000E-03 0. -1.
        -11    1    3    3    0    0 -0.99676579277E-01 -0.41426495508E+01  0.20604568548E+01  0.46278465222E+01  0.51100000000E-03 0.  1.
        -12    1    3    3    0    0  0.81572487172E+01 -0.22454360729E+02 -0.51346738176E+01  0.24435709476E+02  0.00000000000E+00 0.  1.
</event>
<event>
 7    1  0.5753610E-013  0.5052886E+02  0.7816164E-02  0.1300439E+00
        -11   -1    0    0    0    0  0.00000000000E+00  0.00000000000E+00  0.45593999997E+02  0.45594000000E+02  0.51100000000E-03 0.  1.
         11   -1    0    0    0    0 -0.00000000000E+00 -0.00000000000E+00 -0.45593999997E+02  0.45594000000E+02  0.51100000000E-03 0. -1.
    9900012    2    1    2    0    0  0.26595319719E+02  0.30682977282E+02  0.20998798216E+01  0.50528860546E+02  0.30000002116E+02 0.  0.
        -12    1    1    2    0    0 -0.26595319719E+02 -0.30682977282E+02 -0.20998798216E+01  0.40659139454E+02  0.00000000000E+00 0.  1.
         11    1    3    3    0    0  0.29016975986E+01  0.13399360842E+02 -0.18629358016E+01  0.13835940517E+02  0.51100000000E-03 0. -1.
        -11    1    3    3    0    0  0.10863664958E+01  0.13513552848E+02  0.13018303350E+01  0.13619510462E+02  0.51100000000E-03 0.  1.
         12    1    3    3    0    0  0.22607255625E+02  0.37700635924E+01  0.26609852882E+01  0.23073409568E+02  0.00000000000E+00 0. -1.
</event>
<event>
 7    1  0.5753610E-013  0.5052886E+02  0.7816164E-02  0.1300439E+00
        -11   -1    0    0    0    0  0.00000000000E+00  0.00000000000E+00  0.45593999997E+02  0.45594000000E+02  0.51100000000E-03 0. -1.
         11   -1    0    0    0    0 -0.00000000000E+00 -0.00000000000E+00 -0.45593999997E+02  0.45594000000E+02  0.51100000000E-03 0.  1.
    9900012    2    1    2    0    0  0.32439972329E+02 -0.22830162928E+02 -0.89217261579E+01  0.50528863982E+02  0.30000012561E+02 0.  0.
        -12    1    1    2    0    0 -0.32439972329E+02  0.22830162928E+02  0.89217261579E+01  0.40659136018E+02  0.00000000000E+00 0.  1.
         11    1    3    3    0    0 -0.19195758491E+00 -0.92326202272E+01  0.34696653469E+00  0.92411314248E+01  0.51100000000E-03 0. -1.
        -11    1    3    3    0    0  0.36127188928E+01  0.10966516110E+01  0.45794698630E+01  0.59351433885E+01  0.51100000000E-03 0.  1.
         12    1    3    3    0    0  0.29019211021E+02 -0.14694194312E+02 -0.13848162556E+02  0.35352589169E+02  0.00000000000E+00 0. -1.
</event>
<event>
 7    1  0.5753610E-013  0.5052886E+02  0.7816164E-02  0.1300439E+00
        -11   -1    0    0    0    0  0.00000000000E+00  0.00000000000E+00  0.45593999997E+02  0.45594000000E+02  0.51100000000E-03 0.  1.
         11   -1    0    0    0    0 -0.00000000000E+00 -0.00000000000E+00 -0.45593999997E+02  0.45594000000E+02  0.51100000000E-03 0. -1.
    9900012    2    1    2    0    0  0.14895597797E+02  0.18309367813E+02 -0.33106701904E+02  0.50528862104E+02  0.30000006853E+02 0.  0.
        -12    1    1    2    0    0 -0.14895597797E+02 -0.18309367813E+02  0.33106701904E+02  0.40659137896E+02  0.00000000000E+00 0.  1.
         11    1    3    3    0    0  0.20719226432E+02  0.10169930147E+02 -0.17075549327E+02  0.28710419855E+02  0.51100000000E-03 0. -1.
        -11    1    3    3    0    0  0.58913663054E+00 -0.17387644732E+01  0.10805919803E+00  0.18390380404E+01  0.51100000000E-03 0.  1.
         12    1    3    3    0    0 -0.64127652654E+01  0.98782021396E+01 -0.16139211774E+02  0.19979404209E+02  0.00000000000E+00 0. -1.
</event>
<event>
 7    1  0.5753610E-013  0.5052886E+02  0.7816164E-02  0.1300439E+00
        -11   -1    0    0    0    0  0.00000000000E+00  0.00000000000E+00  0.45593999997E+02  0.45594000000E+02  0.51100000000E-03 0.  1.
         11   -1    0    0    0    0 -0.00000000000E+00 -0.00000000000E+00 -0.45593999997E+02  0.45594000000E+02  0.51100000000E-03 0. -1.
    9900012    2    1    2    0    0 -0.22862174498E+02  0.68368248734E+01 -0.32920273478E+02  0.50528860769E+02  0.30000002795E+02 0.  0.
        -12    1    1    2    0    0  0.22862174498E+02 -0.68368248734E+01  0.32920273478E+02  0.40659139231E+02  0.00000000000E+00 0.  1.
         11    1    3    3    0    0 -0.19150535496E+02  0.61209359523E+01 -0.30783905671E+02  0.36767617754E+02  0.51100000000E-03 0.  1.
        -11    1    3    3    0    0  0.69067016077E+00 -0.55938426370E+01 -0.22444918789E+01  0.60667820774E+01  0.51100000000E-03 0. -1.
        -12    1    3    3    0    0 -0.44023091632E+01  0.63097315581E+01  0.10812407251E+00  0.76944609375E+01  0.00000000000E+00 0.  1.
</event>
<event>
 7    1  0.5942482E-013  0.5052886E+02  0.7816164E-02  0.1300439E+00
        -11   -1    0    0    0    0  0.00000000000E+00  0.00000000000E+00  0.45593999997E+02  0.45594000000E+02  0.51100000000E-03 0. -1.
         11   -1    0    0    0    0 -0.00000000000E+00 -0.00000000000E+00 -0.45593999997E+02  0.45594000000E+02  0.51100000000E-03 0.  1.
    9900012    2    1    2    0    0 -0.26815689916E+02  0.19333997199E+02  0.23670257748E+02  0.50528858651E+02  0.29999996357E+02 0.  0.
        -12    1    1    2    0    0  0.26815689916E+02 -0.19333997199E+02 -0.23670257748E+02  0.40659141349E+02  0.00000000000E+00 0.  1.
         11    1    3    3    0    0 -0.76163740028E+01  0.88121128843E+01  0.14826105040E+02  0.18854067926E+02  0.51100000000E-03 0. -1.
        -11    1    3    3    0    0 -0.15691997981E+02  0.97652618897E-01  0.12523729153E+02  0.20077154401E+02  0.51100000000E-03 0.  1.
        -12    1    3    3    0    0 -0.35073179318E+01  0.10424231695E+02 -0.36795764444E+01  0.11597636325E+02  0.00000000000E+00 0.  1.
</event>
<event>
 7    1  0.5753610E-013  0.5052885E+02  0.7816164E-02  0.1300439E+00
        -11   -1    0    0    0    0  0.00000000000E+00  0.00000000000E+00  0.45593999997E+02  0.45594000000E+02  0.51100000000E-03 0. -1.
         11   -1    0    0    0    0 -0.00000000000E+00 -0.00000000000E+00 -0.45593999997E+02  0.45594000000E+02  0.51100000000E-03 0.  1.
    9900012    2    1    2    0    0  0.26513176502E+02  0.30804674664E+02  0.11357827092E+01  0.50528849594E+02  0.29999968827E+02 0.  0.
        -12    1    1    2    0    0 -0.26513176502E+02 -0.30804674664E+02 -0.11357827092E+01  0.40659150406E+02  0.00000000000E+00 0.  1.
         11    1    3    3    0    0  0.45656194291E+01  0.27870317623E+01  0.85541252679E+01  0.10088879332E+02  0.51100000000E-03 0. -1.
        -11    1    3    3    0    0 -0.77749191099E+00  0.92144507109E+01  0.20312922401E+01  0.94676683508E+01  0.51100000000E-03 0.  1.
        -12    1    3    3    0    0  0.22725048984E+02  0.18803192191E+02 -0.94496347988E+01  0.30972301911E+02  0.00000000000E+00 0.  1.
</event>
<event>
 7    1  0.5753610E-013  0.5052885E+02  0.7816164E-02  0.1300439E+00
        -11   -1    0    0    0    0  0.00000000000E+00  0.00000000000E+00  0.45593999997E+02  0.45594000000E+02  0.51100000000E-03 0.  1.
         11   -1    0    0    0    0 -0.00000000000E+00 -0.00000000000E+00 -0.45593999997E+02  0.45594000000E+02  0.51100000000E-03 0. -1.
    9900012    2    1    2    0    0  0.10073164234E+02 -0.38349003173E+02  0.90028817971E+01  0.50528848968E+02  0.29999966922E+02 0.  0.
        -12    1    1    2    0    0 -0.10073164234E+02  0.38349003173E+02 -0.90028817971E+01  0.40659151032E+02  0.00000000000E+00 0.  1.
         11    1    3    3    0    0  0.50269967842E+01 -0.58370778443E+01 -0.52645197604E+01  0.93304524540E+01  0.51100000000E-03 0. -1.
        -11    1    3    3    0    0  0.12794272410E+02 -0.16669965005E+02  0.77494154423E+01  0.22397200265E+02  0.51100000000E-03 0.  1.
        -12    1    3    3    0    0 -0.77481049602E+01 -0.15841960323E+02  0.65179861152E+01  0.18801196248E+02  0.00000000000E+00 0.  1.
</event>
<event>
 7    1  0.5753610E-013  0.5052884E+02  0.7816164E-02  0.1300439E+00
        -11   -1    0    0    0    0  0.00000000000E+00  0.00000000000E+00  0.45593999997E+02  0.45594000000E+02  0.51100000000E-03 0.  1.
         11   -1    0    0    0    0 -0.00000000000E+00 -0.00000000000E+00 -0.45593999997E+02  0.45594000000E+02  0.51100000000E-03 0. -1.
    9900012    2    1    2    0    0  0.16722368456E+02  0.22531145522E+02 -0.29425785272E+02  0.50528844030E+02  0.29999951914E+02 0.  0.
        -12    1    1    2    0    0 -0.16722368456E+02 -0.22531145522E+02  0.29425785272E+02  0.40659155970E+02  0.00000000000E+00 0.  1.
         11    1    3    3    0    0  0.11192502387E+02 -0.15874344084E+01 -0.13167729232E+02  0.17354571475E+02  0.51100000000E-03 0. -1.
        -11    1    3    3    0    0 -0.34015592355E+01  0.24570027348E+00 -0.15492020450E+01  0.37457977914E+01  0.51100000000E-03 0.  1.
        -12    1    3    3    0    0  0.89314253042E+01  0.23872879657E+02 -0.14708853994E+02  0.29428474764E+02  0.00000000000E+00 0.  1.
</event>
<event>
 7    1  0.5753610E-013  0.5052886E+02  0.7816164E-02  0.1300439E+00
        -11   -1    0    0    0    0  0.00000000000E+00  0.00000000000E+00  0.45593999997E+02  0.45594000000E+02  0.51100000000E-03 0.  1.
         11   -1    0    0    0    0 -0.00000000000E+00 -0.00000000000E+00 -0.45593999997E+02  0.45594000000E+02  0.51100000000E-03 0. -1.
    9900012    2    1    2    0    0 -0.33580070278E+02 -0.31569527085E+01 -0.22706340035E+02  0.50528863904E+02  0.30000012323E+02 0.  0.
        -12    1    1    2    0    0  0.33580070278E+02  0.31569527085E+01  0.22706340035E+02  0.40659136096E+02  0.00000000000E+00 0.  1.
         11    1    3    3    0    0 -0.43050117308E+01  0.74525907059E+01 -0.60563439686E+01  0.10523950625E+02  0.51100000000E-03 0. -1.
        -11    1    3    3    0    0 -0.27802341051E+02 -0.60383637066E+01 -0.19433312083E+02  0.34454108942E+02  0.51100000000E-03 0.  1.
        -12    1    3    3    0    0 -0.14727174959E+01 -0.45711797078E+01  0.27833160169E+01  0.55508043376E+01  0.00000000000E+00 0.  1.
</event>
<event>
 7    1  0.5753610E-013  0.5052886E+02  0.7816164E-02  0.1300439E+00
        -11   -1    0    0    0    0  0.00000000000E+00  0.00000000000E+00  0.45593999997E+02  0.45594000000E+02  0.51100000000E-03 0.  1.
         11   -1    0    0    0    0 -0.00000000000E+00 -0.00000000000E+00 -0.45593999997E+02  0.45594000000E+02  0.51100000000E-03 0. -1.
    9900012    2    1    2    0    0 -0.39922320543E+01  0.40240382812E+02 -0.42355112779E+01  0.50528857345E+02  0.29999992385E+02 0.  0.
        -12    1    1    2    0    0  0.39922320543E+01 -0.40240382812E+02  0.42355112779E+01  0.40659142655E+02  0.00000000000E+00 0.  1.
         11    1    3    3    0    0 -0.20936813224E+01  0.22310036477E+02  0.30059184398E+01  0.22608776504E+02  0.51100000000E-03 0. -1.
        -11    1    3    3    0    0  0.76754928821E+01  0.13200076331E+01 -0.23231035035E+01  0.81272640712E+01  0.51100000000E-03 0.  1.
         12    1    3    3    0    0 -0.95740436139E+01  0.16610338703E+02 -0.49183262142E+01  0.19792816770E+02  0.00000000000E+00 0. -1.
</event>
<event>
 7    1  0.5753610E-013  0.5052886E+02  0.7816164E-02  0.1300439E+00
        -11   -1    0    0    0    0  0.00000000000E+00  0.00000000000E+00  0.45593999997E+02  0.45594000000E+02  0.51100000000E-03 0.  1.
         11   -1    0    0    0    0 -0.00000000000E+00 -0.00000000000E+00 -0.45593999997E+02  0.45594000000E+02  0.51100000000E-03 0. -1.
    9900012    2    1    2    0    0  0.19753328627E+01 -0.14523043117E+02 -0.37925514352E+02  0.50528863755E+02  0.30000011870E+02 0.  0.
        -12    1    1    2    0    0 -0.19753328627E+01  0.14523043117E+02  0.37925514352E+02  0.40659136245E+02  0.00000000000E+00 0.  1.
         11    1    3    3    0    0 -0.10990274899E+00 -0.14362954876E+02 -0.27317603847E+02  0.30863538870E+02  0.51100000000E-03 0. -1.
        -11    1    3    3    0    0 -0.32356834040E+01 -0.58660465095E+01 -0.97312611319E+01  0.11814296095E+02  0.51100000000E-03 0.  1.
        -12    1    3    3    0    0  0.53209190157E+01  0.57059582689E+01 -0.87664937344E+00  0.78510287900E+01  0.00000000000E+00 0.  1.
</event>
<event>
 7    1  0.5753610E-013  0.5052884E+02  0.7816164E-02  0.1300439E+00
        -11   -1    0    0    0    0  0.00000000000E+00  0.00000000000E+00  0.45593999997E+02  0.45594000000E+02  0.51100000000E-03 0.  1.
         11   -1    0    0    0    0 -0.00000000000E+00 -0.00000000000E+00 -0.45593999997E+02  0.45594000000E+02  0.51100000000E-03 0. -1.
    9900012    2    1    2    0    0 -0.22872010911E+02  0.93855210587E+01 -0.32279253559E+02  0.50528842372E+02  0.29999946875E+02 0.  0.
        -12    1    1    2    0    0  0.22872010911E+02 -0.93855210587E+01  0.32279253559E+02  0.40659157628E+02  0.00000000000E+00 0.  1.
         11    1    3    3    0    0 -0.22581996091E+01  0.50074655187E+01 -0.11660588688E+02  0.12889666606E+02  0.51100000000E-03 0. -1.
        -11    1    3    3    0    0 -0.71480206671E+01  0.64311854091E+01  0.32563350282E+01  0.10151751736E+02  0.51100000000E-03 0.  1.
        -12    1    3    3    0    0 -0.13465790634E+02 -0.20531298690E+01 -0.23874999899E+02  0.27487424031E+02  0.00000000000E+00 0.  1.
</event>
<event>
 7    1  0.5753610E-013  0.5052886E+02  0.7816164E-02  0.1300439E+00
        -11   -1    0    0    0    0  0.00000000000E+00  0.00000000000E+00  0.45593999997E+02  0.45594000000E+02  0.51100000000E-03 0.  1.
         11   -1    0    0    0    0 -0.00000000000E+00 -0.00000000000E+00 -0.45593999997E+02  0.45594000000E+02  0.51100000000E-03 0. -1.
    9900012    2    1    2    0    0  0.29838400236E+02  0.21526895032E+02 -0.17304004736E+02  0.50528856892E+02  0.29999991009E+02 0.  0.
        -12    1    1    2    0    0 -0.29838400236E+02 -0.21526895032E+02  0.17304004736E+02  0.40659143108E+02  0.00000000000E+00 0.  1.
         11    1    3    3    0    0  0.12395919328E+02  0.10266745737E+02  0.26277072920E+01  0.16308578414E+02  0.51100000000E-03 0. -1.
        -11    1    3    3    0    0  0.17181991281E+02  0.13570289887E+02 -0.10089987818E+02  0.24107705126E+02  0.51100000000E-03 0.  1.
        -12    1    3    3    0    0  0.26048962800E+00 -0.23101405918E+01 -0.98417242093E+01  0.10112573353E+02  0.00000000000E+00 0.  1.
</event>
<event>
 7    1  0.5753610E-013  0.5052886E+02  0.7816164E-02  0.1300439E+00
        -11   -1    0    0    0    0  0.00000000000E+00  0.00000000000E+00  0.45593999997E+02  0.45594000000E+02  0.51100000000E-03 0. -1.
         11   -1    0    0    0    0 -0.00000000000E+00 -0.00000000000E+00 -0.45593999997E+02  0.45594000000E+02  0.51100000000E-03 0.  1.
    9900012    2    1    2    0    0  0.12372883199E+02 -0.57612084990E+01  0.38299947265E+02  0.50528859299E+02  0.29999998326E+02 0.  0.
        -12    1    1    2    0    0 -0.12372883199E+02  0.57612084990E+01 -0.38299947265E+02  0.40659140701E+02  0.00000000000E+00 0.  1.
         11    1    3    3    0    0  0.17093188028E+02  0.59891489707E+01  0.16624691219E+02  0.24585104042E+02  0.51100000000E-03 0. -1.
        -11    1    3    3    0    0 -0.24886973435E+01 -0.59362724678E+00  0.21346502578E+01  0.33320773940E+01  0.51100000000E-03 0.  1.
        -12    1    3    3    0    0 -0.22316074853E+01 -0.11156730223E+02  0.19540605788E+02  0.22611677863E+02  0.00000000000E+00 0.  1.
</event>
<event>
 7    1  0.5753610E-013  0.5052886E+02  0.7816164E-02  0.1300439E+00
        -11   -1    0    0    0    0  0.00000000000E+00  0.00000000000E+00  0.45593999997E+02  0.45594000000E+02  0.51100000000E-03 0.  1.
         11   -1    0    0    0    0 -0.00000000000E+00 -0.00000000000E+00 -0.45593999997E+02  0.45594000000E+02  0.51100000000E-03 0. -1.
    9900012    2    1    2    0    0 -0.35233656432E+02  0.12701902838E+02 -0.15824561695E+02  0.50528860386E+02  0.30000001630E+02 0.  0.
        -12    1    1    2    0    0  0.35233656432E+02 -0.12701902838E+02  0.15824561695E+02  0.40659139614E+02  0.00000000000E+00 0.  1.
         11    1    3    3    0    0 -0.17790867118E+02  0.34001521762E+01 -0.15501164988E+02  0.23840346136E+02  0.51100000000E-03 0. -1.
        -11    1    3    3    0    0 -0.14525428475E+02 -0.22781707540E+01  0.56417586726E+00  0.14713817623E+02  0.51100000000E-03 0.  1.
         12    1    3    3    0    0 -0.29173608397E+01  0.11579921415E+02 -0.88757257419E+00  0.11974696628E+02  0.00000000000E+00 0. -1.
</event>
<event>
 7    1  0.5753610E-013  0.5052886E+02  0.7816164E-02  0.1300439E+00
        -11   -1    0    0    0    0  0.00000000000E+00  0.00000000000E+00  0.45593999997E+02  0.45594000000E+02  0.51100000000E-03 0.  1.
         11   -1    0    0    0    0 -0.00000000000E+00 -0.00000000000E+00 -0.45593999997E+02  0.45594000000E+02  0.51100000000E-03 0. -1.
    9900012    2    1    2    0    0  0.22014838520E+01  0.18219192947E+02 -0.36281953437E+02  0.50528859970E+02  0.30000000365E+02 0.  0.
        -12    1    1    2    0    0 -0.22014838520E+01 -0.18219192947E+02  0.36281953437E+02  0.40659140030E+02  0.00000000000E+00 0.  1.
         11    1    3    3    0    0  0.11466457441E+02  0.49094783628E+01 -0.28725106476E+02  0.31316359405E+02  0.51100000000E-03 0.  1.
        -11    1    3    3    0    0 -0.59111615779E+01  0.46926956697E+01 -0.63964006838E+01  0.98932889282E+01  0.51100000000E-03 0. -1.
        -12    1    3    3    0    0 -0.33538120109E+01  0.86170189144E+01 -0.11604462768E+01  0.93192116371E+01  0.00000000000E+00 0.  1.
</event>
<event>
 7    1  0.5753610E-013  0.5052886E+02  0.7816164E-02  0.1300439E+00
        -11   -1    0    0    0    0  0.00000000000E+00  0.00000000000E+00  0.45593999997E+02  0.45594000000E+02  0.51100000000E-03 0.  1.
         11   -1    0    0    0    0 -0.00000000000E+00 -0.00000000000E+00 -0.45593999997E+02  0.45594000000E+02  0.51100000000E-03 0. -1.
    9900012    2    1    2    0    0  0.17838853753E+02  0.18056228774E+02 -0.31763401281E+02  0.50528858818E+02  0.29999996862E+02 0.  0.
        -12    1    1    2    0    0 -0.17838853753E+02 -0.18056228774E+02  0.31763401281E+02  0.40659141182E+02  0.00000000000E+00 0.  1.
         11    1    3    3    0    0  0.21907720169E+02  0.16951815283E+02 -0.26391902089E+02  0.38260224000E+02  0.51100000000E-03 0. -1.
        -11    1    3    3    0    0  0.27736058847E+01  0.22083292743E+01 -0.75914840137E-01  0.35461769713E+01  0.51100000000E-03 0.  1.
         12    1    3    3    0    0 -0.68424723012E+01 -0.11039157840E+01 -0.52955843520E+01  0.87224578463E+01  0.00000000000E+00 0. -1.
</event>
<event>
 7    1  0.5753610E-013  0.5052886E+02  0.7816164E-02  0.1300439E+00
        -11   -1    0    0    0    0  0.00000000000E+00  0.00000000000E+00  0.45593999997E+02  0.45594000000E+02  0.51100000000E-03 0.  1.
         11   -1    0    0    0    0 -0.00000000000E+00 -0.00000000000E+00 -0.45593999997E+02  0.45594000000E+02  0.51100000000E-03 0. -1.
    9900012    2    1    2    0    0 -0.97072291140E+01 -0.27508516828E+02 -0.28323439028E+02  0.50528855967E+02  0.29999988197E+02 0.  0.
        -12    1    1    2    0    0  0.97072291140E+01  0.27508516828E+02  0.28323439028E+02  0.40659144033E+02  0.00000000000E+00 0.  1.
         11    1    3    3    0    0  0.34979678824E+01 -0.18725441372E+02 -0.65821255100E+01  0.20154461302E+02  0.51100000000E-03 0. -1.
        -11    1    3    3    0    0  0.23413474334E+01 -0.21419522172E+01 -0.47727617201E+00  0.32089967140E+01  0.51100000000E-03 0.  1.
         12    1    3    3    0    0 -0.15546544430E+02 -0.66411232380E+01 -0.21264037346E+02  0.27165397951E+02  0.00000000000E+00 0. -1.
</event>
<event>
 7    1  0.5753610E-013  0.5052886E+02  0.7816164E-02  0.1300439E+00
        -11   -1    0    0    0    0  0.00000000000E+00  0.00000000000E+00  0.45593999997E+02  0.45594000000E+02  0.51100000000E-03 0.  1.
         11   -1    0    0    0    0 -0.00000000000E+00 -0.00000000000E+00 -0.45593999997E+02  0.45594000000E+02  0.51100000000E-03 0. -1.
    9900012    2    1    2    0    0 -0.40982896324E+00  0.54450476765E+01 -0.40290806665E+02  0.50528860736E+02  0.30000002694E+02 0.  0.
        -12    1    1    2    0    0  0.40982896324E+00 -0.54450476765E+01  0.40290806665E+02  0.40659139264E+02  0.00000000000E+00 0.  1.
         11    1    3    3    0    0  0.93415327106E+01  0.66996570548E+01 -0.54393351993E+01  0.12717547158E+02  0.51100000000E-03 0. -1.
        -11    1    3    3    0    0 -0.15111785286E+01 -0.31537751055E+01 -0.23150723393E+01  0.41939859512E+01  0.51100000000E-03 0.  1.
         12    1    3    3    0    0 -0.82401831453E+01  0.18991657272E+01 -0.32536399126E+02  0.33617327627E+02  0.00000000000E+00 0. -1.
</event>
<event>
 7    1  0.5753610E-013  0.5052885E+02  0.7816164E-02  0.1300439E+00
        -11   -1    0    0    0    0  0.00000000000E+00  0.00000000000E+00  0.45593999997E+02  0.45594000000E+02  0.51100000000E-03 0.  1.
         11   -1    0    0    0    0 -0.00000000000E+00 -0.00000000000E+00 -0.45593999997E+02  0.45594000000E+02  0.51100000000E-03 0. -1.
    9900012    2    1    2    0    0 -0.25688788718E+02 -0.22052532939E+02 -0.22515285367E+02  0.50528854043E+02  0.29999982348E+02 0.  0.
        -12    1    1    2    0    0  0.25688788718E+02  0.22052532939E+02  0.22515285367E+02  0.40659145957E+02  0.00000000000E+00 0.  1.
         11    1    3    3    0    0  0.15554904164E+01 -0.45011800370E+01 -0.94824977477E+01  0.10611217459E+02  0.51100000000E-03 0. -1.
        -11    1    3    3    0    0 -0.31299424345E+01 -0.11844073991E+02 -0.78550151375E+00  0.12275815298E+02  0.51100000000E-03 0.  1.
         12    1    3    3    0    0 -0.24114336700E+02 -0.57072789111E+01 -0.12247286105E+02  0.27641821286E+02  0.00000000000E+00 0. -1.
</event>
<event>
 7    1  0.5753610E-013  0.5052886E+02  0.7816164E-02  0.1300439E+00
        -11   -1    0    0    0    0  0.00000000000E+00  0.00000000000E+00  0.45593999997E+02  0.45594000000E+02  0.51100000000E-03 0. -1.
         11   -1    0    0    0    0 -0.00000000000E+00 -0.00000000000E+00 -0.45593999997E+02  0.45594000000E+02  0.51100000000E-03 0.  1.
    9900012    2    1    2    0    0  0.50623399931E+01  0.39397512906E+02 -0.86818284473E+01  0.50528862595E+02  0.30000008343E+02 0.  0.
        -12    1    1    2    0    0 -0.50623399931E+01 -0.39397512906E+02  0.86818284473E+01  0.40659137405E+02  0.00000000000E+00 0.  1.
         11    1    3    3    0    0 -0.26450158996E+01  0.21880009308E+02 -0.92193620118E+01  0.23889904826E+02  0.51100000000E-03 0. -1.
        -11    1    3    3    0    0  0.67049349316E+01  0.15651062499E+02  0.80497186780E+01  0.18833743144E+02  0.51100000000E-03 0.  1.
         12    1    3    3    0    0  0.10024209611E+01  0.18664410991E+01 -0.75121851134E+01  0.78052146247E+01  0.00000000000E+00 0. -1.
</event>
<event>
 7    1  0.5753610E-013  0.5052886E+02  0.7816164E-02  0.1300439E+00
        -11   -1    0    0    0    0  0.00000000000E+00  0.00000000000E+00  0.45593999997E+02  0.45594000000E+02  0.51100000000E-03 0.  1.
         11   -1    0    0    0    0 -0.00000000000E+00 -0.00000000000E+00 -0.45593999997E+02  0.45594000000E+02  0.51100000000E-03 0. -1.
    9900012    2    1    2    0    0  0.21933376317E+02 -0.22530024678E+02 -0.25777717654E+02  0.50528859132E+02  0.29999997819E+02 0.  0.
        -12    1    1    2    0    0 -0.21933376317E+02  0.22530024678E+02  0.25777717654E+02  0.40659140868E+02  0.00000000000E+00 0.  1.
         11    1    3    3    0    0  0.12375119294E+02 -0.84561547571E+01  0.40867302969E+00  0.14993903585E+02  0.51100000000E-03 0. -1.
        -11    1    3    3    0    0 -0.33635729018E+01 -0.28829941868E+01 -0.20543475984E+00  0.44348034735E+01  0.51100000000E-03 0.  1.
         12    1    3    3    0    0  0.12921829924E+02 -0.11190875734E+02 -0.25980955923E+02  0.31100152074E+02  0.00000000000E+00 0. -1.
</event>
<event>
 7    1  0.8617006E-013  0.5052888E+02  0.7816164E-02  0.1300439E+00
        -11   -1    0    0    0    0  0.00000000000E+00  0.00000000000E+00  0.45593999997E+02  0.45594000000E+02  0.51100000000E-03 0. -1.
         11   -1    0    0    0    0 -0.00000000000E+00 -0.00000000000E+00 -0.45593999997E+02  0.45594000000E+02  0.51100000000E-03 0.  1.
    9900012    2    1    2    0    0 -0.13675300549E+02 -0.27105928726E+02  0.27044759030E+02  0.50528877921E+02  0.30000054929E+02 0.  0.
        -12    1    1    2    0    0  0.13675300549E+02  0.27105928726E+02 -0.27044759030E+02  0.40659122079E+02  0.00000000000E+00 0.  1.
         11    1    3    3    0    0 -0.40218705544E+01 -0.25578837050E+02  0.21940704221E+02  0.33938869303E+02  0.51100000000E-03 0. -1.
        -11    1    3    3    0    0 -0.55220625522E+01 -0.69942691080E+01  0.24569441432E+01  0.92438925767E+01  0.51100000000E-03 0.  1.
        -12    1    3    3    0    0 -0.41313674425E+01  0.54671774319E+01  0.26471106654E+01  0.73461160412E+01  0.00000000000E+00 0.  1.
</event>
<event>
 7    1  0.5753610E-013  0.5052885E+02  0.7816164E-02  0.1300439E+00
        -11   -1    0    0    0    0  0.00000000000E+00  0.00000000000E+00  0.45593999997E+02  0.45594000000E+02  0.51100000000E-03 0.  1.
         11   -1    0    0    0    0 -0.00000000000E+00 -0.00000000000E+00 -0.45593999997E+02  0.45594000000E+02  0.51100000000E-03 0. -1.
    9900012    2    1    2    0    0  0.24284221948E+02  0.31038485085E+02  0.10002762979E+02  0.50528852700E+02  0.29999978266E+02 0.  0.
        -12    1    1    2    0    0 -0.24284221948E+02 -0.31038485085E+02 -0.10002762979E+02  0.40659147300E+02  0.00000000000E+00 0.  1.
         11    1    3    3    0    0 -0.17239384944E+01  0.57936061181E+01  0.20862115819E+01  0.63945378887E+01  0.51100000000E-03 0. -1.
        -11    1    3    3    0    0  0.64580154496E+01 -0.41838973357E+01  0.37461112148E+01  0.85582889620E+01  0.51100000000E-03 0.  1.
         12    1    3    3    0    0  0.19550144992E+02  0.29428776303E+02  0.41704401823E+01  0.35576025849E+02  0.00000000000E+00 0. -1.
</event>
<event>
 7    1  0.5753610E-013  0.5052886E+02  0.7816164E-02  0.1300439E+00
        -11   -1    0    0    0    0  0.00000000000E+00  0.00000000000E+00  0.45593999997E+02  0.45594000000E+02  0.51100000000E-03 0.  1.
         11   -1    0    0    0    0 -0.00000000000E+00 -0.00000000000E+00 -0.45593999997E+02  0.45594000000E+02  0.51100000000E-03 0. -1.
    9900012    2    1    2    0    0  0.21012131383E+02 -0.86742157878E+01 -0.33710741969E+02  0.50528858237E+02  0.29999995097E+02 0.  0.
        -12    1    1    2    0    0 -0.21012131383E+02  0.86742157878E+01  0.33710741969E+02  0.40659141763E+02  0.00000000000E+00 0.  1.
         11    1    3    3    0    0 -0.16592717291E+01 -0.64955655546E+01 -0.69841377783E+01  0.96811019679E+01  0.51100000000E-03 0. -1.
        -11    1    3    3    0    0  0.21596889099E+01  0.62697037413E+01 -0.72772885498E+00  0.66710591916E+01  0.51100000000E-03 0.  1.
        -12    1    3    3    0    0  0.20511714202E+02 -0.84483539745E+01 -0.25998875336E+02  0.34176697077E+02  0.00000000000E+00 0.  1.
</event>
<event>
 7    1  0.5753610E-013  0.5052886E+02  0.7816164E-02  0.1300439E+00
        -11   -1    0    0    0    0  0.00000000000E+00  0.00000000000E+00  0.45593999997E+02  0.45594000000E+02  0.51100000000E-03 0. -1.
         11   -1    0    0    0    0 -0.00000000000E+00 -0.00000000000E+00 -0.45593999997E+02  0.45594000000E+02  0.51100000000E-03 0.  1.
    9900012    2    1    2    0    0  0.39885056111E+02  0.15502354876E+01  0.77423924954E+01  0.50528861143E+02  0.30000003930E+02 0.  0.
        -12    1    1    2    0    0 -0.39885056111E+02 -0.15502354876E+01 -0.77423924954E+01  0.40659138857E+02  0.00000000000E+00 0.  1.
         11    1    3    3    0    0 -0.63057618036E+00  0.10389418180E+01  0.66479918330E+00  0.13852742096E+01  0.51100000000E-03 0. -1.
        -11    1    3    3    0    0  0.12307648358E+02 -0.86656891560E+01  0.11774887484E+02  0.19110739184E+02  0.51100000000E-03 0.  1.
         12    1    3    3    0    0  0.28207983933E+02  0.91769828256E+01 -0.46972941718E+01  0.30032847749E+02  0.00000000000E+00 0. -1.
</event>
<event>
 7    1  0.5753610E-013  0.5052887E+02  0.7816164E-02  0.1300439E+00
        -11   -1    0    0    0    0  0.00000000000E+00  0.00000000000E+00  0.45593999997E+02  0.45594000000E+02  0.51100000000E-03 0. -1.
         11   -1    0    0    0    0 -0.00000000000E+00 -0.00000000000E+00 -0.45593999997E+02  0.45594000000E+02  0.51100000000E-03 0.  1.
    9900012    2    1    2    0    0 -0.51414806730E+01  0.23857593319E+02  0.32519920254E+02  0.50528870695E+02  0.30000032966E+02 0.  0.
        -12    1    1    2    0    0  0.51414806730E+01 -0.23857593319E+02 -0.32519920254E+02  0.40659129305E+02  0.00000000000E+00 0.  1.
         11    1    3    3    0    0  0.19977952099E+01  0.36446625100E+01  0.31926992117E+01  0.52409998121E+01  0.51100000000E-03 0. -1.
        -11    1    3    3    0    0 -0.10993010729E+02 -0.11244680863E+01  0.35555971301E+01  0.11608315320E+02  0.51100000000E-03 0.  1.
        -12    1    3    3    0    0  0.38537348457E+01  0.21337398895E+02  0.25771623912E+02  0.33679555563E+02  0.00000000000E+00 0.  1.
</event>
<event>
 7    1  0.5753610E-013  0.5052886E+02  0.7816164E-02  0.1300439E+00
        -11   -1    0    0    0    0  0.00000000000E+00  0.00000000000E+00  0.45593999997E+02  0.45594000000E+02  0.51100000000E-03 0.  1.
         11   -1    0    0    0    0 -0.00000000000E+00 -0.00000000000E+00 -0.45593999997E+02  0.45594000000E+02  0.51100000000E-03 0. -1.
    9900012    2    1    2    0    0  0.30776128780E+00 -0.15792993874E+02 -0.37465342607E+02  0.50528864874E+02  0.30000015272E+02 0.  0.
        -12    1    1    2    0    0 -0.30776128780E+00  0.15792993874E+02  0.37465342607E+02  0.40659135126E+02  0.00000000000E+00 0.  1.
         11    1    3    3    0    0 -0.53638519643E+01 -0.39626786132E+01 -0.16791000651E+02  0.18066860070E+02  0.51100000000E-03 0. -1.
        -11    1    3    3    0    0 -0.76638586664E+00 -0.16214859371E+02 -0.17970860287E+02  0.24216953388E+02  0.51100000000E-03 0.  1.
         12    1    3    3    0    0  0.64379991187E+01  0.43845441104E+01 -0.27034816695E+01  0.82450514156E+01  0.00000000000E+00 0. -1.
</event>
<event>
 7    1  0.5753610E-013  0.5052887E+02  0.7816164E-02  0.1300439E+00
        -11   -1    0    0    0    0  0.00000000000E+00  0.00000000000E+00  0.45593999997E+02  0.45594000000E+02  0.51100000000E-03 0.  1.
         11   -1    0    0    0    0 -0.00000000000E+00 -0.00000000000E+00 -0.45593999997E+02  0.45594000000E+02  0.51100000000E-03 0. -1.
    9900012    2    1    2    0    0  0.29648727745E+02 -0.26435523689E+02 -0.86764367456E+01  0.50528874035E+02  0.30000043117E+02 0.  0.
        -12    1    1    2    0    0 -0.29648727745E+02  0.26435523689E+02  0.86764367456E+01  0.40659125965E+02  0.00000000000E+00 0.  1.
         11    1    3    3    0    0  0.38668347873E+01 -0.22393938207E+01 -0.57480073597E+01  0.72805827257E+01  0.51100000000E-03 0. -1.
        -11    1    3    3    0    0  0.27663144181E+02 -0.21844255160E+02  0.42119429412E+01  0.35498753402E+02  0.51100000000E-03 0.  1.
         12    1    3    3    0    0 -0.18812512235E+01 -0.23518747088E+01 -0.71403723271E+01  0.77495379076E+01  0.00000000000E+00 0. -1.
</event>
<event>
 7    1  0.5753610E-013  0.5052876E+02  0.7816164E-02  0.1300439E+00
        -11   -1    0    0    0    0  0.00000000000E+00  0.00000000000E+00  0.45593999997E+02  0.45594000000E+02  0.51100000000E-03 0.  1.
         11   -1    0    0    0    0 -0.00000000000E+00 -0.00000000000E+00 -0.45593999997E+02  0.45594000000E+02  0.51100000000E-03 0. -1.
    9900012    2    1    2    0    0  0.28008704654E+02  0.25971953967E+02 -0.13933548607E+02  0.50528761123E+02  0.29999699909E+02 0.  0.
        -12    1    1    2    0    0 -0.28008704654E+02 -0.25971953967E+02  0.13933548607E+02  0.40659238877E+02  0.00000000000E+00 0.  1.
         11    1    3    3    0    0  0.10972041286E+02  0.39332743812E+01 -0.15269010755E+02  0.19209347387E+02  0.51100000000E-03 0. -1.
        -11    1    3    3    0    0  0.10600351361E+02  0.57997009097E+01  0.56312294255E+01  0.13330968634E+02  0.51100000000E-03 0.  1.
        -12    1    3    3    0    0  0.64363120069E+01  0.16238978676E+02 -0.42957672775E+01  0.17988445102E+02  0.00000000000E+00 0.  1.
</event>
<event>
 7    1  0.5753610E-013  0.5052886E+02  0.7816164E-02  0.1300439E+00
        -11   -1    0    0    0    0  0.00000000000E+00  0.00000000000E+00  0.45593999997E+02  0.45594000000E+02  0.51100000000E-03 0.  1.
         11   -1    0    0    0    0 -0.00000000000E+00 -0.00000000000E+00 -0.45593999997E+02  0.45594000000E+02  0.51100000000E-03 0. -1.
    9900012    2    1    2    0    0  0.33487846287E+02  0.22994615642E+02  0.17255013773E+01  0.50528861390E+02  0.30000004681E+02 0.  0.
        -12    1    1    2    0    0 -0.33487846287E+02 -0.22994615642E+02 -0.17255013773E+01  0.40659138610E+02  0.00000000000E+00 0.  1.
         11    1    3    3    0    0  0.14333101669E+02  0.12545863623E+02 -0.56269655757E+01  0.19862004917E+02  0.51100000000E-03 0. -1.
        -11    1    3    3    0    0 -0.15373196186E+01  0.45349128457E+01 -0.40864558315E+01  0.62950701070E+01  0.51100000000E-03 0.  1.
        -12    1    3    3    0    0  0.20692064237E+02  0.59138391739E+01  0.11438922784E+02  0.24371786365E+02  0.00000000000E+00 0.  1.
</event>
<event>
 7    1  0.5753610E-013  0.5052886E+02  0.7816164E-02  0.1300439E+00
        -11   -1    0    0    0    0  0.00000000000E+00  0.00000000000E+00  0.45593999997E+02  0.45594000000E+02  0.51100000000E-03 0.  1.
         11   -1    0    0    0    0 -0.00000000000E+00 -0.00000000000E+00 -0.45593999997E+02  0.45594000000E+02  0.51100000000E-03 0. -1.
    9900012    2    1    2    0    0 -0.39420997061E+01  0.15298017690E+02 -0.37464601984E+02  0.50528857152E+02  0.29999991798E+02 0.  0.
        -12    1    1    2    0    0  0.39420997061E+01 -0.15298017690E+02  0.37464601984E+02  0.40659142848E+02  0.00000000000E+00 0.  1.
         11    1    3    3    0    0  0.52400377536E+01  0.14673226394E+02 -0.96090517289E+01  0.18305612359E+02  0.51100000000E-03 0. -1.
        -11    1    3    3    0    0 -0.31347811745E+01  0.14694360428E+01  0.24136316439E+00  0.34704973324E+01  0.51100000000E-03 0.  1.
         12    1    3    3    0    0 -0.60473562853E+01 -0.84464474607E+00 -0.28096913419E+02  0.28752747460E+02  0.00000000000E+00 0. -1.
</event>
<event>
 7    1  0.5753610E-013  0.5052886E+02  0.7816164E-02  0.1300439E+00
        -11   -1    0    0    0    0  0.00000000000E+00  0.00000000000E+00  0.45593999997E+02  0.45594000000E+02  0.51100000000E-03 0.  1.
         11   -1    0    0    0    0 -0.00000000000E+00 -0.00000000000E+00 -0.45593999997E+02  0.45594000000E+02  0.51100000000E-03 0. -1.
    9900012    2    1    2    0    0 -0.29176579505E+02  0.40759869180E+01 -0.28022838889E+02  0.50528856375E+02  0.29999989437E+02 0.  0.
        -12    1    1    2    0    0  0.29176579505E+02 -0.40759869180E+01  0.28022838889E+02  0.40659143625E+02  0.00000000000E+00 0.  1.
         11    1    3    3    0    0 -0.68152130679E+01  0.44568019954E+01 -0.17368083485E+02  0.19182297500E+02  0.51100000000E-03 0. -1.
        -11    1    3    3    0    0 -0.19847802754E+02 -0.27188653385E+01 -0.15555304052E+02  0.25363260581E+02  0.51100000000E-03 0.  1.
         12    1    3    3    0    0 -0.25135636827E+01  0.23380502611E+01  0.49005486486E+01  0.59832982934E+01  0.00000000000E+00 0. -1.
</event>
<event>
 7    1  0.5753610E-013  0.5052886E+02  0.7816164E-02  0.1300439E+00
        -11   -1    0    0    0    0  0.00000000000E+00  0.00000000000E+00  0.45593999997E+02  0.45594000000E+02  0.51100000000E-03 0.  1.
         11   -1    0    0    0    0 -0.00000000000E+00 -0.00000000000E+00 -0.45593999997E+02  0.45594000000E+02  0.51100000000E-03 0. -1.
    9900012    2    1    2    0    0 -0.26901324637E+02 -0.24491525482E+01 -0.30388909109E+02  0.50528863114E+02  0.30000009922E+02 0.  0.
        -12    1    1    2    0    0  0.26901324637E+02  0.24491525482E+01  0.30388909109E+02  0.40659136886E+02  0.00000000000E+00 0.  1.
         11    1    3    3    0    0 -0.75683615003E+01 -0.69663028462E+01  0.19954200672E+01  0.10478128299E+02  0.51100000000E-03 0. -1.
        -11    1    3    3    0    0 -0.21570764581E+01 -0.18189296089E+01  0.32286555345E-01  0.28217948988E+01  0.51100000000E-03 0.  1.
        -12    1    3    3    0    0 -0.17175886679E+02  0.63360799068E+01 -0.32416615732E+02  0.37228939916E+02  0.00000000000E+00 0.  1.
</event>
<event>
 7    1  0.5753610E-013  0.5052885E+02  0.7816164E-02  0.1300439E+00
        -11   -1    0    0    0    0  0.00000000000E+00  0.00000000000E+00  0.45593999997E+02  0.45594000000E+02  0.51100000000E-03 0. -1.
         11   -1    0    0    0    0 -0.00000000000E+00 -0.00000000000E+00 -0.45593999997E+02  0.45594000000E+02  0.51100000000E-03 0.  1.
    9900012    2    1    2    0    0  0.38314698620E+02 -0.99068230575E+01  0.93276603607E+01  0.50528849477E+02  0.29999968471E+02 0.  0.
        -12    1    1    2    0    0 -0.38314698620E+02  0.99068230575E+01 -0.93276603607E+01  0.40659150523E+02  0.00000000000E+00 0.  1.
         11    1    3    3    0    0  0.10039569819E+02 -0.34396717976E+01 -0.11013761381E+01  0.10669457994E+02  0.51100000000E-03 0. -1.
        -11    1    3    3    0    0 -0.40981700587E+01 -0.21286064410E+01 -0.18362670031E+01  0.49696921412E+01  0.51100000000E-03 0.  1.
         12    1    3    3    0    0  0.32373298860E+02 -0.43385448189E+01  0.12265303502E+02  0.34889699342E+02  0.00000000000E+00 0. -1.
</event>
<event>
 7    1  0.5753610E-013  0.5052886E+02  0.7816164E-02  0.1300439E+00
        -11   -1    0    0    0    0  0.00000000000E+00  0.00000000000E+00  0.45593999997E+02  0.45594000000E+02  0.51100000000E-03 0.  1.
         11   -1    0    0    0    0 -0.00000000000E+00 -0.00000000000E+00 -0.45593999997E+02  0.45594000000E+02  0.51100000000E-03 0. -1.
    9900012    2    1    2    0    0 -0.18367760859E+02 -0.14488910883E+02 -0.33254507469E+02  0.50528862718E+02  0.30000008716E+02 0.  0.
        -12    1    1    2    0    0  0.18367760859E+02  0.14488910883E+02  0.33254507469E+02  0.40659137282E+02  0.00000000000E+00 0.  1.
         11    1    3    3    0    0 -0.46384065461E+01  0.38172103901E+01 -0.52162712740E+01  0.79558404153E+01  0.51100000000E-03 0. -1.
        -11    1    3    3    0    0 -0.84745859044E+01 -0.60114179317E+01  0.11642029771E+01  0.10455195868E+02  0.51100000000E-03 0.  1.
        -12    1    3    3    0    0 -0.52547684081E+01 -0.12294703342E+02 -0.29202439172E+02  0.32117826435E+02  0.00000000000E+00 0.  1.
</event>
<event>
 7    1  0.5753610E-013  0.5052885E+02  0.7816164E-02  0.1300439E+00
        -11   -1    0    0    0    0  0.00000000000E+00  0.00000000000E+00  0.45593999997E+02  0.45594000000E+02  0.51100000000E-03 0.  1.
         11   -1    0    0    0    0 -0.00000000000E+00 -0.00000000000E+00 -0.45593999997E+02  0.45594000000E+02  0.51100000000E-03 0. -1.
    9900012    2    1    2    0    0  0.12550593399E+02  0.97560496189E+01 -0.37422835397E+02  0.50528849641E+02  0.29999968967E+02 0.  0.
        -12    1    1    2    0    0 -0.12550593399E+02 -0.97560496189E+01  0.37422835397E+02  0.40659150359E+02  0.00000000000E+00 0.  1.
         11    1    3    3    0    0  0.84736055754E+01  0.17849776784E+01 -0.30171590549E+02  0.31389695973E+02  0.51100000000E-03 0. -1.
        -11    1    3    3    0    0 -0.28849507981E+01 -0.33285588312E+01 -0.12908689168E+01  0.45900531393E+01  0.51100000000E-03 0.  1.
         12    1    3    3    0    0  0.69619386218E+01  0.11299630772E+02 -0.59603759313E+01  0.14549100529E+02  0.00000000000E+00 0. -1.
</event>
<event>
 7    1  0.5753610E-013  0.5052886E+02  0.7816164E-02  0.1300439E+00
        -11   -1    0    0    0    0  0.00000000000E+00  0.00000000000E+00  0.45593999997E+02  0.45594000000E+02  0.51100000000E-03 0. -1.
         11   -1    0    0    0    0 -0.00000000000E+00 -0.00000000000E+00 -0.45593999997E+02  0.45594000000E+02  0.51100000000E-03 0.  1.
    9900012    2    1    2    0    0 -0.27285530046E+02 -0.10111704915E+02  0.28397513843E+02  0.50528861807E+02  0.30000005948E+02 0.  0.
        -12    1    1    2    0    0  0.27285530046E+02  0.10111704915E+02 -0.28397513843E+02  0.40659138193E+02  0.00000000000E+00 0.  1.
         11    1    3    3    0    0 -0.88359491860E+01 -0.17267496293E+01  0.20237795486E+02  0.22150034508E+02  0.51100000000E-03 0.  1.
        -11    1    3    3    0    0 -0.35626659385E+01 -0.87328857586E+01 -0.28578501845E+01  0.98551098522E+01  0.51100000000E-03 0. -1.
         12    1    3    3    0    0 -0.14886914921E+02  0.34793047272E+00  0.11017568541E+02  0.18523717447E+02  0.00000000000E+00 0. -1.
</event>
<event>
 7    1  0.5753610E-013  0.5052886E+02  0.7816164E-02  0.1300439E+00
        -11   -1    0    0    0    0  0.00000000000E+00  0.00000000000E+00  0.45593999997E+02  0.45594000000E+02  0.51100000000E-03 0.  1.
         11   -1    0    0    0    0 -0.00000000000E+00 -0.00000000000E+00 -0.45593999997E+02  0.45594000000E+02  0.51100000000E-03 0. -1.
    9900012    2    1    2    0    0 -0.39467293853E+02 -0.97568855988E+01  0.54925222829E+00  0.50528858608E+02  0.29999996226E+02 0.  0.
        -12    1    1    2    0    0  0.39467293853E+02  0.97568855988E+01 -0.54925222829E+00  0.40659141392E+02  0.00000000000E+00 0.  1.
         11    1    3    3    0    0 -0.24314469916E+01 -0.19221630347E+00 -0.67343455545E+01  0.71624222082E+01  0.51100000000E-03 0. -1.
        -11    1    3    3    0    0  0.21443502685E+01  0.64674607108E+00  0.69308163954E+00  0.23445428071E+01  0.51100000000E-03 0.  1.
        -12    1    3    3    0    0 -0.39180197130E+02 -0.10211415366E+02  0.65905161432E+01  0.41021893593E+02  0.00000000000E+00 0.  1.
</event>
<event>
 7    1  0.5753610E-013  0.5052885E+02  0.7816164E-02  0.1300439E+00
        -11   -1    0    0    0    0  0.00000000000E+00  0.00000000000E+00  0.45593999997E+02  0.45594000000E+02  0.51100000000E-03 0.  1.
         11   -1    0    0    0    0 -0.00000000000E+00 -0.00000000000E+00 -0.45593999997E+02  0.45594000000E+02  0.51100000000E-03 0. -1.
    9900012    2    1    2    0    0 -0.12465440188E+02 -0.52021976061E+01 -0.38349918982E+02  0.50528851646E+02  0.29999975062E+02 0.  0.
        -12    1    1    2    0    0  0.12465440188E+02  0.52021976061E+01  0.38349918982E+02  0.40659148354E+02  0.00000000000E+00 0.  1.
         11    1    3    3    0    0  0.24401997657E+01 -0.92437320005E+01 -0.17495542396E+02  0.19937280662E+02  0.51100000000E-03 0. -1.
        -11    1    3    3    0    0 -0.58262950722E+01  0.29464483120E+01  0.12702518901E+01  0.66513767033E+01  0.51100000000E-03 0.  1.
         12    1    3    3    0    0 -0.90793448814E+01  0.10950860824E+01 -0.22124628475E+02  0.23940194280E+02  0.00000000000E+00 0. -1.
</event>
<event>
 7    1  0.5753610E-013  0.5052886E+02  0.7816164E-02  0.1300439E+00
        -11   -1    0    0    0    0  0.00000000000E+00  0.00000000000E+00  0.45593999997E+02  0.45594000000E+02  0.51100000000E-03 0.  1.
         11   -1    0    0    0    0 -0.00000000000E+00 -0.00000000000E+00 -0.45593999997E+02  0.45594000000E+02  0.51100000000E-03 0. -1.
    9900012    2    1    2    0    0 -0.10481356603E+02 -0.26257143421E+02 -0.29221040349E+02  0.50528860609E+02  0.30000002309E+02 0.  0.
        -12    1    1    2    0    0  0.10481356603E+02  0.26257143421E+02  0.29221040349E+02  0.40659139391E+02  0.00000000000E+00 0.  1.
         11    1    3    3    0    0 -0.96762055512E+01 -0.28209309721E+02 -0.32776931043E+02  0.44313895311E+02  0.51100000000E-03 0. -1.
        -11    1    3    3    0    0  0.13182598701E+01 -0.43086877407E+00 -0.64617368770E-01  0.13883921100E+01  0.51100000000E-03 0.  1.
         12    1    3    3    0    0 -0.21234109223E+01  0.23830350733E+01  0.36205080631E+01  0.48265731881E+01  0.00000000000E+00 0. -1.
</event>
<event>
 7    1  0.5753610E-013  0.5052885E+02  0.7816164E-02  0.1300439E+00
        -11   -1    0    0    0    0  0.00000000000E+00  0.00000000000E+00  0.45593999997E+02  0.45594000000E+02  0.51100000000E-03 0.  1.
         11   -1    0    0    0    0 -0.00000000000E+00 -0.00000000000E+00 -0.45593999997E+02  0.45594000000E+02  0.51100000000E-03 0. -1.
    9900012    2    1    2    0    0 -0.31055773646E+02  0.71318270232E+01 -0.25255542340E+02  0.50528850324E+02  0.29999971046E+02 0.  0.
        -12    1    1    2    0    0  0.31055773646E+02 -0.71318270232E+01  0.25255542340E+02  0.40659149676E+02  0.00000000000E+00 0.  1.
         11    1    3    3    0    0 -0.83694432849E+01 -0.63857130872E+01 -0.59226549145E+01  0.12079021236E+02  0.51100000000E-03 0.  1.
        -11    1    3    3    0    0 -0.79319101456E+00  0.79244268956E+01  0.10321587067E+01  0.80306316978E+01  0.51100000000E-03 0. -1.
         12    1    3    3    0    0 -0.21893139347E+02  0.55931132148E+01 -0.20365046132E+02  0.30419197390E+02  0.00000000000E+00 0. -1.
</event>
<event>
 7    1  0.5753610E-013  0.5052887E+02  0.7816164E-02  0.1300439E+00
        -11   -1    0    0    0    0  0.00000000000E+00  0.00000000000E+00  0.45593999997E+02  0.45594000000E+02  0.51100000000E-03 0.  1.
         11   -1    0    0    0    0 -0.00000000000E+00 -0.00000000000E+00 -0.45593999997E+02  0.45594000000E+02  0.51100000000E-03 0. -1.
    9900012    2    1    2    0    0 -0.25694118380E+02 -0.25043264171E+02 -0.19126209473E+02  0.50528872015E+02  0.30000036977E+02 0.  0.
        -12    1    1    2    0    0  0.25694118380E+02  0.25043264171E+02  0.19126209473E+02  0.40659127985E+02  0.00000000000E+00 0.  1.
         11    1    3    3    0    0  0.26332085549E+00  0.28008027511E+01 -0.35137084434E+01  0.45011088867E+01  0.51100000000E-03 0. -1.
        -11    1    3    3    0    0 -0.21134441924E+02 -0.10044725194E+02 -0.27876884112E+01  0.23565490587E+02  0.51100000000E-03 0.  1.
        -12    1    3    3    0    0 -0.48229973120E+01 -0.17799341729E+02 -0.12824812618E+02  0.22462272542E+02  0.00000000000E+00 0.  1.
</event>
<event>
 7    1  0.5753610E-013  0.5052888E+02  0.7816164E-02  0.1300439E+00
        -11   -1    0    0    0    0  0.00000000000E+00  0.00000000000E+00  0.45593999997E+02  0.45594000000E+02  0.51100000000E-03 0. -1.
         11   -1    0    0    0    0 -0.00000000000E+00 -0.00000000000E+00 -0.45593999997E+02  0.45594000000E+02  0.51100000000E-03 0.  1.
    9900012    2    1    2    0    0  0.36263745179E+02  0.79636884011E+01  0.16573616214E+02  0.50528876771E+02  0.30000051433E+02 0.  0.
        -12    1    1    2    0    0 -0.36263745179E+02 -0.79636884011E+01 -0.16573616214E+02  0.40659123229E+02  0.00000000000E+00 0.  1.
         11    1    3    3    0    0  0.14305292219E+02 -0.64805633904E+01  0.39329143923E+01  0.16189715970E+02  0.51100000000E-03 0. -1.
        -11    1    3    3    0    0 -0.22642830396E+01 -0.83277843183E+00  0.35515950054E+01  0.42935212755E+01  0.51100000000E-03 0.  1.
         12    1    3    3    0    0  0.24222736000E+02  0.15277030223E+02  0.90891068168E+01  0.30045639525E+02  0.00000000000E+00 0. -1.
</event>
<event>
 7    1  0.5753610E-013  0.5052884E+02  0.7816164E-02  0.1300439E+00
        -11   -1    0    0    0    0  0.00000000000E+00  0.00000000000E+00  0.45593999997E+02  0.45594000000E+02  0.51100000000E-03 0.  1.
         11   -1    0    0    0    0 -0.00000000000E+00 -0.00000000000E+00 -0.45593999997E+02  0.45594000000E+02  0.51100000000E-03 0. -1.
    9900012    2    1    2    0    0  0.22271428374E+02  0.32986769310E+02  0.83080396745E+01  0.50528843656E+02  0.29999950778E+02 0.  0.
        -12    1    1    2    0    0 -0.22271428374E+02 -0.32986769310E+02 -0.83080396745E+01  0.40659156344E+02  0.00000000000E+00 0.  1.
         11    1    3    3    0    0  0.18749679500E+02  0.12251686353E+02  0.21760659359E+01  0.22503101188E+02  0.51100000000E-03 0. -1.
        -11    1    3    3    0    0  0.88178161929E+00  0.17207926621E+02 -0.33655441326E+01  0.17556114747E+02  0.51100000000E-03 0.  1.
        -12    1    3    3    0    0  0.26399672544E+01  0.35271563364E+01  0.94975178713E+01  0.10469627722E+02  0.00000000000E+00 0.  1.
</event>
<event>
 7    1  0.5753610E-013  0.5052894E+02  0.7816164E-02  0.1300439E+00
        -11   -1    0    0    0    0  0.00000000000E+00  0.00000000000E+00  0.45593999997E+02  0.45594000000E+02  0.51100000000E-03 0.  1.
         11   -1    0    0    0    0 -0.00000000000E+00 -0.00000000000E+00 -0.45593999997E+02  0.45594000000E+02  0.51100000000E-03 0. -1.
    9900012    2    1    2    0    0 -0.15651764443E+02  0.36080653843E+02 -0.10313490713E+02  0.50528937018E+02  0.30000234559E+02 0.  0.
        -12    1    1    2    0    0  0.15651764443E+02 -0.36080653843E+02  0.10313490713E+02  0.40659062982E+02  0.00000000000E+00 0.  1.
         11    1    3    3    0    0  0.17697717159E+01  0.14819974831E+02  0.15079984223E+01  0.15001260128E+02  0.51100000000E-03 0. -1.
        -11    1    3    3    0    0 -0.30047421469E+01  0.12862148299E+02 -0.13341487509E+02  0.18773881417E+02  0.51100000000E-03 0.  1.
        -12    1    3    3    0    0 -0.14416794012E+02  0.83985307123E+01  0.15199983741E+01  0.16753795473E+02  0.00000000000E+00 0.  1.
</event>
<event>
 7    1  0.5753610E-013  0.5052886E+02  0.7816164E-02  0.1300439E+00
        -11   -1    0    0    0    0  0.00000000000E+00  0.00000000000E+00  0.45593999997E+02  0.45594000000E+02  0.51100000000E-03 0. -1.
         11   -1    0    0    0    0 -0.00000000000E+00 -0.00000000000E+00 -0.45593999997E+02  0.45594000000E+02  0.51100000000E-03 0.  1.
    9900012    2    1    2    0    0  0.31144922651E+02 -0.62286613744E+01  0.25384317911E+02  0.50528855576E+02  0.29999987008E+02 0.  0.
        -12    1    1    2    0    0 -0.31144922651E+02  0.62286613744E+01 -0.25384317911E+02  0.40659144424E+02  0.00000000000E+00 0.  1.
         11    1    3    3    0    0  0.15508267781E+02 -0.22968001632E+01  0.13755754568E+02  0.20856712219E+02  0.51100000000E-03 0. -1.
        -11    1    3    3    0    0  0.50966571740E+01 -0.10377879647E+02  0.12815771592E+02  0.17260367959E+02  0.51100000000E-03 0.  1.
        -12    1    3    3    0    0  0.10539997696E+02  0.64460184360E+01 -0.11872082487E+01  0.12411775398E+02  0.00000000000E+00 0.  1.
</event>
<event>
 7    1  0.5753610E-013  0.5052887E+02  0.7816164E-02  0.1300439E+00
        -11   -1    0    0    0    0  0.00000000000E+00  0.00000000000E+00  0.45593999997E+02  0.45594000000E+02  0.51100000000E-03 0. -1.
         11   -1    0    0    0    0 -0.00000000000E+00 -0.00000000000E+00 -0.45593999997E+02  0.45594000000E+02  0.51100000000E-03 0.  1.
    9900012    2    1    2    0    0 -0.24086957953E+02 -0.32662286706E+02 -0.24816166266E+01  0.50528868955E+02  0.30000027676E+02 0.  0.
        -12    1    1    2    0    0  0.24086957953E+02  0.32662286706E+02  0.24816166266E+01  0.40659131045E+02  0.00000000000E+00 0.  1.
         11    1    3    3    0    0 -0.77766938211E+01 -0.20588528215E+02 -0.92144192271E+01  0.23859379347E+02  0.51100000000E-03 0. -1.
        -11    1    3    3    0    0  0.24118810164E+01  0.13018236491E+01  0.18644715025E+00  0.27471217031E+01  0.51100000000E-03 0.  1.
         12    1    3    3    0    0 -0.18722145148E+02 -0.13375582139E+02  0.65463554502E+01  0.23922367905E+02  0.00000000000E+00 0. -1.
</event>
<event>
 7    1  0.5753610E-013  0.5052887E+02  0.7816164E-02  0.1300439E+00
        -11   -1    0    0    0    0  0.00000000000E+00  0.00000000000E+00  0.45593999997E+02  0.45594000000E+02  0.51100000000E-03 0.  1.
         11   -1    0    0    0    0 -0.00000000000E+00 -0.00000000000E+00 -0.45593999997E+02  0.45594000000E+02  0.51100000000E-03 0. -1.
    9900012    2    1    2    0    0 -0.32786591988E+02  0.19371568692E+02 -0.14245933289E+02  0.50528869377E+02  0.30000028958E+02 0.  0.
        -12    1    1    2    0    0  0.32786591988E+02 -0.19371568692E+02  0.14245933289E+02  0.40659130623E+02  0.00000000000E+00 0.  1.
         11    1    3    3    0    0 -0.11897314764E+02  0.61075204816E+01  0.36443561353E+01  0.13861069112E+02  0.51100000000E-03 0. -1.
        -11    1    3    3    0    0 -0.17804603066E+01 -0.45420913069E+00  0.40835656308E+01  0.44779295841E+01  0.51100000000E-03 0.  1.
         12    1    3    3    0    0 -0.19108816917E+02  0.13718257341E+02 -0.21973855055E+02  0.32189870680E+02  0.00000000000E+00 0. -1.
</event>
<event>
 7    1  0.5753610E-013  0.5052887E+02  0.7816164E-02  0.1300439E+00
        -11   -1    0    0    0    0  0.00000000000E+00  0.00000000000E+00  0.45593999997E+02  0.45594000000E+02  0.51100000000E-03 0. -1.
         11   -1    0    0    0    0 -0.00000000000E+00 -0.00000000000E+00 -0.45593999997E+02  0.45594000000E+02  0.51100000000E-03 0.  1.
    9900012    2    1    2    0    0 -0.37965407568E+02 -0.55532389808E+01  0.13451929377E+02  0.50528867705E+02  0.30000023877E+02 0.  0.
        -12    1    1    2    0    0  0.37965407568E+02  0.55532389808E+01 -0.13451929377E+02  0.40659132295E+02  0.00000000000E+00 0.  1.
         11    1    3    3    0    0 -0.65750591373E+01 -0.40121623301E+01  0.10280458054E+02  0.12845881336E+02  0.51100000000E-03 0. -1.
        -11    1    3    3    0    0 -0.16796894740E+01  0.56342500701E+01  0.39931199887E+01  0.71071188316E+01  0.51100000000E-03 0.  1.
         12    1    3    3    0    0 -0.29710658957E+02 -0.71753267208E+01 -0.82164866562E+00  0.30575867538E+02  0.00000000000E+00 0. -1.
</event>
<event>
 7    1  0.5753610E-013  0.5052882E+02  0.7816164E-02  0.1300439E+00
        -11   -1    0    0    0    0  0.00000000000E+00  0.00000000000E+00  0.45593999997E+02  0.45594000000E+02  0.51100000000E-03 0.  1.
         11   -1    0    0    0    0 -0.00000000000E+00 -0.00000000000E+00 -0.45593999997E+02  0.45594000000E+02  0.51100000000E-03 0. -1.
    9900012    2    1    2    0    0  0.82453023597E+01 -0.22118368707E+02 -0.33105308785E+02  0.50528822499E+02  0.29999886469E+02 0.  0.
        -12    1    1    2    0    0 -0.82453023597E+01  0.22118368707E+02  0.33105308785E+02  0.40659177501E+02  0.00000000000E+00 0.  1.
         11    1    3    3    0    0  0.34230645546E+01 -0.21393776144E+02 -0.15284384321E+02  0.26514589059E+02  0.51100000000E-03 0. -1.
        -11    1    3    3    0    0 -0.43395807968E+01 -0.13478989130E+01 -0.12725085205E+02  0.13512090390E+02  0.51100000000E-03 0.  1.
        -12    1    3    3    0    0  0.91618186018E+01  0.62330634981E+00 -0.50958392598E+01  0.10502143051E+02  0.00000000000E+00 0.  1.
</event>
<event>
 7    1  0.5753610E-013  0.5052885E+02  0.7816164E-02  0.1300439E+00
        -11   -1    0    0    0    0  0.00000000000E+00  0.00000000000E+00  0.45593999997E+02  0.45594000000E+02  0.51100000000E-03 0.  1.
         11   -1    0    0    0    0 -0.00000000000E+00 -0.00000000000E+00 -0.45593999997E+02  0.45594000000E+02  0.51100000000E-03 0. -1.
    9900012    2    1    2    0    0 -0.80907358398E+01  0.24555385763E+02 -0.31380555680E+02  0.50528852798E+02  0.29999978566E+02 0.  0.
        -12    1    1    2    0    0  0.80907358398E+01 -0.24555385763E+02  0.31380555680E+02  0.40659147202E+02  0.00000000000E+00 0.  1.
         11    1    3    3    0    0 -0.34597495224E+01 -0.18015738880E+00 -0.13615569191E+02  0.14049414510E+02  0.51100000000E-03 0. -1.
        -11    1    3    3    0    0 -0.11819184868E+02  0.10194451173E+02 -0.95339648548E+01  0.18289790917E+02  0.51100000000E-03 0.  1.
         12    1    3    3    0    0  0.71881985510E+01  0.14541091978E+02 -0.82310216346E+01  0.18189647371E+02  0.00000000000E+00 0. -1.
</event>
<event>
 7    1  0.5753610E-013  0.5052885E+02  0.7816164E-02  0.1300439E+00
        -11   -1    0    0    0    0  0.00000000000E+00  0.00000000000E+00  0.45593999997E+02  0.45594000000E+02  0.51100000000E-03 0.  1.
         11   -1    0    0    0    0 -0.00000000000E+00 -0.00000000000E+00 -0.45593999997E+02  0.45594000000E+02  0.51100000000E-03 0. -1.
    9900012    2    1    2    0    0 -0.12901543229E+02 -0.15890686655E+02 -0.35131218311E+02  0.50528852935E+02  0.29999978980E+02 0.  0.
        -12    1    1    2    0    0  0.12901543229E+02  0.15890686655E+02  0.35131218311E+02  0.40659147065E+02  0.00000000000E+00 0.  1.
         11    1    3    3    0    0 -0.36512903416E+01  0.59981793409E+01 -0.41933550846E+01  0.81788937938E+01  0.51100000000E-03 0.  1.
        -11    1    3    3    0    0 -0.10174699961E+02 -0.42988809931E+01 -0.92271411485E+01  0.14392533867E+02  0.51100000000E-03 0. -1.
        -12    1    3    3    0    0  0.92444707324E+00 -0.17589985003E+02 -0.21710722078E+02  0.27957425274E+02  0.00000000000E+00 0.  1.
</event>
<event>
 7    1  0.5753610E-013  0.5052885E+02  0.7816164E-02  0.1300439E+00
        -11   -1    0    0    0    0  0.00000000000E+00  0.00000000000E+00  0.45593999997E+02  0.45594000000E+02  0.51100000000E-03 0. -1.
         11   -1    0    0    0    0 -0.00000000000E+00 -0.00000000000E+00 -0.45593999997E+02  0.45594000000E+02  0.51100000000E-03 0.  1.
    9900012    2    1    2    0    0 -0.32078095299E+02 -0.46159039785E+01  0.24553123558E+02  0.50528847967E+02  0.29999963882E+02 0.  0.
        -12    1    1    2    0    0  0.32078095299E+02  0.46159039785E+01 -0.24553123558E+02  0.40659152033E+02  0.00000000000E+00 0.  1.
         11    1    3    3    0    0  0.31974507126E+01  0.30410225254E+01  0.30797691264E+01  0.53811232278E+01  0.51100000000E-03 0. -1.
        -11    1    3    3    0    0 -0.55252769593E+01  0.20998919963E+00 -0.25685428679E+01  0.60967363126E+01  0.51100000000E-03 0.  1.
        -12    1    3    3    0    0 -0.29750269052E+02 -0.78669157036E+01  0.24041897300E+02  0.39050988427E+02  0.00000000000E+00 0.  1.
</event>
<event>
 7    1  0.5753610E-013  0.5052886E+02  0.7816164E-02  0.1300439E+00
        -11   -1    0    0    0    0  0.00000000000E+00  0.00000000000E+00  0.45593999997E+02  0.45594000000E+02  0.51100000000E-03 0. -1.
         11   -1    0    0    0    0 -0.00000000000E+00 -0.00000000000E+00 -0.45593999997E+02  0.45594000000E+02  0.51100000000E-03 0.  1.
    9900012    2    1    2    0    0 -0.33806004612E+02 -0.10268104986E+02  0.20121781530E+02  0.50528855644E+02  0.29999987216E+02 0.  0.
        -12    1    1    2    0    0  0.33806004612E+02  0.10268104986E+02 -0.20121781530E+02  0.40659144356E+02  0.00000000000E+00 0.  1.
         11    1    3    3    0    0 -0.44973041149E+01  0.35053132572E+01 -0.63766722217E+01  0.85542337013E+01  0.51100000000E-03 0.  1.
        -11    1    3    3    0    0 -0.13660144131E+02 -0.70311902502E+01  0.10558406584E+02  0.18641811175E+02  0.51100000000E-03 0. -1.
        -12    1    3    3    0    0 -0.15648556366E+02 -0.67422279933E+01  0.15940047167E+02  0.23332810768E+02  0.00000000000E+00 0.  1.
</event>
<event>
 7    1  0.6113679E-013  0.5052890E+02  0.7816164E-02  0.1300439E+00
        -11   -1    0    0    0    0  0.00000000000E+00  0.00000000000E+00  0.45593999997E+02  0.45594000000E+02  0.51100000000E-03 0.  1.
         11   -1    0    0    0    0 -0.00000000000E+00 -0.00000000000E+00 -0.45593999997E+02  0.45594000000E+02  0.51100000000E-03 0. -1.
    9900012    2    1    2    0    0  0.23821186633E+02 -0.18242711729E+02 -0.27439338930E+02  0.50528895426E+02  0.30000108136E+02 0.  0.
        -12    1    1    2    0    0 -0.23821186633E+02  0.18242711729E+02  0.27439338930E+02  0.40659104574E+02  0.00000000000E+00 0.  1.
         11    1    3    3    0    0  0.65538665999E+01 -0.52262692344E+01 -0.15681899214E+02  0.17781704663E+02  0.51100000000E-03 0. -1.
        -11    1    3    3    0    0  0.16139878470E+02 -0.18555223789E+02 -0.11335074791E+02  0.27079068072E+02  0.51100000000E-03 0.  1.
        -12    1    3    3    0    0  0.11274415638E+01  0.55387812944E+01 -0.42236492547E+00  0.56681226907E+01  0.00000000000E+00 0.  1.
</event>
<event>
 7    1  0.5753610E-013  0.5052886E+02  0.7816164E-02  0.1300439E+00
        -11   -1    0    0    0    0  0.00000000000E+00  0.00000000000E+00  0.45593999997E+02  0.45594000000E+02  0.51100000000E-03 0.  1.
         11   -1    0    0    0    0 -0.00000000000E+00 -0.00000000000E+00 -0.45593999997E+02  0.45594000000E+02  0.51100000000E-03 0. -1.
    9900012    2    1    2    0    0  0.34163075215E+02  0.14383326883E+02 -0.16708376012E+02  0.50528860445E+02  0.30000001809E+02 0.  0.
        -12    1    1    2    0    0 -0.34163075215E+02 -0.14383326883E+02  0.16708376012E+02  0.40659139555E+02  0.00000000000E+00 0.  1.
         11    1    3    3    0    0  0.46372778113E+01  0.88569046524E+01  0.15547489108E+01  0.10117625708E+02  0.51100000000E-03 0. -1.
        -11    1    3    3    0    0  0.62388915994E+01 -0.70544000467E+01 -0.65254492193E+01  0.11457304054E+02  0.51100000000E-03 0.  1.
         12    1    3    3    0    0  0.23286905804E+02  0.12580822278E+02 -0.11737675703E+02  0.28953930684E+02  0.00000000000E+00 0. -1.
</event>
<event>
 7    1  0.5753610E-013  0.5052886E+02  0.7816164E-02  0.1300439E+00
        -11   -1    0    0    0    0  0.00000000000E+00  0.00000000000E+00  0.45593999997E+02  0.45594000000E+02  0.51100000000E-03 0. -1.
         11   -1    0    0    0    0 -0.00000000000E+00 -0.00000000000E+00 -0.45593999997E+02  0.45594000000E+02  0.51100000000E-03 0.  1.
    9900012    2    1    2    0    0 -0.33575134116E+02  0.22399961864E+02  0.49110162685E+01  0.50528855848E+02  0.29999987835E+02 0.  0.
        -12    1    1    2    0    0  0.33575134116E+02 -0.22399961864E+02 -0.49110162685E+01  0.40659144152E+02  0.00000000000E+00 0.  1.
         11    1    3    3    0    0 -0.33635230023E+02  0.12699856769E+02  0.12317424262E+02  0.38004394501E+02  0.51100000000E-03 0. -1.
        -11    1    3    3    0    0  0.21783941367E+00  0.47075351270E+00 -0.14470402676E+01  0.15372015733E+01  0.51100000000E-03 0.  1.
         12    1    3    3    0    0 -0.15774350632E+00  0.92293515826E+01 -0.59593677258E+01  0.10987259774E+02  0.00000000000E+00 0. -1.
</event>
<event>
 7    1  0.5753610E-013  0.5052886E+02  0.7816164E-02  0.1300439E+00
        -11   -1    0    0    0    0  0.00000000000E+00  0.00000000000E+00  0.45593999997E+02  0.45594000000E+02  0.51100000000E-03 0.  1.
         11   -1    0    0    0    0 -0.00000000000E+00 -0.00000000000E+00 -0.45593999997E+02  0.45594000000E+02  0.51100000000E-03 0. -1.
    9900012    2    1    2    0    0 -0.19642957980E+01 -0.40429323976E+02 -0.38441169208E+01  0.50528856747E+02  0.29999990570E+02 0.  0.
        -12    1    1    2    0    0  0.19642957980E+01  0.40429323976E+02  0.38441169208E+01  0.40659143253E+02  0.00000000000E+00 0.  1.
         11    1    3    3    0    0 -0.39355366580E+01 -0.23895058943E+02  0.35824532726E+01  0.24480528230E+02  0.51100000000E-03 0. -1.
        -11    1    3    3    0    0 -0.83422355253E+01 -0.75157375517E+01 -0.26287749218E+01  0.11532114392E+02  0.51100000000E-03 0.  1.
        -12    1    3    3    0    0  0.10313476385E+02 -0.90185274810E+01 -0.47977952716E+01  0.14516214126E+02  0.00000000000E+00 0.  1.
</event>
<event>
 7    1  0.5753610E-013  0.5052886E+02  0.7816164E-02  0.1300439E+00
        -11   -1    0    0    0    0  0.00000000000E+00  0.00000000000E+00  0.45593999997E+02  0.45594000000E+02  0.51100000000E-03 0.  1.
         11   -1    0    0    0    0 -0.00000000000E+00 -0.00000000000E+00 -0.45593999997E+02  0.45594000000E+02  0.51100000000E-03 0. -1.
    9900012    2    1    2    0    0 -0.24872470668E+02  0.19243479358E+02  0.25772357422E+02  0.50528859551E+02  0.29999999091E+02 0.  0.
        -12    1    1    2    0    0  0.24872470668E+02 -0.19243479358E+02 -0.25772357422E+02  0.40659140449E+02  0.00000000000E+00 0.  1.
         11    1    3    3    0    0 -0.60099202756E+01  0.11047390057E+01 -0.12463319639E+01  0.62364199358E+01  0.51100000000E-03 0. -1.
        -11    1    3    3    0    0 -0.42988086199E-01 -0.49685747165E+01  0.61713271077E+01  0.79229957226E+01  0.51100000000E-03 0.  1.
         12    1    3    3    0    0 -0.18819562306E+02  0.23107315069E+02  0.20847362278E+02  0.36369443893E+02  0.00000000000E+00 0. -1.
</event>
<event>
 7    1  0.5753610E-013  0.5052882E+02  0.7816164E-02  0.1300439E+00
        -11   -1    0    0    0    0  0.00000000000E+00  0.00000000000E+00  0.45593999997E+02  0.45594000000E+02  0.51100000000E-03 0. -1.
         11   -1    0    0    0    0 -0.00000000000E+00 -0.00000000000E+00 -0.45593999997E+02  0.45594000000E+02  0.51100000000E-03 0.  1.
    9900012    2    1    2    0    0 -0.15268886227E+02  0.28097401593E+02  0.25111073569E+02  0.50528820487E+02  0.29999880351E+02 0.  0.
        -12    1    1    2    0    0  0.15268886227E+02 -0.28097401593E+02 -0.25111073569E+02  0.40659179513E+02  0.00000000000E+00 0.  1.
         11    1    3    3    0    0 -0.39682393959E+01  0.11990108272E+02  0.48387254375E+01  0.13524898684E+02  0.51100000000E-03 0. -1.
        -11    1    3    3    0    0 -0.13601597116E+02  0.34359808500E+01  0.13211536833E+01  0.14090949430E+02  0.51100000000E-03 0.  1.
         12    1    3    3    0    0  0.23009502853E+01  0.12671312471E+02  0.18951194449E+02  0.22912972373E+02  0.00000000000E+00 0. -1.
</event>
<event>
 7    1  0.5753610E-013  0.5052887E+02  0.7816164E-02  0.1300439E+00
        -11   -1    0    0    0    0  0.00000000000E+00  0.00000000000E+00  0.45593999997E+02  0.45594000000E+02  0.51100000000E-03 0.  1.
         11   -1    0    0    0    0 -0.00000000000E+00 -0.00000000000E+00 -0.45593999997E+02  0.45594000000E+02  0.51100000000E-03 0. -1.
    9900012    2    1    2    0    0  0.13447003005E+02  0.17694744544E+02 -0.34047603057E+02  0.50528866361E+02  0.30000019792E+02 0.  0.
        -12    1    1    2    0    0 -0.13447003005E+02 -0.17694744544E+02  0.34047603057E+02  0.40659133639E+02  0.00000000000E+00 0.  1.
         11    1    3    3    0    0  0.38334061475E+01  0.21471498301E+01 -0.21248354610E+02  0.21697876140E+02  0.51100000000E-03 0. -1.
        -11    1    3    3    0    0 -0.53064617102E+01  0.19836337411E+01 -0.30441365760E+01  0.64311823528E+01  0.51100000000E-03 0.  1.
        -12    1    3    3    0    0  0.14920058567E+02  0.13563960973E+02 -0.97551118711E+01  0.22399807869E+02  0.00000000000E+00 0.  1.
</event>
<event>
 7    1  0.5753610E-013  0.5052885E+02  0.7816164E-02  0.1300439E+00
        -11   -1    0    0    0    0  0.00000000000E+00  0.00000000000E+00  0.45593999997E+02  0.45594000000E+02  0.51100000000E-03 0.  1.
         11   -1    0    0    0    0 -0.00000000000E+00 -0.00000000000E+00 -0.45593999997E+02  0.45594000000E+02  0.51100000000E-03 0. -1.
    9900012    2    1    2    0    0 -0.15477066048E+02  0.29812946012E+02 -0.22908847485E+02  0.50528848306E+02  0.29999964912E+02 0.  0.
        -12    1    1    2    0    0  0.15477066048E+02 -0.29812946012E+02  0.22908847485E+02  0.40659151694E+02  0.00000000000E+00 0.  1.
         11    1    3    3    0    0 -0.19936883838E+02  0.13477977350E+02 -0.10745724203E+02  0.26355375154E+02  0.51100000000E-03 0. -1.
        -11    1    3    3    0    0 -0.82407727612E+00  0.26335178217E+01 -0.86425081501E+01  0.90723462709E+01  0.51100000000E-03 0.  1.
        -12    1    3    3    0    0  0.52838950654E+01  0.13701450840E+02 -0.35206151318E+01  0.15101126882E+02  0.00000000000E+00 0.  1.
</event>
<event>
 7    1  0.5753610E-013  0.5052888E+02  0.7816164E-02  0.1300439E+00
        -11   -1    0    0    0    0  0.00000000000E+00  0.00000000000E+00  0.45593999997E+02  0.45594000000E+02  0.51100000000E-03 0.  1.
         11   -1    0    0    0    0 -0.00000000000E+00 -0.00000000000E+00 -0.45593999997E+02  0.45594000000E+02  0.51100000000E-03 0. -1.
    9900012    2    1    2    0    0 -0.40622087624E+01 -0.10473131933E+02 -0.39076538288E+02  0.50528881993E+02  0.30000067306E+02 0.  0.
        -12    1    1    2    0    0  0.40622087624E+01  0.10473131933E+02  0.39076538288E+02  0.40659118007E+02  0.00000000000E+00 0.  1.
         11    1    3    3    0    0  0.44601520490E+01 -0.35495528703E+01 -0.19784165008E+02  0.20588964695E+02  0.51100000000E-03 0. -1.
        -11    1    3    3    0    0 -0.34754757676E+01  0.53165229497E+01 -0.14550797035E+02  0.15876713851E+02  0.51100000000E-03 0.  1.
        -12    1    3    3    0    0 -0.50468850439E+01 -0.12240102012E+02 -0.47415762455E+01  0.14063203448E+02  0.00000000000E+00 0.  1.
</event>
<event>
 7    1  0.5753610E-013  0.5052886E+02  0.7816164E-02  0.1300439E+00
        -11   -1    0    0    0    0  0.00000000000E+00  0.00000000000E+00  0.45593999997E+02  0.45594000000E+02  0.51100000000E-03 0. -1.
         11   -1    0    0    0    0 -0.00000000000E+00 -0.00000000000E+00 -0.45593999997E+02  0.45594000000E+02  0.51100000000E-03 0.  1.
    9900012    2    1    2    0    0 -0.11990596128E+02 -0.31817713641E+02  0.22294044285E+02  0.50528859485E+02  0.29999998891E+02 0.  0.
        -12    1    1    2    0    0  0.11990596128E+02  0.31817713641E+02 -0.22294044285E+02  0.40659140515E+02  0.00000000000E+00 0.  1.
         11    1    3    3    0    0 -0.10056238429E+02 -0.88992456652E+01  0.11863433236E+02  0.17918302184E+02  0.51100000000E-03 0. -1.
        -11    1    3    3    0    0 -0.11942708552E+01  0.36810376765E+01 -0.38013578755E+00  0.38885504664E+01  0.51100000000E-03 0.  1.
        -12    1    3    3    0    0 -0.74008684420E+00 -0.26599505652E+02  0.10810746836E+02  0.28722006835E+02  0.00000000000E+00 0.  1.
</event>
<event>
 7    1  0.5753610E-013  0.5052886E+02  0.7816164E-02  0.1300439E+00
        -11   -1    0    0    0    0  0.00000000000E+00  0.00000000000E+00  0.45593999997E+02  0.45594000000E+02  0.51100000000E-03 0.  1.
         11   -1    0    0    0    0 -0.00000000000E+00 -0.00000000000E+00 -0.45593999997E+02  0.45594000000E+02  0.51100000000E-03 0. -1.
    9900012    2    1    2    0    0  0.25367777862E+01  0.29016195892E+02 -0.28368840543E+02  0.50528856141E+02  0.29999988727E+02 0.  0.
        -12    1    1    2    0    0 -0.25367777862E+01 -0.29016195892E+02  0.28368840543E+02  0.40659143859E+02  0.00000000000E+00 0.  1.
         11    1    3    3    0    0  0.77233038801E+01  0.25354593007E+02 -0.15123579693E+02  0.30516019930E+02  0.51100000000E-03 0. -1.
        -11    1    3    3    0    0  0.36007629662E+01 -0.11039197871E+01 -0.47598002003E+00  0.37961414720E+01  0.51100000000E-03 0.  1.
        -12    1    3    3    0    0 -0.87872890601E+01  0.47655226727E+01 -0.12769280829E+02  0.16216694739E+02  0.00000000000E+00 0.  1.
</event>
<event>
 7    1  0.5753610E-013  0.5052888E+02  0.7816164E-02  0.1300439E+00
        -11   -1    0    0    0    0  0.00000000000E+00  0.00000000000E+00  0.45593999997E+02  0.45594000000E+02  0.51100000000E-03 0. -1.
         11   -1    0    0    0    0 -0.00000000000E+00 -0.00000000000E+00 -0.45593999997E+02  0.45594000000E+02  0.51100000000E-03 0.  1.
    9900012    2    1    2    0    0  0.17009255966E+02  0.35771689739E+02  0.91779957641E+01  0.50528878249E+02  0.30000055927E+02 0.  0.
        -12    1    1    2    0    0 -0.17009255966E+02 -0.35771689739E+02 -0.91779957641E+01  0.40659121751E+02  0.00000000000E+00 0.  1.
         11    1    3    3    0    0  0.47087757563E+01  0.13751349446E+02 -0.50722536129E+01  0.15394802294E+02  0.51100000000E-03 0. -1.
        -11    1    3    3    0    0  0.11736728468E+01 -0.35817345361E+01 -0.48977301126E-01  0.37694468130E+01  0.51100000000E-03 0.  1.
         12    1    3    3    0    0  0.11126807363E+02  0.25602074829E+02  0.14299226678E+02  0.31364629142E+02  0.00000000000E+00 0. -1.
</event>
<event>
 7    1  0.5753610E-013  0.5052887E+02  0.7816164E-02  0.1300439E+00
        -11   -1    0    0    0    0  0.00000000000E+00  0.00000000000E+00  0.45593999997E+02  0.45594000000E+02  0.51100000000E-03 0.  1.
         11   -1    0    0    0    0 -0.00000000000E+00 -0.00000000000E+00 -0.45593999997E+02  0.45594000000E+02  0.51100000000E-03 0. -1.
    9900012    2    1    2    0    0  0.51826938087E+00  0.25418706904E+02 -0.31729889339E+02  0.50528866447E+02  0.30000020051E+02 0.  0.
        -12    1    1    2    0    0 -0.51826938087E+00 -0.25418706904E+02  0.31729889339E+02  0.40659133553E+02  0.00000000000E+00 0.  1.
         11    1    3    3    0    0  0.30416653646E+01  0.15270934868E+02 -0.51729520630E+01  0.16407699816E+02  0.51100000000E-03 0. -1.
        -11    1    3    3    0    0  0.10785958291E+01 -0.27609318862E+01  0.12780079451E+01  0.32279123922E+01  0.51100000000E-03 0.  1.
         12    1    3    3    0    0 -0.36019918129E+01  0.12908703922E+02 -0.27834945221E+02  0.30893254238E+02  0.00000000000E+00 0. -1.
</event>
<event>
 7    1  0.5753610E-013  0.5052886E+02  0.7816164E-02  0.1300439E+00
        -11   -1    0    0    0    0  0.00000000000E+00  0.00000000000E+00  0.45593999997E+02  0.45594000000E+02  0.51100000000E-03 0. -1.
         11   -1    0    0    0    0 -0.00000000000E+00 -0.00000000000E+00 -0.45593999997E+02  0.45594000000E+02  0.51100000000E-03 0.  1.
    9900012    2    1    2    0    0 -0.31819624203E+02  0.23800286115E+02  0.86152911653E+01  0.50528863937E+02  0.30000012421E+02 0.  0.
        -12    1    1    2    0    0  0.31819624203E+02 -0.23800286115E+02 -0.86152911653E+01  0.40659136063E+02  0.00000000000E+00 0.  1.
         11    1    3    3    0    0  0.66148213632E+00 -0.15199176508E+01 -0.70841469246E-01  0.16591344300E+01  0.51100000000E-03 0.  1.
        -11    1    3    3    0    0 -0.24025015184E+02  0.14029370190E+02 -0.60485633942E+01  0.28471208297E+02  0.51100000000E-03 0. -1.
        -12    1    3    3    0    0 -0.84560911553E+01  0.11290833576E+02  0.14734696029E+02  0.20398521209E+02  0.00000000000E+00 0.  1.
</event>
<event>
 7    1  0.5753610E-013  0.5052887E+02  0.7816164E-02  0.1300439E+00
        -11   -1    0    0    0    0  0.00000000000E+00  0.00000000000E+00  0.45593999997E+02  0.45594000000E+02  0.51100000000E-03 0. -1.
         11   -1    0    0    0    0 -0.00000000000E+00 -0.00000000000E+00 -0.45593999997E+02  0.45594000000E+02  0.51100000000E-03 0.  1.
    9900012    2    1    2    0    0 -0.70856288213E+01  0.35983394063E+02  0.17554321214E+02  0.50528868463E+02  0.30000026180E+02 0.  0.
        -12    1    1    2    0    0  0.70856288213E+01 -0.35983394063E+02 -0.17554321214E+02  0.40659131537E+02  0.00000000000E+00 0.  1.
         11    1    3    3    0    0 -0.66419768662E+01  0.22926182312E+02  0.89941504020E+01  0.25507262374E+02  0.51100000000E-03 0. -1.
        -11    1    3    3    0    0 -0.40079306951E+01  0.17155439540E+02  0.85676920511E+01  0.19590251699E+02  0.51100000000E-03 0.  1.
        -12    1    3    3    0    0  0.35642787400E+01 -0.40982277893E+01 -0.75212392842E-02  0.54313543908E+01  0.00000000000E+00 0.  1.
</event>
<event>
 7    1  0.5753610E-013  0.5052886E+02  0.7816164E-02  0.1300439E+00
        -11   -1    0    0    0    0  0.00000000000E+00  0.00000000000E+00  0.45593999997E+02  0.45594000000E+02  0.51100000000E-03 0.  1.
         11   -1    0    0    0    0 -0.00000000000E+00 -0.00000000000E+00 -0.45593999997E+02  0.45594000000E+02  0.51100000000E-03 0. -1.
    9900012    2    1    2    0    0  0.54991945134E+01 -0.55873918945E+01 -0.39896183753E+02  0.50528861217E+02  0.30000004156E+02 0.  0.
        -12    1    1    2    0    0 -0.54991945134E+01  0.55873918945E+01  0.39896183753E+02  0.40659138783E+02  0.00000000000E+00 0.  1.
         11    1    3    3    0    0  0.11187007072E+02  0.15889144707E+01 -0.14604012933E+02  0.18464857715E+02  0.51100000000E-03 0. -1.
        -11    1    3    3    0    0  0.26358397579E+00  0.16078100364E+01  0.21178325193E+01  0.26720300272E+01  0.51100000000E-03 0.  1.
         12    1    3    3    0    0 -0.59513965345E+01 -0.87841164016E+01 -0.27410003340E+02  0.29391973475E+02  0.00000000000E+00 0. -1.
</event>
<event>
 7    1  0.5753610E-013  0.5052886E+02  0.7816164E-02  0.1300439E+00
        -11   -1    0    0    0    0  0.00000000000E+00  0.00000000000E+00  0.45593999997E+02  0.45594000000E+02  0.51100000000E-03 0. -1.
         11   -1    0    0    0    0 -0.00000000000E+00 -0.00000000000E+00 -0.45593999997E+02  0.45594000000E+02  0.51100000000E-03 0.  1.
    9900012    2    1    2    0    0  0.19505367804E+02  0.34511873593E+02 -0.90353275063E+01  0.50528856684E+02  0.29999990377E+02 0.  0.
        -12    1    1    2    0    0 -0.19505367804E+02 -0.34511873593E+02  0.90353275063E+01  0.40659143316E+02  0.00000000000E+00 0.  1.
         11    1    3    3    0    0  0.18256558511E+02  0.17781373489E+02  0.52596569846E+01  0.26021974631E+02  0.51100000000E-03 0. -1.
        -11    1    3    3    0    0 -0.23041950712E+01 -0.14505072167E+00 -0.36346924301E+00  0.23371916459E+01  0.51100000000E-03 0.  1.
        -12    1    3    3    0    0  0.35530043638E+01  0.16875550825E+02 -0.13931515248E+02  0.22169690407E+02  0.00000000000E+00 0.  1.
</event>
<event>
 7    1  0.5753610E-013  0.5052894E+02  0.7816164E-02  0.1300438E+00
        -11   -1    0    0    0    0  0.00000000000E+00  0.00000000000E+00  0.45593999997E+02  0.45594000000E+02  0.51100000000E-03 0. -1.
         11   -1    0    0    0    0 -0.00000000000E+00 -0.00000000000E+00 -0.45593999997E+02  0.45594000000E+02  0.51100000000E-03 0.  1.
    9900012    2    1    2    0    0 -0.10448821437E+02 -0.38638114039E+02  0.71468214738E+01  0.50528944636E+02  0.30000257716E+02 0.  0.
        -12    1    1    2    0    0  0.10448821437E+02  0.38638114039E+02 -0.71468214738E+01  0.40659055364E+02  0.00000000000E+00 0.  1.
         11    1    3    3    0    0 -0.92033184800E+01 -0.32722930763E+02 -0.53939255321E+01  0.34417810820E+02  0.51100000000E-03 0. -1.
        -11    1    3    3    0    0 -0.60117818042E+00  0.27469191570E+00 -0.10057568366E+01  0.12035023592E+01  0.51100000000E-03 0.  1.
         12    1    3    3    0    0 -0.64432477707E+00 -0.61898751916E+01  0.13546503842E+02  0.14907631457E+02  0.00000000000E+00 0. -1.
</event>
<event>
 7    1  0.5753610E-013  0.5052886E+02  0.7816164E-02  0.1300439E+00
        -11   -1    0    0    0    0  0.00000000000E+00  0.00000000000E+00  0.45593999997E+02  0.45594000000E+02  0.51100000000E-03 0.  1.
         11   -1    0    0    0    0 -0.00000000000E+00 -0.00000000000E+00 -0.45593999997E+02  0.45594000000E+02  0.51100000000E-03 0. -1.
    9900012    2    1    2    0    0 -0.41219487680E+01  0.13379977620E+02 -0.38172649375E+02  0.50528862982E+02  0.30000009519E+02 0.  0.
        -12    1    1    2    0    0  0.41219487680E+01 -0.13379977620E+02  0.38172649375E+02  0.40659137018E+02  0.00000000000E+00 0.  1.
         11    1    3    3    0    0 -0.10551772705E+02  0.48885608887E+01 -0.71247482047E+01  0.13638180671E+02  0.51100000000E-03 0. -1.
        -11    1    3    3    0    0 -0.36479689691E+01 -0.25582088249E+01 -0.11087641013E+02  0.11949388834E+02  0.51100000000E-03 0.  1.
        -12    1    3    3    0    0  0.10077792906E+02  0.11049625556E+02 -0.19960260157E+02  0.24941293477E+02  0.00000000000E+00 0.  1.
</event>
<event>
 7    1  0.5753610E-013  0.5052873E+02  0.7816164E-02  0.1300439E+00
        -11   -1    0    0    0    0  0.00000000000E+00  0.00000000000E+00  0.45593999997E+02  0.45594000000E+02  0.51100000000E-03 0.  1.
         11   -1    0    0    0    0 -0.00000000000E+00 -0.00000000000E+00 -0.45593999997E+02  0.45594000000E+02  0.51100000000E-03 0. -1.
    9900012    2    1    2    0    0 -0.20496160161E+02  0.79975212027E+01 -0.34192446639E+02  0.50528728807E+02  0.29999601681E+02 0.  0.
        -12    1    1    2    0    0  0.20496160161E+02 -0.79975212027E+01  0.34192446639E+02  0.40659271193E+02  0.00000000000E+00 0.  1.
         11    1    3    3    0    0 -0.37095246247E+01 -0.41965129279E+01 -0.17445077285E+02  0.18322172781E+02  0.51100000000E-03 0. -1.
        -11    1    3    3    0    0 -0.39705239682E+01  0.99454153055E+01 -0.15896311545E+02  0.19166874215E+02  0.51100000000E-03 0.  1.
        -12    1    3    3    0    0 -0.12816111568E+02  0.22486188251E+01 -0.85105780969E+00  0.13039681811E+02  0.00000000000E+00 0.  1.
</event>
<event>
 7    1  0.5753610E-013  0.5052886E+02  0.7816164E-02  0.1300439E+00
        -11   -1    0    0    0    0  0.00000000000E+00  0.00000000000E+00  0.45593999997E+02  0.45594000000E+02  0.51100000000E-03 0.  1.
         11   -1    0    0    0    0 -0.00000000000E+00 -0.00000000000E+00 -0.45593999997E+02  0.45594000000E+02  0.51100000000E-03 0. -1.
    9900012    2    1    2    0    0  0.19391139710E+02 -0.78222993727E+01 -0.34870632603E+02  0.50528859762E+02  0.29999999733E+02 0.  0.
        -12    1    1    2    0    0 -0.19391139710E+02  0.78222993727E+01  0.34870632603E+02  0.40659140238E+02  0.00000000000E+00 0.  1.
         11    1    3    3    0    0  0.84953704265E+01  0.92561393577E-01 -0.21020802991E+02  0.22672759977E+02  0.51100000000E-03 0. -1.
        -11    1    3    3    0    0  0.96786434207E+00 -0.38048354490E+01 -0.16357736307E+02  0.16822279023E+02  0.51100000000E-03 0.  1.
        -12    1    3    3    0    0  0.99279049416E+01 -0.41100253173E+01  0.25079066947E+01  0.11033820763E+02  0.00000000000E+00 0.  1.
</event>
<event>
 7    1  0.5753610E-013  0.5052888E+02  0.7816164E-02  0.1300439E+00
        -11   -1    0    0    0    0  0.00000000000E+00  0.00000000000E+00  0.45593999997E+02  0.45594000000E+02  0.51100000000E-03 0.  1.
         11   -1    0    0    0    0 -0.00000000000E+00 -0.00000000000E+00 -0.45593999997E+02  0.45594000000E+02  0.51100000000E-03 0. -1.
    9900012    2    1    2    0    0 -0.29322143608E+02 -0.24248876927E+01 -0.28062350623E+02  0.50528884065E+02  0.30000073605E+02 0.  0.
        -12    1    1    2    0    0  0.29322143608E+02  0.24248876927E+01  0.28062350623E+02  0.40659115935E+02  0.00000000000E+00 0.  1.
         11    1    3    3    0    0 -0.39391379654E+01  0.16623458920E+01 -0.16519390964E+01  0.45835690040E+01  0.51100000000E-03 0. -1.
        -11    1    3    3    0    0 -0.81573981884E+01  0.11407375150E+02 -0.13281538542E+02  0.19315036095E+02  0.51100000000E-03 0.  1.
         12    1    3    3    0    0 -0.17225607454E+02 -0.15494608735E+02 -0.13128872984E+02  0.26630278967E+02  0.00000000000E+00 0. -1.
</event>
<event>
 7    1  0.5753610E-013  0.5052886E+02  0.7816164E-02  0.1300439E+00
        -11   -1    0    0    0    0  0.00000000000E+00  0.00000000000E+00  0.45593999997E+02  0.45594000000E+02  0.51100000000E-03 0.  1.
         11   -1    0    0    0    0 -0.00000000000E+00 -0.00000000000E+00 -0.45593999997E+02  0.45594000000E+02  0.51100000000E-03 0. -1.
    9900012    2    1    2    0    0 -0.11931120366E+02  0.25484116615E+02 -0.29349170991E+02  0.50528859936E+02  0.30000000262E+02 0.  0.
        -12    1    1    2    0    0  0.11931120366E+02 -0.25484116615E+02  0.29349170991E+02  0.40659140064E+02  0.00000000000E+00 0.  1.
         11    1    3    3    0    0 -0.12491951829E+02  0.62221595432E+01 -0.23986368335E+01  0.14160423327E+02  0.51100000000E-03 0. -1.
        -11    1    3    3    0    0  0.67941005491E+00  0.89986889151E+00 -0.13646372623E+02  0.13692875814E+02  0.51100000000E-03 0.  1.
        -12    1    3    3    0    0 -0.11857859245E+00  0.18362088181E+02 -0.13304161535E+02  0.22675560795E+02  0.00000000000E+00 0.  1.
</event>
<event>
 7    1  0.5753610E-013  0.5052886E+02  0.7816164E-02  0.1300439E+00
        -11   -1    0    0    0    0  0.00000000000E+00  0.00000000000E+00  0.45593999997E+02  0.45594000000E+02  0.51100000000E-03 0.  1.
         11   -1    0    0    0    0 -0.00000000000E+00 -0.00000000000E+00 -0.45593999997E+02  0.45594000000E+02  0.51100000000E-03 0. -1.
    9900012    2    1    2    0    0 -0.25933712637E+02 -0.32750481133E+01 -0.31142927564E+02  0.50528864145E+02  0.30000013054E+02 0.  0.
        -12    1    1    2    0    0  0.25933712637E+02  0.32750481133E+01  0.31142927564E+02  0.40659135855E+02  0.00000000000E+00 0.  1.
         11    1    3    3    0    0  0.50822224345E+00 -0.33483742709E+01 -0.18943646966E+01  0.38805306301E+01  0.51100000000E-03 0. -1.
        -11    1    3    3    0    0  0.30324515066E+01 -0.51314497500E+01 -0.78445207897E+01  0.98521086757E+01  0.51100000000E-03 0.  1.
         12    1    3    3    0    0 -0.29474386387E+02  0.52047759076E+01 -0.21404042077E+02  0.36796224839E+02  0.00000000000E+00 0. -1.
</event>
<event>
 7    1  0.5753610E-013  0.5052880E+02  0.7816164E-02  0.1300439E+00
        -11   -1    0    0    0    0  0.00000000000E+00  0.00000000000E+00  0.45593999997E+02  0.45594000000E+02  0.51100000000E-03 0.  1.
         11   -1    0    0    0    0 -0.00000000000E+00 -0.00000000000E+00 -0.45593999997E+02  0.45594000000E+02  0.51100000000E-03 0. -1.
    9900012    2    1    2    0    0 -0.35791356130E+02 -0.95904913764E+01 -0.16738327071E+02  0.50528803111E+02  0.29999827537E+02 0.  0.
        -12    1    1    2    0    0  0.35791356130E+02  0.95904913764E+01  0.16738327071E+02  0.40659196889E+02  0.00000000000E+00 0.  1.
         11    1    3    3    0    0 -0.11089009929E+02  0.31175036388E+01 -0.33946275462E+01  0.12008682967E+02  0.51100000000E-03 0. -1.
        -11    1    3    3    0    0 -0.97263046933E+01 -0.21581887687E+01  0.61989962615E+01  0.11733982131E+02  0.51100000000E-03 0.  1.
        -12    1    3    3    0    0 -0.14976041508E+02 -0.10549806246E+02 -0.19542695786E+02  0.26786138014E+02  0.00000000000E+00 0.  1.
</event>
<event>
 7    1  0.5753610E-013  0.5052887E+02  0.7816164E-02  0.1300439E+00
        -11   -1    0    0    0    0  0.00000000000E+00  0.00000000000E+00  0.45593999997E+02  0.45594000000E+02  0.51100000000E-03 0.  1.
         11   -1    0    0    0    0 -0.00000000000E+00 -0.00000000000E+00 -0.45593999997E+02  0.45594000000E+02  0.51100000000E-03 0. -1.
    9900012    2    1    2    0    0 -0.38811881897E+02 -0.17658941443E+01 -0.11986844101E+02  0.50528868307E+02  0.30000025705E+02 0.  0.
        -12    1    1    2    0    0  0.38811881897E+02  0.17658941443E+01  0.11986844101E+02  0.40659131693E+02  0.00000000000E+00 0.  1.
         11    1    3    3    0    0 -0.11329669645E+02  0.28335338214E+01 -0.67717705762E+01  0.13499896487E+02  0.51100000000E-03 0. -1.
        -11    1    3    3    0    0 -0.29100781755E+02 -0.30447806824E+01 -0.10658948374E+02  0.31140638542E+02  0.51100000000E-03 0.  1.
        -12    1    3    3    0    0  0.16185695017E+01 -0.15546472833E+01  0.54438748492E+01  0.58883332770E+01  0.00000000000E+00 0.  1.
</event>
<event>
 7    1  0.5753610E-013  0.5052886E+02  0.7816164E-02  0.1300439E+00
        -11   -1    0    0    0    0  0.00000000000E+00  0.00000000000E+00  0.45593999997E+02  0.45594000000E+02  0.51100000000E-03 0.  1.
         11   -1    0    0    0    0 -0.00000000000E+00 -0.00000000000E+00 -0.45593999997E+02  0.45594000000E+02  0.51100000000E-03 0. -1.
    9900012    2    1    2    0    0  0.73229033974E+01  0.37991252894E+02 -0.12498207948E+02  0.50528863111E+02  0.30000009913E+02 0.  0.
        -12    1    1    2    0    0 -0.73229033974E+01 -0.37991252894E+02  0.12498207948E+02  0.40659136889E+02  0.00000000000E+00 0.  1.
         11    1    3    3    0    0  0.16035935587E+02  0.29512888628E+02 -0.81039720492E+01  0.34551934657E+02  0.51100000000E-03 0. -1.
        -11    1    3    3    0    0 -0.23179665495E+00  0.20971983841E+01  0.25375464156E+01  0.33001686053E+01  0.51100000000E-03 0.  1.
        -12    1    3    3    0    0 -0.84812355348E+01  0.63811658825E+01 -0.69317823139E+01  0.12676759849E+02  0.00000000000E+00 0.  1.
</event>
<event>
 7    1  0.5753610E-013  0.5052886E+02  0.7816164E-02  0.1300439E+00
        -11   -1    0    0    0    0  0.00000000000E+00  0.00000000000E+00  0.45593999997E+02  0.45594000000E+02  0.51100000000E-03 0. -1.
         11   -1    0    0    0    0 -0.00000000000E+00 -0.00000000000E+00 -0.45593999997E+02  0.45594000000E+02  0.51100000000E-03 0.  1.
    9900012    2    1    2    0    0  0.40254256173E+02  0.49199986507E+01 -0.29247585369E+01  0.50528859094E+02  0.29999997701E+02 0.  0.
        -12    1    1    2    0    0 -0.40254256173E+02 -0.49199986507E+01  0.29247585369E+01  0.40659140906E+02  0.00000000000E+00 0.  1.
         11    1    3    3    0    0  0.22691894278E+02  0.33078103857E+01  0.47158715751E+01  0.23411602261E+02  0.51100000000E-03 0. -1.
        -11    1    3    3    0    0  0.27686891965E+01  0.83997081639E+01 -0.61507178969E+01  0.10772746540E+02  0.51100000000E-03 0.  1.
        -12    1    3    3    0    0  0.14793672699E+02 -0.67875198989E+01 -0.14899122151E+01  0.16344510293E+02  0.00000000000E+00 0.  1.
</event>
<event>
 7    1  0.5753610E-013  0.5052887E+02  0.7816164E-02  0.1300439E+00
        -11   -1    0    0    0    0  0.00000000000E+00  0.00000000000E+00  0.45593999997E+02  0.45594000000E+02  0.51100000000E-03 0.  1.
         11   -1    0    0    0    0 -0.00000000000E+00 -0.00000000000E+00 -0.45593999997E+02  0.45594000000E+02  0.51100000000E-03 0. -1.
    9900012    2    1    2    0    0  0.36348117463E+02  0.17075794475E+02 -0.63558410313E+01  0.50528866767E+02  0.30000021026E+02 0.  0.
        -12    1    1    2    0    0 -0.36348117463E+02 -0.17075794475E+02  0.63558410313E+01  0.40659133233E+02  0.00000000000E+00 0.  1.
         11    1    3    3    0    0  0.28547553771E+02  0.10151521529E+02 -0.78374195428E+01  0.31296027879E+02  0.51100000000E-03 0. -1.
        -11    1    3    3    0    0  0.11896768833E+02  0.63888001015E+01  0.43688069430E+01  0.14192827406E+02  0.51100000000E-03 0.  1.
        -12    1    3    3    0    0 -0.40962051415E+01  0.53547284374E+00 -0.28872284315E+01  0.50400114824E+01  0.00000000000E+00 0.  1.
</event>
<event>
 7    1  0.5753610E-013  0.5052887E+02  0.7816164E-02  0.1300439E+00
        -11   -1    0    0    0    0  0.00000000000E+00  0.00000000000E+00  0.45593999997E+02  0.45594000000E+02  0.51100000000E-03 0. -1.
         11   -1    0    0    0    0 -0.00000000000E+00 -0.00000000000E+00 -0.45593999997E+02  0.45594000000E+02  0.51100000000E-03 0.  1.
    9900012    2    1    2    0    0  0.40617622392E+02  0.12341234723E+01  0.13604883392E+01  0.50528865258E+02  0.30000016437E+02 0.  0.
        -12    1    1    2    0    0 -0.40617622392E+02 -0.12341234723E+01 -0.13604883392E+01  0.40659134742E+02  0.00000000000E+00 0.  1.
         11    1    3    3    0    0  0.21481908290E+02  0.15464678247E+01 -0.16889457693E+01  0.21603622024E+02  0.51100000000E-03 0. -1.
        -11    1    3    3    0    0  0.17677105467E+02 -0.60847429439E+01  0.87867032937E+01  0.20656967575E+02  0.51100000000E-03 0.  1.
        -12    1    3    3    0    0  0.14586086352E+01  0.57723985915E+01 -0.57372691853E+01  0.82682756578E+01  0.00000000000E+00 0.  1.
</event>
<event>
 7    1  0.5753610E-013  0.5052885E+02  0.7816164E-02  0.1300439E+00
        -11   -1    0    0    0    0  0.00000000000E+00  0.00000000000E+00  0.45593999997E+02  0.45594000000E+02  0.51100000000E-03 0.  1.
         11   -1    0    0    0    0 -0.00000000000E+00 -0.00000000000E+00 -0.45593999997E+02  0.45594000000E+02  0.51100000000E-03 0. -1.
    9900012    2    1    2    0    0  0.31960549033E+02 -0.11632467633E+02 -0.22279480593E+02  0.50528852773E+02  0.29999978490E+02 0.  0.
        -12    1    1    2    0    0 -0.31960549033E+02  0.11632467633E+02  0.22279480593E+02  0.40659147227E+02  0.00000000000E+00 0.  1.
         11    1    3    3    0    0  0.21847393970E+02 -0.61198696742E+01 -0.37537451673E+01  0.22996783061E+02  0.51100000000E-03 0. -1.
        -11    1    3    3    0    0  0.97270845219E+01 -0.10175061449E+02 -0.84368684022E+01  0.16411239974E+02  0.51100000000E-03 0.  1.
        -12    1    3    3    0    0  0.38607054084E+00  0.46624634898E+01 -0.10088867024E+02  0.11120829739E+02  0.00000000000E+00 0.  1.
</event>
<event>
 7    1  0.5753610E-013  0.5052886E+02  0.7816164E-02  0.1300439E+00
        -11   -1    0    0    0    0  0.00000000000E+00  0.00000000000E+00  0.45593999997E+02  0.45594000000E+02  0.51100000000E-03 0.  1.
         11   -1    0    0    0    0 -0.00000000000E+00 -0.00000000000E+00 -0.45593999997E+02  0.45594000000E+02  0.51100000000E-03 0. -1.
    9900012    2    1    2    0    0  0.27887817425E+02 -0.15891041390E+01 -0.29545047331E+02  0.50528862841E+02  0.30000009091E+02 0.  0.
        -12    1    1    2    0    0 -0.27887817425E+02  0.15891041390E+01  0.29545047331E+02  0.40659137159E+02  0.00000000000E+00 0.  1.
         11    1    3    3    0    0  0.22633225246E+02  0.38064764202E+01 -0.19640709317E+02  0.30207774008E+02  0.51100000000E-03 0. -1.
        -11    1    3    3    0    0  0.44412531780E+01 -0.62759571045E+00  0.37429944054E+01  0.58419700056E+01  0.51100000000E-03 0.  1.
         12    1    3    3    0    0  0.81333900119E+00 -0.47679848487E+01 -0.13647332419E+02  0.14479118827E+02  0.00000000000E+00 0. -1.
</event>
<event>
 7    1  0.5753610E-013  0.5052886E+02  0.7816164E-02  0.1300439E+00
        -11   -1    0    0    0    0  0.00000000000E+00  0.00000000000E+00  0.45593999997E+02  0.45594000000E+02  0.51100000000E-03 0.  1.
         11   -1    0    0    0    0 -0.00000000000E+00 -0.00000000000E+00 -0.45593999997E+02  0.45594000000E+02  0.51100000000E-03 0. -1.
    9900012    2    1    2    0    0  0.33678908773E+02  0.12428927317E+02 -0.19089739177E+02  0.50528864836E+02  0.30000015156E+02 0.  0.
        -12    1    1    2    0    0 -0.33678908773E+02 -0.12428927317E+02  0.19089739177E+02  0.40659135164E+02  0.00000000000E+00 0.  1.
         11    1    3    3    0    0  0.56943177263E+01  0.45705832322E+01 -0.10358715535E+02  0.12673534363E+02  0.51100000000E-03 0. -1.
        -11    1    3    3    0    0 -0.36868868871E+01 -0.11293449168E+01 -0.15707614571E+01  0.41636338306E+01  0.51100000000E-03 0.  1.
         12    1    3    3    0    0  0.31671477934E+02  0.89876890019E+01 -0.71602621852E+01  0.33691696643E+02  0.00000000000E+00 0. -1.
</event>
<event>
 7    1  0.5753610E-013  0.5052886E+02  0.7816164E-02  0.1300439E+00
        -11   -1    0    0    0    0  0.00000000000E+00  0.00000000000E+00  0.45593999997E+02  0.45594000000E+02  0.51100000000E-03 0.  1.
         11   -1    0    0    0    0 -0.00000000000E+00 -0.00000000000E+00 -0.45593999997E+02  0.45594000000E+02  0.51100000000E-03 0. -1.
    9900012    2    1    2    0    0  0.61243612684E+01  0.60677018679E+01 -0.39734635213E+02  0.50528855365E+02  0.29999986367E+02 0.  0.
        -12    1    1    2    0    0 -0.61243612684E+01 -0.60677018679E+01  0.39734635213E+02  0.40659144635E+02  0.00000000000E+00 0.  1.
         11    1    3    3    0    0  0.42061701804E+01  0.85107942941E+01 -0.32348993497E+02  0.33713244691E+02  0.51100000000E-03 0. -1.
        -11    1    3    3    0    0  0.67122914223E+01  0.33415013509E+01 -0.27436246393E+01  0.79842322009E+01  0.51100000000E-03 0.  1.
        -12    1    3    3    0    0 -0.47941003343E+01 -0.57845937771E+01 -0.46420170773E+01  0.88313784727E+01  0.00000000000E+00 0.  1.
</event>
<event>
 7    1  0.5753610E-013  0.5052887E+02  0.7816164E-02  0.1300439E+00
        -11   -1    0    0    0    0  0.00000000000E+00  0.00000000000E+00  0.45593999997E+02  0.45594000000E+02  0.51100000000E-03 0. -1.
         11   -1    0    0    0    0 -0.00000000000E+00 -0.00000000000E+00 -0.45593999997E+02  0.45594000000E+02  0.51100000000E-03 0.  1.
    9900012    2    1    2    0    0  0.70016559691E+01  0.47627312052E+00  0.40048910418E+02  0.50528865134E+02  0.30000016062E+02 0.  0.
        -12    1    1    2    0    0 -0.70016559691E+01 -0.47627312052E+00 -0.40048910418E+02  0.40659134866E+02  0.00000000000E+00 0.  1.
         11    1    3    3    0    0  0.73765715027E+01  0.56186859135E+01  0.22039259570E+02  0.23910508175E+02  0.51100000000E-03 0. -1.
        -11    1    3    3    0    0  0.70783962027E+01  0.27633607839E+01  0.31868934808E+01  0.82399117679E+01  0.51100000000E-03 0.  1.
         12    1    3    3    0    0 -0.74533117363E+01 -0.79057735769E+01  0.14822757367E+02  0.18378445191E+02  0.00000000000E+00 0. -1.
</event>
<event>
 7    1  0.5753610E-013  0.5052885E+02  0.7816164E-02  0.1300439E+00
        -11   -1    0    0    0    0  0.00000000000E+00  0.00000000000E+00  0.45593999997E+02  0.45594000000E+02  0.51100000000E-03 0. -1.
         11   -1    0    0    0    0 -0.00000000000E+00 -0.00000000000E+00 -0.45593999997E+02  0.45594000000E+02  0.51100000000E-03 0.  1.
    9900012    2    1    2    0    0  0.39843218341E+02  0.65806334002E+01  0.47307172358E+01  0.50528850116E+02  0.29999970412E+02 0.  0.
        -12    1    1    2    0    0 -0.39843218341E+02 -0.65806334002E+01 -0.47307172358E+01  0.40659149884E+02  0.00000000000E+00 0.  1.
         11    1    3    3    0    0  0.15669716618E+02  0.87511139325E-01 -0.55476363150E+01  0.16622994497E+02  0.51100000000E-03 0. -1.
        -11    1    3    3    0    0  0.22597886943E+02  0.12224330894E+02  0.10941418412E+02  0.27925139162E+02  0.51100000000E-03 0.  1.
         12    1    3    3    0    0  0.15756147800E+01 -0.57312086329E+01 -0.66306486083E+00  0.59807164569E+01  0.00000000000E+00 0. -1.
</event>
<event>
 7    1  0.5753610E-013  0.5052886E+02  0.7816164E-02  0.1300439E+00
        -11   -1    0    0    0    0  0.00000000000E+00  0.00000000000E+00  0.45593999997E+02  0.45594000000E+02  0.51100000000E-03 0.  1.
         11   -1    0    0    0    0 -0.00000000000E+00 -0.00000000000E+00 -0.45593999997E+02  0.45594000000E+02  0.51100000000E-03 0. -1.
    9900012    2    1    2    0    0  0.73359163562E+01 -0.19894688414E+02 -0.34692238983E+02  0.50528859066E+02  0.29999997616E+02 0.  0.
        -12    1    1    2    0    0 -0.73359163562E+01  0.19894688414E+02  0.34692238983E+02  0.40659140934E+02  0.00000000000E+00 0.  1.
         11    1    3    3    0    0  0.11796212949E+02 -0.19795783822E+02 -0.18352660651E+02  0.29459189572E+02  0.51100000000E-03 0. -1.
        -11    1    3    3    0    0 -0.18023660181E+01  0.19476798998E+01  0.14105970112E+01  0.30052894111E+01  0.51100000000E-03 0.  1.
        -12    1    3    3    0    0 -0.26579305744E+01 -0.20465844919E+01 -0.17750175344E+02  0.18064380082E+02  0.00000000000E+00 0.  1.
</event>
<event>
 7    1  0.5753610E-013  0.5052882E+02  0.7816164E-02  0.1300439E+00
        -11   -1    0    0    0    0  0.00000000000E+00  0.00000000000E+00  0.45593999997E+02  0.45594000000E+02  0.51100000000E-03 0.  1.
         11   -1    0    0    0    0 -0.00000000000E+00 -0.00000000000E+00 -0.45593999997E+02  0.45594000000E+02  0.51100000000E-03 0. -1.
    9900012    2    1    2    0    0 -0.12196078945E+02  0.19616817353E+02 -0.33460497774E+02  0.50528821750E+02  0.29999884192E+02 0.  0.
        -12    1    1    2    0    0  0.12196078945E+02 -0.19616817353E+02  0.33460497774E+02  0.40659178250E+02  0.00000000000E+00 0.  1.
         11    1    3    3    0    0 -0.96129188942E+01  0.12972668611E+02 -0.12484502679E+02  0.20409829690E+02  0.51100000000E-03 0. -1.
        -11    1    3    3    0    0 -0.25805503325E+01  0.38563327198E+00  0.37750177071E+01  0.45889772269E+01  0.51100000000E-03 0.  1.
         12    1    3    3    0    0 -0.26097184319E-02  0.62585154695E+01 -0.24751012802E+02  0.25530014834E+02  0.00000000000E+00 0. -1.
</event>
<event>
 7    1  0.5753610E-013  0.5052886E+02  0.7816164E-02  0.1300439E+00
        -11   -1    0    0    0    0  0.00000000000E+00  0.00000000000E+00  0.45593999997E+02  0.45594000000E+02  0.51100000000E-03 0.  1.
         11   -1    0    0    0    0 -0.00000000000E+00 -0.00000000000E+00 -0.45593999997E+02  0.45594000000E+02  0.51100000000E-03 0. -1.
    9900012    2    1    2    0    0 -0.52412854552E+01  0.40317860980E+02 -0.40594978521E+00  0.50528858562E+02  0.29999996086E+02 0.  0.
        -12    1    1    2    0    0  0.52412854552E+01 -0.40317860980E+02  0.40594978521E+00  0.40659141438E+02  0.00000000000E+00 0.  1.
         11    1    3    3    0    0 -0.55124876353E+01  0.14279996031E+02 -0.17779736701E+01  0.15409964218E+02  0.51100000000E-03 0. -1.
        -11    1    3    3    0    0 -0.91793745169E+01  0.12740287579E+02  0.78627919969E+01  0.17561302411E+02  0.51100000000E-03 0.  1.
        -12    1    3    3    0    0  0.94505766969E+01  0.13297577370E+02 -0.64907681120E+01  0.17557591933E+02  0.00000000000E+00 0.  1.
</event>
<event>
 7    1  0.5753610E-013  0.5052887E+02  0.7816164E-02  0.1300439E+00
        -11   -1    0    0    0    0  0.00000000000E+00  0.00000000000E+00  0.45593999997E+02  0.45594000000E+02  0.51100000000E-03 0.  1.
         11   -1    0    0    0    0 -0.00000000000E+00 -0.00000000000E+00 -0.45593999997E+02  0.45594000000E+02  0.51100000000E-03 0. -1.
    9900012    2    1    2    0    0  0.29981742255E+02 -0.20188844735E+02 -0.18619080149E+02  0.50528874751E+02  0.30000045294E+02 0.  0.
        -12    1    1    2    0    0 -0.29981742255E+02  0.20188844735E+02  0.18619080149E+02  0.40659125249E+02  0.00000000000E+00 0.  1.
         11    1    3    3    0    0  0.19957965879E+02 -0.16210708661E+02 -0.13931068958E+02  0.29243497737E+02  0.51100000000E-03 0. -1.
        -11    1    3    3    0    0  0.13760275898E+01 -0.93142717895E+01  0.12782474161E+01  0.95017381365E+01  0.51100000000E-03 0.  1.
         12    1    3    3    0    0  0.86477487860E+01  0.53361357150E+01 -0.59662586071E+01  0.11783638878E+02  0.00000000000E+00 0. -1.
</event>
<event>
 7    1  0.5753610E-013  0.5052886E+02  0.7816164E-02  0.1300439E+00
        -11   -1    0    0    0    0  0.00000000000E+00  0.00000000000E+00  0.45593999997E+02  0.45594000000E+02  0.51100000000E-03 0.  1.
         11   -1    0    0    0    0 -0.00000000000E+00 -0.00000000000E+00 -0.45593999997E+02  0.45594000000E+02  0.51100000000E-03 0. -1.
    9900012    2    1    2    0    0 -0.26861759324E+02  0.14971800504E+01 -0.30485576026E+02  0.50528855792E+02  0.29999987666E+02 0.  0.
        -12    1    1    2    0    0  0.26861759324E+02 -0.14971800504E+01  0.30485576026E+02  0.40659144208E+02  0.00000000000E+00 0.  1.
         11    1    3    3    0    0 -0.23384230363E+02 -0.23806800280E+01 -0.10993927837E+02  0.25949110131E+02  0.51100000000E-03 0. -1.
        -11    1    3    3    0    0  0.22173019654E+01  0.27408061925E+00  0.13942085068E+01  0.26335082710E+01  0.51100000000E-03 0.  1.
         12    1    3    3    0    0 -0.56948309263E+01  0.36037794592E+01 -0.20885856696E+02  0.21946237390E+02  0.00000000000E+00 0. -1.
</event>
<event>
 7    1  0.5753610E-013  0.5052887E+02  0.7816164E-02  0.1300439E+00
        -11   -1    0    0    0    0  0.00000000000E+00  0.00000000000E+00  0.45593999997E+02  0.45594000000E+02  0.51100000000E-03 0.  1.
         11   -1    0    0    0    0 -0.00000000000E+00 -0.00000000000E+00 -0.45593999997E+02  0.45594000000E+02  0.51100000000E-03 0. -1.
    9900012    2    1    2    0    0  0.72171061417E+01 -0.18599112436E+02 -0.35428112668E+02  0.50528870992E+02  0.30000033867E+02 0.  0.
        -12    1    1    2    0    0 -0.72171061417E+01  0.18599112436E+02  0.35428112668E+02  0.40659129008E+02  0.00000000000E+00 0.  1.
         11    1    3    3    0    0  0.41961836206E+00 -0.33535156300E+01 -0.16999437922E+02  0.17332138835E+02  0.51100000000E-03 0. -1.
        -11    1    3    3    0    0  0.12732294415E+02 -0.16261200924E+02 -0.17568759439E+02  0.27114558544E+02  0.51100000000E-03 0.  1.
         12    1    3    3    0    0 -0.59348066353E+01  0.10156041182E+01 -0.85991530743E+00  0.60821736131E+01  0.00000000000E+00 0. -1.
</event>
<event>
 7    1  0.5753610E-013  0.5052887E+02  0.7816164E-02  0.1300439E+00
        -11   -1    0    0    0    0  0.00000000000E+00  0.00000000000E+00  0.45593999997E+02  0.45594000000E+02  0.51100000000E-03 0.  1.
         11   -1    0    0    0    0 -0.00000000000E+00 -0.00000000000E+00 -0.45593999997E+02  0.45594000000E+02  0.51100000000E-03 0. -1.
    9900012    2    1    2    0    0 -0.10118735923E+02 -0.34880716195E+02 -0.18278725727E+02  0.50528868268E+02  0.30000025588E+02 0.  0.
        -12    1    1    2    0    0  0.10118735923E+02  0.34880716195E+02  0.18278725727E+02  0.40659131732E+02  0.00000000000E+00 0.  1.
         11    1    3    3    0    0  0.49861967670E+01 -0.21293647162E+02 -0.12519458562E+02  0.25199571636E+02  0.51100000000E-03 0. -1.
        -11    1    3    3    0    0  0.13278353712E+01 -0.97424331108E+00  0.25286427655E+01  0.30176698459E+01  0.51100000000E-03 0.  1.
         12    1    3    3    0    0 -0.16432768061E+02 -0.12612825722E+02 -0.82879099305E+01  0.22311626787E+02  0.00000000000E+00 0. -1.
</event>
<event>
 7    1  0.5753610E-013  0.5052885E+02  0.7816164E-02  0.1300439E+00
        -11   -1    0    0    0    0  0.00000000000E+00  0.00000000000E+00  0.45593999997E+02  0.45594000000E+02  0.51100000000E-03 0.  1.
         11   -1    0    0    0    0 -0.00000000000E+00 -0.00000000000E+00 -0.45593999997E+02  0.45594000000E+02  0.51100000000E-03 0. -1.
    9900012    2    1    2    0    0  0.36223331942E+02 -0.13219696674E+02 -0.12894818953E+02  0.50528849579E+02  0.29999968779E+02 0.  0.
        -12    1    1    2    0    0 -0.36223331942E+02  0.13219696674E+02  0.12894818953E+02  0.40659150421E+02  0.00000000000E+00 0.  1.
         11    1    3    3    0    0  0.26092983119E+02 -0.61075634392E+01 -0.19145100958E+02  0.32934495445E+02  0.51100000000E-03 0. -1.
        -11    1    3    3    0    0  0.20136685139E+01 -0.56796295337E+01 -0.15757481483E+01  0.62286463226E+01  0.51100000000E-03 0.  1.
        -12    1    3    3    0    0  0.81166803089E+01 -0.14325037013E+01  0.78260301533E+01  0.11365707811E+02  0.00000000000E+00 0.  1.
</event>
<event>
 7    1  0.5753610E-013  0.5052883E+02  0.7816164E-02  0.1300439E+00
        -11   -1    0    0    0    0  0.00000000000E+00  0.00000000000E+00  0.45593999997E+02  0.45594000000E+02  0.51100000000E-03 0. -1.
         11   -1    0    0    0    0 -0.00000000000E+00 -0.00000000000E+00 -0.45593999997E+02  0.45594000000E+02  0.51100000000E-03 0.  1.
    9900012    2    1    2    0    0 -0.19229022818E+02 -0.26048961643E+02  0.24593993242E+02  0.50528828527E+02  0.29999904792E+02 0.  0.
        -12    1    1    2    0    0  0.19229022818E+02  0.26048961643E+02 -0.24593993242E+02  0.40659171473E+02  0.00000000000E+00 0.  1.
         11    1    3    3    0    0 -0.45218701434E+01 -0.19485125356E+02  0.43426270072E+01  0.20468899075E+02  0.51100000000E-03 0. -1.
        -11    1    3    3    0    0 -0.90540979539E+00  0.35032815653E+01  0.70084538190E-01  0.36190690415E+01  0.51100000000E-03 0.  1.
        -12    1    3    3    0    0 -0.13801742879E+02 -0.10067117852E+02  0.20181281697E+02  0.26440860411E+02  0.00000000000E+00 0.  1.
</event>
<event>
 7    1  0.5753610E-013  0.5052886E+02  0.7816164E-02  0.1300439E+00
        -11   -1    0    0    0    0  0.00000000000E+00  0.00000000000E+00  0.45593999997E+02  0.45594000000E+02  0.51100000000E-03 0. -1.
         11   -1    0    0    0    0 -0.00000000000E+00 -0.00000000000E+00 -0.45593999997E+02  0.45594000000E+02  0.51100000000E-03 0.  1.
    9900012    2    1    2    0    0 -0.69773201955E+01  0.37249733751E+02  0.14728882690E+02  0.50528860229E+02  0.30000001151E+02 0.  0.
        -12    1    1    2    0    0  0.69773201955E+01 -0.37249733751E+02 -0.14728882690E+02  0.40659139771E+02  0.00000000000E+00 0.  1.
         11    1    3    3    0    0 -0.10763008437E+01  0.26609700090E+00  0.10520434463E+02  0.10578694280E+02  0.51100000000E-03 0. -1.
        -11    1    3    3    0    0 -0.86837768859E+01  0.16139480768E+02 -0.75644182410E+00  0.18342928473E+02  0.51100000000E-03 0.  1.
        -12    1    3    3    0    0  0.27827575340E+01  0.20844155982E+02  0.49648900508E+01  0.21607237475E+02  0.00000000000E+00 0.  1.
</event>
<event>
 7    1  0.5753610E-013  0.5052887E+02  0.7816164E-02  0.1300439E+00
        -11   -1    0    0    0    0  0.00000000000E+00  0.00000000000E+00  0.45593999997E+02  0.45594000000E+02  0.51100000000E-03 0.  1.
         11   -1    0    0    0    0 -0.00000000000E+00 -0.00000000000E+00 -0.45593999997E+02  0.45594000000E+02  0.51100000000E-03 0. -1.
    9900012    2    1    2    0    0  0.29236504198E+02  0.25973770736E+02 -0.11124514476E+02  0.50528871059E+02  0.30000034070E+02 0.  0.
        -12    1    1    2    0    0 -0.29236504198E+02 -0.25973770736E+02  0.11124514476E+02  0.40659128941E+02  0.00000000000E+00 0.  1.
         11    1    3    3    0    0  0.14795706735E+02  0.77032786716E+01 -0.81887107423E+01  0.18582476260E+02  0.51100000000E-03 0. -1.
        -11    1    3    3    0    0  0.13313189317E+02  0.42415279236E+00  0.18178218688E+01  0.13443414446E+02  0.51100000000E-03 0.  1.
        -12    1    3    3    0    0  0.11276081462E+01  0.17846339272E+02 -0.47536256026E+01  0.18502980352E+02  0.00000000000E+00 0.  1.
</event>
<event>
 7    1  0.5753610E-013  0.5052887E+02  0.7816164E-02  0.1300439E+00
        -11   -1    0    0    0    0  0.00000000000E+00  0.00000000000E+00  0.45593999997E+02  0.45594000000E+02  0.51100000000E-03 0.  1.
         11   -1    0    0    0    0 -0.00000000000E+00 -0.00000000000E+00 -0.45593999997E+02  0.45594000000E+02  0.51100000000E-03 0. -1.
    9900012    2    1    2    0    0 -0.39190118218E+02  0.85497290435E+01  0.66484390122E+01  0.50528868504E+02  0.30000026306E+02 0.  0.
        -12    1    1    2    0    0  0.39190118218E+02 -0.85497290435E+01 -0.66484390122E+01  0.40659131496E+02  0.00000000000E+00 0.  1.
         11    1    3    3    0    0 -0.14178925525E+02  0.39924817699E+01 -0.86710671615E+01  0.17092958951E+02  0.51100000000E-03 0. -1.
        -11    1    3    3    0    0 -0.89502565934E+00 -0.94114452699E+00 -0.25903136188E+01  0.28976799093E+01  0.51100000000E-03 0.  1.
        -12    1    3    3    0    0 -0.24116167034E+02  0.54983918006E+01  0.17909819792E+02  0.30538229644E+02  0.00000000000E+00 0.  1.
</event>
<event>
 7    1  0.5753610E-013  0.5052884E+02  0.7816164E-02  0.1300439E+00
        -11   -1    0    0    0    0  0.00000000000E+00  0.00000000000E+00  0.45593999997E+02  0.45594000000E+02  0.51100000000E-03 0.  1.
         11   -1    0    0    0    0 -0.00000000000E+00 -0.00000000000E+00 -0.45593999997E+02  0.45594000000E+02  0.51100000000E-03 0. -1.
    9900012    2    1    2    0    0  0.59386372605E+01 -0.39789885686E+02 -0.58876909337E+01  0.50528839656E+02  0.29999938617E+02 0.  0.
        -12    1    1    2    0    0 -0.59386372605E+01  0.39789885686E+02  0.58876909337E+01  0.40659160344E+02  0.00000000000E+00 0.  1.
         11    1    3    3    0    0 -0.60854107382E+01 -0.18294150009E+02  0.44258460665E+01  0.19781209823E+02  0.51100000000E-03 0. -1.
        -11    1    3    3    0    0 -0.11636177393E+01 -0.84114606000E+00  0.26577071424E+01  0.30207516372E+01  0.51100000000E-03 0.  1.
        -12    1    3    3    0    0  0.13187665738E+02 -0.20654589616E+02 -0.12971244143E+02  0.27726878195E+02  0.00000000000E+00 0.  1.
</event>
<event>
 7    1  0.5753610E-013  0.5052886E+02  0.7816164E-02  0.1300439E+00
        -11   -1    0    0    0    0  0.00000000000E+00  0.00000000000E+00  0.45593999997E+02  0.45594000000E+02  0.51100000000E-03 0.  1.
         11   -1    0    0    0    0 -0.00000000000E+00 -0.00000000000E+00 -0.45593999997E+02  0.45594000000E+02  0.51100000000E-03 0. -1.
    9900012    2    1    2    0    0 -0.27517871573E+02 -0.12218445139E+01 -0.29907179742E+02  0.50528861297E+02  0.30000004400E+02 0.  0.
        -12    1    1    2    0    0  0.27517871573E+02  0.12218445139E+01  0.29907179742E+02  0.40659138703E+02  0.00000000000E+00 0.  1.
         11    1    3    3    0    0  0.13005732549E+01  0.28850037599E-02 -0.91158273484E+01  0.92081381192E+01  0.51100000000E-03 0. -1.
        -11    1    3    3    0    0 -0.30939390048E+00  0.12026735108E+01  0.35464696047E+01  0.37576049656E+01  0.51100000000E-03 0.  1.
         12    1    3    3    0    0 -0.28509050928E+02 -0.24274030284E+01 -0.24337821998E+02  0.37563118213E+02  0.00000000000E+00 0. -1.
</event>
<event>
 7    1  0.5753610E-013  0.5052885E+02  0.7816164E-02  0.1300439E+00
        -11   -1    0    0    0    0  0.00000000000E+00  0.00000000000E+00  0.45593999997E+02  0.45594000000E+02  0.51100000000E-03 0.  1.
         11   -1    0    0    0    0 -0.00000000000E+00 -0.00000000000E+00 -0.45593999997E+02  0.45594000000E+02  0.51100000000E-03 0. -1.
    9900012    2    1    2    0    0 -0.18310599619E+02 -0.34585960150E+02 -0.11031764763E+02  0.50528849349E+02  0.29999968080E+02 0.  0.
        -12    1    1    2    0    0  0.18310599619E+02  0.34585960150E+02  0.11031764763E+02  0.40659150651E+02  0.00000000000E+00 0.  1.
         11    1    3    3    0    0 -0.23530335229E+02 -0.21543223418E+02 -0.86283900073E+01  0.33048997952E+02  0.51100000000E-03 0. -1.
        -11    1    3    3    0    0 -0.38239103835E+00 -0.11259424221E+02 -0.27289613736E+01  0.11591724942E+02  0.51100000000E-03 0.  1.
        -12    1    3    3    0    0  0.56021266485E+01 -0.17833125106E+01  0.32558661812E+00  0.58881264544E+01  0.00000000000E+00 0.  1.
</event>
<event>
 7    1  0.5753610E-013  0.5052885E+02  0.7816164E-02  0.1300439E+00
        -11   -1    0    0    0    0  0.00000000000E+00  0.00000000000E+00  0.45593999997E+02  0.45594000000E+02  0.51100000000E-03 0.  1.
         11   -1    0    0    0    0 -0.00000000000E+00 -0.00000000000E+00 -0.45593999997E+02  0.45594000000E+02  0.51100000000E-03 0. -1.
    9900012    2    1    2    0    0 -0.16145899565E+02 -0.20655440130E+02 -0.31077795699E+02  0.50528847706E+02  0.29999963088E+02 0.  0.
        -12    1    1    2    0    0  0.16145899565E+02  0.20655440130E+02  0.31077795699E+02  0.40659152294E+02  0.00000000000E+00 0.  1.
         11    1    3    3    0    0 -0.83358872716E+01 -0.21569080174E+02 -0.22180945461E+02  0.32042262373E+02  0.51100000000E-03 0. -1.
        -11    1    3    3    0    0 -0.15394474384E+01 -0.30080399161E+01  0.29732398265E+01  0.45009285575E+01  0.51100000000E-03 0.  1.
        -12    1    3    3    0    0 -0.62705648549E+01  0.39216799602E+01 -0.11870090065E+02  0.13985656776E+02  0.00000000000E+00 0.  1.
</event>
<event>
 7    1  0.5753610E-013  0.5052887E+02  0.7816164E-02  0.1300439E+00
        -11   -1    0    0    0    0  0.00000000000E+00  0.00000000000E+00  0.45593999997E+02  0.45594000000E+02  0.51100000000E-03 0.  1.
         11   -1    0    0    0    0 -0.00000000000E+00 -0.00000000000E+00 -0.45593999997E+02  0.45594000000E+02  0.51100000000E-03 0. -1.
    9900012    2    1    2    0    0 -0.19126361240E+02 -0.16380535027E+02 -0.31922169578E+02  0.50528873932E+02  0.30000042804E+02 0.  0.
        -12    1    1    2    0    0  0.19126361240E+02  0.16380535027E+02  0.31922169578E+02  0.40659126068E+02  0.00000000000E+00 0.  1.
         11    1    3    3    0    0  0.58041996725E+00 -0.87462352981E+01 -0.17105488768E+01  0.89308172610E+01  0.51100000000E-03 0. -1.
        -11    1    3    3    0    0 -0.17334000410E+02 -0.67056281772E+01 -0.97681822038E+01  0.20996437871E+02  0.51100000000E-03 0.  1.
         12    1    3    3    0    0 -0.23727807969E+01 -0.92867155186E+00 -0.20443438497E+02  0.20601618800E+02  0.00000000000E+00 0. -1.
</event>
<event>
 7    1  0.5753610E-013  0.5052882E+02  0.7816164E-02  0.1300439E+00
        -11   -1    0    0    0    0  0.00000000000E+00  0.00000000000E+00  0.45593999997E+02  0.45594000000E+02  0.51100000000E-03 0. -1.
         11   -1    0    0    0    0 -0.00000000000E+00 -0.00000000000E+00 -0.45593999997E+02  0.45594000000E+02  0.51100000000E-03 0.  1.
    9900012    2    1    2    0    0  0.28669497487E+01 -0.31894003791E+02  0.25054383310E+02  0.50528818974E+02  0.29999875752E+02 0.  0.
        -12    1    1    2    0    0 -0.28669497487E+01  0.31894003791E+02 -0.25054383310E+02  0.40659181026E+02  0.00000000000E+00 0.  1.
         11    1    3    3    0    0  0.66285310116E+01 -0.74981330319E+01  0.24700680466E+00  0.10011015681E+02  0.51100000000E-03 0.  1.
        -11    1    3    3    0    0 -0.66249742077E+01 -0.26287041730E+02  0.17023048676E+02  0.32010670607E+02  0.51100000000E-03 0. -1.
         12    1    3    3    0    0  0.28633929448E+01  0.18911709710E+01  0.77843278288E+01  0.85071326864E+01  0.00000000000E+00 0. -1.
</event>
<event>
 7    1  0.6983890E-013  0.5052887E+02  0.7816164E-02  0.1300439E+00
        -11   -1    0    0    0    0  0.00000000000E+00  0.00000000000E+00  0.45593999997E+02  0.45594000000E+02  0.51100000000E-03 0.  1.
         11   -1    0    0    0    0 -0.00000000000E+00 -0.00000000000E+00 -0.45593999997E+02  0.45594000000E+02  0.51100000000E-03 0. -1.
    9900012    2    1    2    0    0  0.34661993545E+02 -0.79240487148E+01  0.19721070078E+02  0.50528868804E+02  0.30000027217E+02 0.  0.
        -12    1    1    2    0    0 -0.34661993545E+02  0.79240487148E+01 -0.19721070078E+02  0.40659131196E+02  0.00000000000E+00 0.  1.
         11    1    3    3    0    0  0.20681653287E+02 -0.29828788075E+00  0.24520681174E+01  0.20828643658E+02  0.51100000000E-03 0. -1.
        -11    1    3    3    0    0  0.10333601643E+01  0.50758825554E+01  0.87789466015E+00  0.52538667894E+01  0.51100000000E-03 0.  1.
        -12    1    3    3    0    0  0.12946980094E+02 -0.12701643389E+02  0.16391107301E+02  0.24446358357E+02  0.00000000000E+00 0.  1.
</event>
<event>
 7    1  0.5753610E-013  0.5052886E+02  0.7816164E-02  0.1300439E+00
        -11   -1    0    0    0    0  0.00000000000E+00  0.00000000000E+00  0.45593999997E+02  0.45594000000E+02  0.51100000000E-03 0.  1.
         11   -1    0    0    0    0 -0.00000000000E+00 -0.00000000000E+00 -0.45593999997E+02  0.45594000000E+02  0.51100000000E-03 0. -1.
    9900012    2    1    2    0    0  0.16866598578E+02 -0.63784913483E+01 -0.36441714834E+02  0.50528857368E+02  0.29999992457E+02 0.  0.
        -12    1    1    2    0    0 -0.16866598578E+02  0.63784913483E+01  0.36441714834E+02  0.40659142632E+02  0.00000000000E+00 0.  1.
         11    1    3    3    0    0  0.99125368569E+01 -0.58392286328E+01 -0.11107107048E+02  0.15991335317E+02  0.51100000000E-03 0. -1.
        -11    1    3    3    0    0  0.50655948133E+01  0.10768577973E+02 -0.11244346736E+02  0.16372472512E+02  0.51100000000E-03 0.  1.
         12    1    3    3    0    0  0.18884669081E+01 -0.11307840689E+02 -0.14090261050E+02  0.18165049539E+02  0.00000000000E+00 0. -1.
</event>
<event>
 7    1  0.5753610E-013  0.5052886E+02  0.7816164E-02  0.1300439E+00
        -11   -1    0    0    0    0  0.00000000000E+00  0.00000000000E+00  0.45593999997E+02  0.45594000000E+02  0.51100000000E-03 0.  1.
         11   -1    0    0    0    0 -0.00000000000E+00 -0.00000000000E+00 -0.45593999997E+02  0.45594000000E+02  0.51100000000E-03 0. -1.
    9900012    2    1    2    0    0  0.17194537221E+02 -0.19619560520E+02 -0.31186317332E+02  0.50528860143E+02  0.30000000889E+02 0.  0.
        -12    1    1    2    0    0 -0.17194537221E+02  0.19619560520E+02  0.31186317332E+02  0.40659139857E+02  0.00000000000E+00 0.  1.
         11    1    3    3    0    0  0.13607386262E+02 -0.30965561276E+01 -0.12648657656E+02  0.18834493927E+02  0.51100000000E-03 0. -1.
        -11    1    3    3    0    0  0.10854073433E+01 -0.19370232725E+01  0.40918242502E+01  0.46554477996E+01  0.51100000000E-03 0.  1.
         12    1    3    3    0    0  0.25017436158E+01 -0.14585981120E+02 -0.22629483926E+02  0.27038918416E+02  0.00000000000E+00 0. -1.
</event>
<event>
 7    1  0.5753610E-013  0.5052886E+02  0.7816164E-02  0.1300439E+00
        -11   -1    0    0    0    0  0.00000000000E+00  0.00000000000E+00  0.45593999997E+02  0.45594000000E+02  0.51100000000E-03 0.  1.
         11   -1    0    0    0    0 -0.00000000000E+00 -0.00000000000E+00 -0.45593999997E+02  0.45594000000E+02  0.51100000000E-03 0. -1.
    9900012    2    1    2    0    0 -0.30662010979E+02  0.10934561668E+02 -0.24360660964E+02  0.50528863773E+02  0.30000011924E+02 0.  0.
        -12    1    1    2    0    0  0.30662010979E+02 -0.10934561668E+02  0.24360660964E+02  0.40659136227E+02  0.00000000000E+00 0.  1.
         11    1    3    3    0    0 -0.73871427840E+00  0.64384997591E+01 -0.80637362177E+01  0.10345231751E+02  0.51100000000E-03 0. -1.
        -11    1    3    3    0    0 -0.96868890103E+01  0.64106235241E+01  0.31677712228E+01  0.12040211271E+02  0.51100000000E-03 0.  1.
         12    1    3    3    0    0 -0.20236407691E+02 -0.19145616154E+01 -0.19464695969E+02  0.28143420751E+02  0.00000000000E+00 0. -1.
</event>
<event>
 7    1  0.6509361E-013  0.5052886E+02  0.7816164E-02  0.1300439E+00
        -11   -1    0    0    0    0  0.00000000000E+00  0.00000000000E+00  0.45593999997E+02  0.45594000000E+02  0.51100000000E-03 0. -1.
         11   -1    0    0    0    0 -0.00000000000E+00 -0.00000000000E+00 -0.45593999997E+02  0.45594000000E+02  0.51100000000E-03 0.  1.
    9900012    2    1    2    0    0 -0.13967933574E+02 -0.73478834689E+01  0.37470939700E+02  0.50528857341E+02  0.29999992373E+02 0.  0.
        -12    1    1    2    0    0  0.13967933574E+02  0.73478834689E+01 -0.37470939700E+02  0.40659142659E+02  0.00000000000E+00 0.  1.
         11    1    3    3    0    0 -0.11139167293E+02 -0.10324887037E+02  0.23184200834E+02  0.27716267947E+02  0.51100000000E-03 0. -1.
        -11    1    3    3    0    0  0.17580447996E+01  0.18426587452E+01  0.17116570278E+02  0.17305001910E+02  0.51100000000E-03 0.  1.
        -12    1    3    3    0    0 -0.45868110806E+01  0.11343448228E+01 -0.28298314127E+01  0.55075874837E+01  0.00000000000E+00 0.  1.
</event>
<event>
 7    1  0.5753610E-013  0.5052887E+02  0.7816164E-02  0.1300439E+00
        -11   -1    0    0    0    0  0.00000000000E+00  0.00000000000E+00  0.45593999997E+02  0.45594000000E+02  0.51100000000E-03 0.  1.
         11   -1    0    0    0    0 -0.00000000000E+00 -0.00000000000E+00 -0.45593999997E+02  0.45594000000E+02  0.51100000000E-03 0. -1.
    9900012    2    1    2    0    0  0.13302852469E+02 -0.18077493799E+02 -0.33902847158E+02  0.50528871735E+02  0.30000036125E+02 0.  0.
        -12    1    1    2    0    0 -0.13302852469E+02  0.18077493799E+02  0.33902847158E+02  0.40659128265E+02  0.00000000000E+00 0.  1.
         11    1    3    3    0    0  0.33439567179E+01 -0.42259879272E+00 -0.88797649618E+01  0.94979398982E+01  0.51100000000E-03 0. -1.
        -11    1    3    3    0    0  0.16593897761E+02 -0.19338507794E+02 -0.17825258910E+02  0.31097832433E+02  0.51100000000E-03 0.  1.
        -12    1    3    3    0    0 -0.66350020102E+01  0.16836127876E+01 -0.71978232868E+01  0.99330994036E+01  0.00000000000E+00 0.  1.
</event>
<event>
 7    1  0.5753610E-013  0.5052886E+02  0.7816164E-02  0.1300439E+00
        -11   -1    0    0    0    0  0.00000000000E+00  0.00000000000E+00  0.45593999997E+02  0.45594000000E+02  0.51100000000E-03 0.  1.
         11   -1    0    0    0    0 -0.00000000000E+00 -0.00000000000E+00 -0.45593999997E+02  0.45594000000E+02  0.51100000000E-03 0. -1.
    9900012    2    1    2    0    0 -0.24307029361E+02 -0.32415974526E+02 -0.33968622235E+01  0.50528858915E+02  0.29999997157E+02 0.  0.
        -12    1    1    2    0    0  0.24307029361E+02  0.32415974526E+02  0.33968622235E+01  0.40659141085E+02  0.00000000000E+00 0.  1.
         11    1    3    3    0    0 -0.23707212501E+02 -0.19769822609E+02 -0.10613124331E+02  0.32642245922E+02  0.51100000000E-03 0. -1.
        -11    1    3    3    0    0 -0.36559131742E+01 -0.81924696733E+00  0.34778699246E+01  0.51119904347E+01  0.51100000000E-03 0.  1.
        -12    1    3    3    0    0  0.30560963139E+01 -0.11826904950E+02  0.37383921827E+01  0.12774622558E+02  0.00000000000E+00 0.  1.
</event>
<event>
 7    1  0.5753610E-013  0.5052885E+02  0.7816164E-02  0.1300439E+00
        -11   -1    0    0    0    0  0.00000000000E+00  0.00000000000E+00  0.45593999997E+02  0.45594000000E+02  0.51100000000E-03 0.  1.
         11   -1    0    0    0    0 -0.00000000000E+00 -0.00000000000E+00 -0.45593999997E+02  0.45594000000E+02  0.51100000000E-03 0. -1.
    9900012    2    1    2    0    0 -0.37229222575E+02  0.92718045220E+01 -0.13460493971E+02  0.50528852560E+02  0.29999977842E+02 0.  0.
        -12    1    1    2    0    0  0.37229222575E+02 -0.92718045220E+01  0.13460493971E+02  0.40659147440E+02  0.00000000000E+00 0.  1.
         11    1    3    3    0    0 -0.11291451243E+02  0.63972400435E+01 -0.41446466305E+01  0.13623496149E+02  0.51100000000E-03 0. -1.
        -11    1    3    3    0    0  0.11873834341E+01  0.74566220525E+01  0.80470917486E+00  0.75933292415E+01  0.51100000000E-03 0.  1.
        -12    1    3    3    0    0 -0.27125154765E+02 -0.45820575739E+01 -0.10120556515E+02  0.29312027170E+02  0.00000000000E+00 0.  1.
</event>
<event>
 7    1  0.5753610E-013  0.5052889E+02  0.7816164E-02  0.1300439E+00
        -11   -1    0    0    0    0  0.00000000000E+00  0.00000000000E+00  0.45593999997E+02  0.45594000000E+02  0.51100000000E-03 0.  1.
         11   -1    0    0    0    0 -0.00000000000E+00 -0.00000000000E+00 -0.45593999997E+02  0.45594000000E+02  0.51100000000E-03 0. -1.
    9900012    2    1    2    0    0  0.29252006307E+02  0.18421140892E+01 -0.28179598187E+02  0.50528892640E+02  0.30000099670E+02 0.  0.
        -12    1    1    2    0    0 -0.29252006307E+02 -0.18421140892E+01  0.28179598187E+02  0.40659107360E+02  0.00000000000E+00 0.  1.
         11    1    3    3    0    0  0.36646623676E+01 -0.22377036361E+00 -0.10874846446E+02  0.11477896538E+02  0.51100000000E-03 0. -1.
        -11    1    3    3    0    0  0.22410221254E+02 -0.79908691311E+01 -0.15379008649E+02  0.28329947289E+02  0.51100000000E-03 0.  1.
        -12    1    3    3    0    0  0.31771226853E+01  0.10056753584E+02 -0.19257430920E+01  0.10721048813E+02  0.00000000000E+00 0.  1.
</event>
<event>
 7    1  0.5753610E-013  0.5052886E+02  0.7816164E-02  0.1300439E+00
        -11   -1    0    0    0    0  0.00000000000E+00  0.00000000000E+00  0.45593999997E+02  0.45594000000E+02  0.51100000000E-03 0.  1.
         11   -1    0    0    0    0 -0.00000000000E+00 -0.00000000000E+00 -0.45593999997E+02  0.45594000000E+02  0.51100000000E-03 0. -1.
    9900012    2    1    2    0    0 -0.80405789010E+01 -0.31151924184E+02 -0.24861064734E+02  0.50528857988E+02  0.29999994342E+02 0.  0.
        -12    1    1    2    0    0  0.80405789010E+01  0.31151924184E+02  0.24861064734E+02  0.40659142012E+02  0.00000000000E+00 0.  1.
         11    1    3    3    0    0 -0.47577928919E+01 -0.12685257715E+02 -0.13149202332E+02  0.18879986195E+02  0.51100000000E-03 0. -1.
        -11    1    3    3    0    0  0.55018148569E+01 -0.17100133142E+02 -0.13636074891E+02  0.22552761668E+02  0.51100000000E-03 0.  1.
         12    1    3    3    0    0 -0.87846008660E+01 -0.13665333273E+01  0.19242124886E+01  0.90961101252E+01  0.00000000000E+00 0. -1.
</event>
<event>
 7    1  0.5753610E-013  0.5052888E+02  0.7816164E-02  0.1300439E+00
        -11   -1    0    0    0    0  0.00000000000E+00  0.00000000000E+00  0.45593999997E+02  0.45594000000E+02  0.51100000000E-03 0. -1.
         11   -1    0    0    0    0 -0.00000000000E+00 -0.00000000000E+00 -0.45593999997E+02  0.45594000000E+02  0.51100000000E-03 0.  1.
    9900012    2    1    2    0    0 -0.96243218569E+01  0.11427062669E+02  0.37814794521E+02  0.50528880271E+02  0.30000062072E+02 0.  0.
        -12    1    1    2    0    0  0.96243218569E+01 -0.11427062669E+02 -0.37814794521E+02  0.40659119729E+02  0.00000000000E+00 0.  1.
         11    1    3    3    0    0 -0.44620477780E+01 -0.10368867968E+01  0.32913243504E+01  0.56407287510E+01  0.51100000000E-03 0.  1.
        -11    1    3    3    0    0  0.78939593590E+01 -0.22324497198E+01  0.56620890200E+01  0.99678321838E+01  0.51100000000E-03 0. -1.
        -12    1    3    3    0    0 -0.13056233438E+02  0.14696399186E+02  0.28861381151E+02  0.34920319336E+02  0.00000000000E+00 0.  1.
</event>
<event>
 7    1  0.5753610E-013  0.5052892E+02  0.7816164E-02  0.1300439E+00
        -11   -1    0    0    0    0  0.00000000000E+00  0.00000000000E+00  0.45593999997E+02  0.45594000000E+02  0.51100000000E-03 0.  1.
         11   -1    0    0    0    0 -0.00000000000E+00 -0.00000000000E+00 -0.45593999997E+02  0.45594000000E+02  0.51100000000E-03 0. -1.
    9900012    2    1    2    0    0  0.28658423497E+02  0.42915772548E+01 -0.28520829569E+02  0.50528922392E+02  0.30000190101E+02 0.  0.
        -12    1    1    2    0    0 -0.28658423497E+02 -0.42915772548E+01  0.28520829569E+02  0.40659077608E+02  0.00000000000E+00 0.  1.
         11    1    3    3    0    0  0.10088859434E+02  0.60510778314E+01 -0.75696612658E+01  0.13989295892E+02  0.51100000000E-03 0. -1.
        -11    1    3    3    0    0  0.10471063345E+02 -0.18936450874E+01  0.31633766444E+01  0.11101171621E+02  0.51100000000E-03 0.  1.
         12    1    3    3    0    0  0.80985007173E+01  0.13414451071E+00 -0.24114544947E+02  0.25438454879E+02  0.00000000000E+00 0. -1.
</event>
<event>
 7    1  0.5753610E-013  0.5052889E+02  0.7816164E-02  0.1300439E+00
        -11   -1    0    0    0    0  0.00000000000E+00  0.00000000000E+00  0.45593999997E+02  0.45594000000E+02  0.51100000000E-03 0.  1.
         11   -1    0    0    0    0 -0.00000000000E+00 -0.00000000000E+00 -0.45593999997E+02  0.45594000000E+02  0.51100000000E-03 0. -1.
    9900012    2    1    2    0    0 -0.21180688438E+02  0.32732039281E+02  0.11539301681E+02  0.50528887350E+02  0.30000083589E+02 0.  0.
        -12    1    1    2    0    0  0.21180688438E+02 -0.32732039281E+02 -0.11539301681E+02  0.40659112650E+02  0.00000000000E+00 0.  1.
         11    1    3    3    0    0 -0.15920223259E+02  0.11088286623E+02 -0.44192215034E+01  0.19898068444E+02  0.51100000000E-03 0. -1.
        -11    1    3    3    0    0 -0.66809013885E+00 -0.19745847063E+01  0.12786839059E+01  0.24454778650E+01  0.51100000000E-03 0.  1.
         12    1    3    3    0    0 -0.45923750400E+01  0.23618337364E+02  0.14679839279E+02  0.28185341041E+02  0.00000000000E+00 0. -1.
</event>
<event>
 7    1  0.5753610E-013  0.5052889E+02  0.7816164E-02  0.1300439E+00
        -11   -1    0    0    0    0  0.00000000000E+00  0.00000000000E+00  0.45593999997E+02  0.45594000000E+02  0.51100000000E-03 0.  1.
         11   -1    0    0    0    0 -0.00000000000E+00 -0.00000000000E+00 -0.45593999997E+02  0.45594000000E+02  0.51100000000E-03 0. -1.
    9900012    2    1    2    0    0 -0.29076236961E+01  0.39597941037E+02  0.87585484123E+01  0.50528888104E+02  0.30000085880E+02 0.  0.
        -12    1    1    2    0    0  0.29076236961E+01 -0.39597941037E+02 -0.87585484123E+01  0.40659111896E+02  0.00000000000E+00 0.  1.
         11    1    3    3    0    0 -0.53309106470E+01  0.98300712704E+01 -0.72241545038E+01  0.13313050667E+02  0.51100000000E-03 0. -1.
        -11    1    3    3    0    0 -0.31095099813E+01  0.66781695330E+01  0.10535780614E+02  0.12855725341E+02  0.51100000000E-03 0.  1.
         12    1    3    3    0    0  0.55327969322E+01  0.23089700233E+02  0.54469223025E+01  0.24360112096E+02  0.00000000000E+00 0. -1.
</event>
<event>
 7    1  0.5753610E-013  0.5052880E+02  0.7816164E-02  0.1300439E+00
        -11   -1    0    0    0    0  0.00000000000E+00  0.00000000000E+00  0.45593999997E+02  0.45594000000E+02  0.51100000000E-03 0. -1.
         11   -1    0    0    0    0 -0.00000000000E+00 -0.00000000000E+00 -0.45593999997E+02  0.45594000000E+02  0.51100000000E-03 0.  1.
    9900012    2    1    2    0    0  0.69593515990E+01  0.30304872333E+02  0.26198339061E+02  0.50528796474E+02  0.29999807363E+02 0.  0.
        -12    1    1    2    0    0 -0.69593515990E+01 -0.30304872333E+02 -0.26198339061E+02  0.40659203526E+02  0.00000000000E+00 0.  1.
         11    1    3    3    0    0  0.57255095632E+01  0.59591026178E+01 -0.81151159717E-01  0.82643178508E+01  0.51100000000E-03 0. -1.
        -11    1    3    3    0    0 -0.83528647596E+01  0.19684747941E+02  0.12247356222E+02  0.24642592921E+02  0.51100000000E-03 0.  1.
         12    1    3    3    0    0  0.95867067954E+01  0.46610217746E+01  0.14032133998E+02  0.17621885702E+02  0.00000000000E+00 0. -1.
</event>
<event>
 7    1  0.5753610E-013  0.5052885E+02  0.7816164E-02  0.1300439E+00
        -11   -1    0    0    0    0  0.00000000000E+00  0.00000000000E+00  0.45593999997E+02  0.45594000000E+02  0.51100000000E-03 0. -1.
         11   -1    0    0    0    0 -0.00000000000E+00 -0.00000000000E+00 -0.45593999997E+02  0.45594000000E+02  0.51100000000E-03 0.  1.
    9900012    2    1    2    0    0  0.11855685949E+02  0.28256307847E+02  0.26724330669E+02  0.50528855000E+02  0.29999985258E+02 0.  0.
        -12    1    1    2    0    0 -0.11855685949E+02 -0.28256307847E+02 -0.26724330669E+02  0.40659145000E+02  0.00000000000E+00 0.  1.
         11    1    3    3    0    0  0.12988427149E+02  0.18812992264E+02  0.80546581645E+01  0.24238511426E+02  0.51100000000E-03 0.  1.
        -11    1    3    3    0    0  0.41510997439E+01 -0.15587688181E+01  0.58512033735E+00  0.44725557998E+01  0.51100000000E-03 0. -1.
        -12    1    3    3    0    0 -0.52838409442E+01  0.11002084401E+02  0.18084552167E+02  0.21817787774E+02  0.00000000000E+00 0.  1.
</event>
<event>
 7    1  0.5753610E-013  0.5052887E+02  0.7816164E-02  0.1300439E+00
        -11   -1    0    0    0    0  0.00000000000E+00  0.00000000000E+00  0.45593999997E+02  0.45594000000E+02  0.51100000000E-03 0.  1.
         11   -1    0    0    0    0 -0.00000000000E+00 -0.00000000000E+00 -0.45593999997E+02  0.45594000000E+02  0.51100000000E-03 0. -1.
    9900012    2    1    2    0    0  0.10411990820E+02 -0.12575067737E+02 -0.37237386661E+02  0.50528870069E+02  0.30000031061E+02 0.  0.
        -12    1    1    2    0    0 -0.10411990820E+02  0.12575067737E+02  0.37237386661E+02  0.40659129931E+02  0.00000000000E+00 0.  1.
         11    1    3    3    0    0  0.80865638021E+00 -0.49229394819E+01 -0.24429599524E+01  0.55549358119E+01  0.51100000000E-03 0.  1.
        -11    1    3    3    0    0  0.11052837359E+02  0.67913825913E+01 -0.22404675090E+02  0.25889332887E+02  0.51100000000E-03 0. -1.
         12    1    3    3    0    0 -0.14495029194E+01 -0.14443510846E+02 -0.12389751618E+02  0.19084601370E+02  0.00000000000E+00 0. -1.
</event>
<event>
 7    1  0.5753610E-013  0.5052886E+02  0.7816164E-02  0.1300439E+00
        -11   -1    0    0    0    0  0.00000000000E+00  0.00000000000E+00  0.45593999997E+02  0.45594000000E+02  0.51100000000E-03 0.  1.
         11   -1    0    0    0    0 -0.00000000000E+00 -0.00000000000E+00 -0.45593999997E+02  0.45594000000E+02  0.51100000000E-03 0. -1.
    9900012    2    1    2    0    0 -0.30844679074E+02 -0.12134485180E+02 -0.23548362073E+02  0.50528864323E+02  0.30000013595E+02 0.  0.
        -12    1    1    2    0    0  0.30844679074E+02  0.12134485180E+02  0.23548362073E+02  0.40659135677E+02  0.00000000000E+00 0.  1.
         11    1    3    3    0    0 -0.18398282524E+02 -0.92149302900E+01 -0.18578118881E+02  0.27722882995E+02  0.51100000000E-03 0. -1.
        -11    1    3    3    0    0 -0.21527952335E+01 -0.96966150803E+01 -0.23167970294E+01  0.10199334295E+02  0.51100000000E-03 0.  1.
         12    1    3    3    0    0 -0.10293601316E+02  0.67770601905E+01 -0.26534461618E+01  0.12606647033E+02  0.00000000000E+00 0. -1.
</event>
<event>
 7    1  0.5753610E-013  0.5052886E+02  0.7816164E-02  0.1300439E+00
        -11   -1    0    0    0    0  0.00000000000E+00  0.00000000000E+00  0.45593999997E+02  0.45594000000E+02  0.51100000000E-03 0.  1.
         11   -1    0    0    0    0 -0.00000000000E+00 -0.00000000000E+00 -0.45593999997E+02  0.45594000000E+02  0.51100000000E-03 0. -1.
    9900012    2    1    2    0    0  0.52410113652E+01  0.29734016888E+02  0.27232067345E+02  0.50528862622E+02  0.30000008427E+02 0.  0.
        -12    1    1    2    0    0 -0.52410113652E+01 -0.29734016888E+02 -0.27232067345E+02  0.40659137378E+02  0.00000000000E+00 0.  1.
         11    1    3    3    0    0 -0.97729551311E+00  0.11982944514E+00 -0.24979911588E+01  0.26850373752E+01  0.51100000000E-03 0. -1.
        -11    1    3    3    0    0 -0.40008506754E+01  0.92423094162E+01  0.21268515557E+02  0.23532463614E+02  0.51100000000E-03 0.  1.
        -12    1    3    3    0    0  0.10219157554E+02  0.20371878026E+02  0.84615429464E+01  0.24311361633E+02  0.00000000000E+00 0.  1.
</event>
<event>
 7    1  0.5753610E-013  0.5052887E+02  0.7816164E-02  0.1300439E+00
        -11   -1    0    0    0    0  0.00000000000E+00  0.00000000000E+00  0.45593999997E+02  0.45594000000E+02  0.51100000000E-03 0.  1.
         11   -1    0    0    0    0 -0.00000000000E+00 -0.00000000000E+00 -0.45593999997E+02  0.45594000000E+02  0.51100000000E-03 0. -1.
    9900012    2    1    2    0    0 -0.16889417820E+01  0.26499763966E+02 -0.30790818594E+02  0.50528874035E+02  0.30000043117E+02 0.  0.
        -12    1    1    2    0    0  0.16889417820E+01 -0.26499763966E+02  0.30790818594E+02  0.40659125965E+02  0.00000000000E+00 0.  1.
         11    1    3    3    0    0 -0.14892701112E+01  0.24673502597E+02 -0.13749855584E+02  0.28285299799E+02  0.51100000000E-03 0. -1.
        -11    1    3    3    0    0  0.51981782893E+01  0.52184904445E+01 -0.60257423085E+01  0.95164736471E+01  0.51100000000E-03 0.  1.
        -12    1    3    3    0    0 -0.53978499600E+01 -0.33922290765E+01 -0.11015220701E+02  0.12727100589E+02  0.00000000000E+00 0.  1.
</event>
<event>
 7    1  0.5753610E-013  0.5052886E+02  0.7816164E-02  0.1300439E+00
        -11   -1    0    0    0    0  0.00000000000E+00  0.00000000000E+00  0.45593999997E+02  0.45594000000E+02  0.51100000000E-03 0.  1.
         11   -1    0    0    0    0 -0.00000000000E+00 -0.00000000000E+00 -0.45593999997E+02  0.45594000000E+02  0.51100000000E-03 0. -1.
    9900012    2    1    2    0    0 -0.23204953736E+02 -0.51431461865E+01 -0.32988539627E+02  0.50528861085E+02  0.30000003753E+02 0.  0.
        -12    1    1    2    0    0  0.23204953736E+02  0.51431461865E+01  0.32988539627E+02  0.40659138915E+02  0.00000000000E+00 0.  1.
         11    1    3    3    0    0  0.19500964280E+01 -0.90339610669E+01 -0.61705999009E+01  0.11112678887E+02  0.51100000000E-03 0. -1.
        -11    1    3    3    0    0 -0.10886257929E+02 -0.46601458412E+01 -0.79529384163E+01  0.14264529459E+02  0.51100000000E-03 0.  1.
         12    1    3    3    0    0 -0.14268792235E+02  0.85509607216E+01 -0.18865001310E+02  0.25151652740E+02  0.00000000000E+00 0. -1.
</event>
<event>
 7    1  0.5753610E-013  0.5052886E+02  0.7816164E-02  0.1300439E+00
        -11   -1    0    0    0    0  0.00000000000E+00  0.00000000000E+00  0.45593999997E+02  0.45594000000E+02  0.51100000000E-03 0.  1.
         11   -1    0    0    0    0 -0.00000000000E+00 -0.00000000000E+00 -0.45593999997E+02  0.45594000000E+02  0.51100000000E-03 0. -1.
    9900012    2    1    2    0    0 -0.27009995888E+02  0.23053838837E+02 -0.19802688080E+02  0.50528858123E+02  0.29999994751E+02 0.  0.
        -12    1    1    2    0    0  0.27009995888E+02 -0.23053838837E+02  0.19802688080E+02  0.40659141877E+02  0.00000000000E+00 0.  1.
         11    1    3    3    0    0  0.34878689001E+00  0.11104841351E+02  0.22255809273E+01  0.11331035453E+02  0.51100000000E-03 0. -1.
        -11    1    3    3    0    0 -0.11502906791E+02  0.85709197216E+01 -0.38745113716E+01  0.14858982743E+02  0.51100000000E-03 0.  1.
         12    1    3    3    0    0 -0.15855875987E+02  0.33780777646E+01 -0.18153757636E+02  0.24338839927E+02  0.00000000000E+00 0. -1.
</event>
<event>
 7    1  0.5753610E-013  0.5052890E+02  0.7816164E-02  0.1300439E+00
        -11   -1    0    0    0    0  0.00000000000E+00  0.00000000000E+00  0.45593999997E+02  0.45594000000E+02  0.51100000000E-03 0.  1.
         11   -1    0    0    0    0 -0.00000000000E+00 -0.00000000000E+00 -0.45593999997E+02  0.45594000000E+02  0.51100000000E-03 0. -1.
    9900012    2    1    2    0    0  0.17665893147E+02 -0.63265733357E+01 -0.36070118720E+02  0.50528895542E+02  0.30000108490E+02 0.  0.
        -12    1    1    2    0    0 -0.17665893147E+02  0.63265733357E+01  0.36070118720E+02  0.40659104458E+02  0.00000000000E+00 0.  1.
         11    1    3    3    0    0  0.88084491918E+01  0.13603124087E+01 -0.26784124207E+01  0.93066170207E+01  0.51100000000E-03 0.  1.
        -11    1    3    3    0    0 -0.55249146652E+01 -0.11667104190E+01 -0.18391275145E+01  0.59387107637E+01  0.51100000000E-03 0. -1.
        -12    1    3    3    0    0  0.14382358621E+02 -0.65201753254E+01 -0.31552578784E+02  0.35283567758E+02  0.00000000000E+00 0.  1.
</event>
<event>
 7    1  0.5753610E-013  0.5052887E+02  0.7816164E-02  0.1300439E+00
        -11   -1    0    0    0    0  0.00000000000E+00  0.00000000000E+00  0.45593999997E+02  0.45594000000E+02  0.51100000000E-03 0.  1.
         11   -1    0    0    0    0 -0.00000000000E+00 -0.00000000000E+00 -0.45593999997E+02  0.45594000000E+02  0.51100000000E-03 0. -1.
    9900012    2    1    2    0    0 -0.17251326910E+02 -0.35350687100E+02 -0.10290063651E+02  0.50528871031E+02  0.30000033987E+02 0.  0.
        -12    1    1    2    0    0  0.17251326910E+02  0.35350687100E+02  0.10290063651E+02  0.40659128969E+02  0.00000000000E+00 0.  1.
         11    1    3    3    0    0  0.29323446518E+01 -0.16323192517E+01 -0.71321572900E+01  0.78823079848E+01  0.51100000000E-03 0. -1.
        -11    1    3    3    0    0  0.15808194343E+01 -0.10758454273E+02 -0.13688329837E+01  0.10959791624E+02  0.51100000000E-03 0.  1.
        -12    1    3    3    0    0 -0.21764490996E+02 -0.22959913574E+02 -0.17890733772E+01  0.31686771423E+02  0.00000000000E+00 0.  1.
</event>
<event>
 7    1  0.5753610E-013  0.5052885E+02  0.7816164E-02  0.1300439E+00
        -11   -1    0    0    0    0  0.00000000000E+00  0.00000000000E+00  0.45593999997E+02  0.45594000000E+02  0.51100000000E-03 0.  1.
         11   -1    0    0    0    0 -0.00000000000E+00 -0.00000000000E+00 -0.45593999997E+02  0.45594000000E+02  0.51100000000E-03 0. -1.
    9900012    2    1    2    0    0  0.21581207996E+02 -0.34181505778E+02  0.43637754928E+01  0.50528850816E+02  0.29999972540E+02 0.  0.
        -12    1    1    2    0    0 -0.21581207996E+02  0.34181505778E+02 -0.43637754928E+01  0.40659149184E+02  0.00000000000E+00 0.  1.
         11    1    3    3    0    0  0.13580765766E+02 -0.18075825487E+02 -0.93507034034E+00  0.22628456037E+02  0.51100000000E-03 0. -1.
        -11    1    3    3    0    0 -0.20776785601E+01 -0.24275135524E+01 -0.64811847314E+01  0.72260173007E+01  0.51100000000E-03 0.  1.
         12    1    3    3    0    0  0.10078120790E+02 -0.13678166739E+02  0.11780030565E+02  0.20674377478E+02  0.00000000000E+00 0. -1.
</event>
<event>
 7    1  0.5753610E-013  0.5052886E+02  0.7816164E-02  0.1300439E+00
        -11   -1    0    0    0    0  0.00000000000E+00  0.00000000000E+00  0.45593999997E+02  0.45594000000E+02  0.51100000000E-03 0. -1.
         11   -1    0    0    0    0 -0.00000000000E+00 -0.00000000000E+00 -0.45593999997E+02  0.45594000000E+02  0.51100000000E-03 0.  1.
    9900012    2    1    2    0    0  0.63169647941E+01 -0.36589369546E+02  0.16567434078E+02  0.50528857363E+02  0.29999992442E+02 0.  0.
        -12    1    1    2    0    0 -0.63169647941E+01  0.36589369546E+02 -0.16567434078E+02  0.40659142637E+02  0.00000000000E+00 0.  1.
         11    1    3    3    0    0 -0.61160395273E+01 -0.13395914351E+02  0.13516467864E+02  0.19988780968E+02  0.51100000000E-03 0. -1.
        -11    1    3    3    0    0 -0.18014586169E+01 -0.10877259442E+01  0.36812213776E+01  0.42402584792E+01  0.51100000000E-03 0.  1.
         12    1    3    3    0    0  0.14234462938E+02 -0.22105729251E+02 -0.63025516347E+00  0.26299817916E+02  0.00000000000E+00 0. -1.
</event>
<event>
 7    1  0.7016684E-013  0.5052884E+02  0.7816164E-02  0.1300439E+00
        -11   -1    0    0    0    0  0.00000000000E+00  0.00000000000E+00  0.45593999997E+02  0.45594000000E+02  0.51100000000E-03 0. -1.
         11   -1    0    0    0    0 -0.00000000000E+00 -0.00000000000E+00 -0.45593999997E+02  0.45594000000E+02  0.51100000000E-03 0.  1.
    9900012    2    1    2    0    0 -0.39473780098E+02 -0.93773491776E+01 -0.26557688870E+01  0.50528842345E+02  0.29999946792E+02 0.  0.
        -12    1    1    2    0    0  0.39473780098E+02  0.93773491776E+01  0.26557688870E+01  0.40659157655E+02  0.00000000000E+00 0.  1.
         11    1    3    3    0    0 -0.17940308291E+02 -0.98404454431E+01 -0.15451827102E+01  0.20520151509E+02  0.51100000000E-03 0. -1.
        -11    1    3    3    0    0 -0.63851588241E+01 -0.63471475690E+01  0.71144913176E+01  0.11474864811E+02  0.51100000000E-03 0.  1.
        -12    1    3    3    0    0 -0.15148312983E+02  0.68102438345E+01 -0.82250774945E+01  0.18533826025E+02  0.00000000000E+00 0.  1.
</event>
<event>
 7    1  0.5753610E-013  0.5052886E+02  0.7816164E-02  0.1300439E+00
        -11   -1    0    0    0    0  0.00000000000E+00  0.00000000000E+00  0.45593999997E+02  0.45594000000E+02  0.51100000000E-03 0.  1.
         11   -1    0    0    0    0 -0.00000000000E+00 -0.00000000000E+00 -0.45593999997E+02  0.45594000000E+02  0.51100000000E-03 0. -1.
    9900012    2    1    2    0    0  0.16110439858E+02 -0.36990815052E+02 -0.50298319862E+01  0.50528857357E+02  0.29999992423E+02 0.  0.
        -12    1    1    2    0    0 -0.16110439858E+02  0.36990815052E+02  0.50298319862E+01  0.40659142643E+02  0.00000000000E+00 0.  1.
         11    1    3    3    0    0 -0.22038982861E+01 -0.18985087048E+01 -0.25065109009E+01  0.38398046976E+01  0.51100000000E-03 0.  1.
        -11    1    3    3    0    0 -0.59339824534E+00 -0.16876135871E+01 -0.77468228556E+01  0.79506871221E+01  0.51100000000E-03 0. -1.
         12    1    3    3    0    0  0.18907736390E+02 -0.33404692760E+02  0.52235017703E+01  0.38738365538E+02  0.00000000000E+00 0. -1.
</event>
<event>
 7    1  0.5992792E-013  0.5052886E+02  0.7816164E-02  0.1300439E+00
        -11   -1    0    0    0    0  0.00000000000E+00  0.00000000000E+00  0.45593999997E+02  0.45594000000E+02  0.51100000000E-03 0. -1.
         11   -1    0    0    0    0 -0.00000000000E+00 -0.00000000000E+00 -0.45593999997E+02  0.45594000000E+02  0.51100000000E-03 0.  1.
    9900012    2    1    2    0    0 -0.28764851335E+02 -0.23113007418E+02  0.17074488147E+02  0.50528856752E+02  0.29999990582E+02 0.  0.
        -12    1    1    2    0    0  0.28764851335E+02  0.23113007418E+02 -0.17074488147E+02  0.40659143248E+02  0.00000000000E+00 0.  1.
         11    1    3    3    0    0 -0.16355750372E+02 -0.11612967028E+02  0.17508770170E+02  0.26625713259E+02  0.51100000000E-03 0. -1.
        -11    1    3    3    0    0 -0.16341340730E+02 -0.88750486685E+01  0.17829795398E+01  0.18681138135E+02  0.51100000000E-03 0.  1.
        -12    1    3    3    0    0  0.39322397668E+01 -0.26249917215E+01 -0.22172615623E+01  0.52220053578E+01  0.00000000000E+00 0.  1.
</event>
<event>
 7    1  0.5753610E-013  0.5052886E+02  0.7816164E-02  0.1300439E+00
        -11   -1    0    0    0    0  0.00000000000E+00  0.00000000000E+00  0.45593999997E+02  0.45594000000E+02  0.51100000000E-03 0.  1.
         11   -1    0    0    0    0 -0.00000000000E+00 -0.00000000000E+00 -0.45593999997E+02  0.45594000000E+02  0.51100000000E-03 0. -1.
    9900012    2    1    2    0    0  0.22695677779E+02  0.80755058021E+01 -0.32754507224E+02  0.50528864160E+02  0.30000013099E+02 0.  0.
        -12    1    1    2    0    0 -0.22695677779E+02 -0.80755058021E+01  0.32754507224E+02  0.40659135840E+02  0.00000000000E+00 0.  1.
         11    1    3    3    0    0  0.10566619512E+01  0.41056087114E+01 -0.18695869193E+01  0.46333479127E+01  0.51100000000E-03 0. -1.
        -11    1    3    3    0    0 -0.13185870926E+01 -0.77858696854E+01 -0.49573548901E+01  0.93238300310E+01  0.51100000000E-03 0.  1.
         12    1    3    3    0    0  0.22957602920E+02  0.11755766776E+02 -0.25927565415E+02  0.36571686216E+02  0.00000000000E+00 0. -1.
</event>
<event>
 7    1  0.5753610E-013  0.5052885E+02  0.7816164E-02  0.1300439E+00
        -11   -1    0    0    0    0  0.00000000000E+00  0.00000000000E+00  0.45593999997E+02  0.45594000000E+02  0.51100000000E-03 0. -1.
         11   -1    0    0    0    0 -0.00000000000E+00 -0.00000000000E+00 -0.45593999997E+02  0.45594000000E+02  0.51100000000E-03 0.  1.
    9900012    2    1    2    0    0  0.33623047639E+02  0.20388372232E+02 -0.10342681000E+02  0.50528854594E+02  0.29999984025E+02 0.  0.
        -12    1    1    2    0    0 -0.33623047639E+02 -0.20388372232E+02  0.10342681000E+02  0.40659145406E+02  0.00000000000E+00 0.  1.
         11    1    3    3    0    0  0.13642231558E+02  0.82565909867E+01 -0.15914822826E+02  0.22529166928E+02  0.51100000000E-03 0. -1.
        -11    1    3    3    0    0  0.72599646944E+00 -0.28423278556E+01 -0.17821270638E+00  0.29389893743E+01  0.51100000000E-03 0.  1.
         12    1    3    3    0    0  0.19254819611E+02  0.14974109101E+02  0.57503545321E+01  0.25060698292E+02  0.00000000000E+00 0. -1.
</event>
<event>
 7    1  0.5753610E-013  0.5052886E+02  0.7816164E-02  0.1300439E+00
        -11   -1    0    0    0    0  0.00000000000E+00  0.00000000000E+00  0.45593999997E+02  0.45594000000E+02  0.51100000000E-03 0. -1.
         11   -1    0    0    0    0 -0.00000000000E+00 -0.00000000000E+00 -0.45593999997E+02  0.45594000000E+02  0.51100000000E-03 0.  1.
    9900012    2    1    2    0    0  0.26287863384E+02 -0.98462426655E+01  0.29413687648E+02  0.50528864778E+02  0.30000014978E+02 0.  0.
        -12    1    1    2    0    0 -0.26287863384E+02  0.98462426655E+01 -0.29413687648E+02  0.40659135222E+02  0.00000000000E+00 0.  1.
         11    1    3    3    0    0  0.15417856804E+02 -0.20419083278E+01  0.30322115766E+02  0.34078004678E+02  0.51100000000E-03 0. -1.
        -11    1    3    3    0    0  0.70550343189E+01 -0.12898362873E+01  0.32028251917E+01  0.78546340691E+01  0.51100000000E-03 0.  1.
        -12    1    3    3    0    0  0.38149722611E+01 -0.65144980504E+01 -0.41112533090E+01  0.85962260308E+01  0.00000000000E+00 0.  1.
</event>
<event>
 7    1  0.5753610E-013  0.5052886E+02  0.7816164E-02  0.1300439E+00
        -11   -1    0    0    0    0  0.00000000000E+00  0.00000000000E+00  0.45593999997E+02  0.45594000000E+02  0.51100000000E-03 0.  1.
         11   -1    0    0    0    0 -0.00000000000E+00 -0.00000000000E+00 -0.45593999997E+02  0.45594000000E+02  0.51100000000E-03 0. -1.
    9900012    2    1    2    0    0  0.81072762420E+00  0.25017281944E+02 -0.32041287976E+02  0.50528858220E+02  0.29999995045E+02 0.  0.
        -12    1    1    2    0    0 -0.81072762420E+00 -0.25017281944E+02  0.32041287976E+02  0.40659141780E+02  0.00000000000E+00 0.  1.
         11    1    3    3    0    0  0.69550697413E+01  0.22909068293E+02 -0.22719660231E+02  0.33005777773E+02  0.51100000000E-03 0. -1.
        -11    1    3    3    0    0 -0.49439029340E+01  0.12128543405E+01 -0.12778849076E+02  0.13755441681E+02  0.51100000000E-03 0.  1.
        -12    1    3    3    0    0 -0.12004391832E+01  0.89535931079E+00  0.34572213315E+01  0.37676387649E+01  0.00000000000E+00 0.  1.
</event>
<event>
 7    1  0.5753610E-013  0.5052885E+02  0.7816164E-02  0.1300439E+00
        -11   -1    0    0    0    0  0.00000000000E+00  0.00000000000E+00  0.45593999997E+02  0.45594000000E+02  0.51100000000E-03 0.  1.
         11   -1    0    0    0    0 -0.00000000000E+00 -0.00000000000E+00 -0.45593999997E+02  0.45594000000E+02  0.51100000000E-03 0. -1.
    9900012    2    1    2    0    0  0.28295996365E+02 -0.14990642076E+02 -0.25055618362E+02  0.50528846398E+02  0.29999959111E+02 0.  0.
        -12    1    1    2    0    0 -0.28295996365E+02  0.14990642076E+02  0.25055618362E+02  0.40659153602E+02  0.00000000000E+00 0.  1.
         11    1    3    3    0    0 -0.16001876217E+01 -0.34594181365E+01 -0.49013969058E+01  0.62090149103E+01  0.51100000000E-03 0. -1.
        -11    1    3    3    0    0  0.94283989384E+01 -0.10829014317E+01  0.45971234985E+01  0.10545185004E+02  0.51100000000E-03 0.  1.
         12    1    3    3    0    0  0.20467785048E+02 -0.10448322508E+02 -0.24751344955E+02  0.33774646483E+02  0.00000000000E+00 0. -1.
</event>
<event>
 7    1  0.5753610E-013  0.5052886E+02  0.7816164E-02  0.1300439E+00
        -11   -1    0    0    0    0  0.00000000000E+00  0.00000000000E+00  0.45593999997E+02  0.45594000000E+02  0.51100000000E-03 0.  1.
         11   -1    0    0    0    0 -0.00000000000E+00 -0.00000000000E+00 -0.45593999997E+02  0.45594000000E+02  0.51100000000E-03 0. -1.
    9900012    2    1    2    0    0 -0.27273734219E+02  0.28458688012E+02 -0.99705706009E+01  0.50528858596E+02  0.29999996187E+02 0.  0.
        -12    1    1    2    0    0  0.27273734219E+02 -0.28458688012E+02  0.99705706009E+01  0.40659141404E+02  0.00000000000E+00 0.  1.
         11    1    3    3    0    0 -0.55691264090E+01  0.46346413510E-01 -0.29516095182E+01  0.63031195418E+01  0.51100000000E-03 0. -1.
        -11    1    3    3    0    0 -0.22918038345E+02  0.24950326660E+02 -0.13747924354E+02  0.36561738284E+02  0.51100000000E-03 0.  1.
        -12    1    3    3    0    0  0.12134305350E+01  0.34620149391E+01  0.67289632711E+01  0.76640007702E+01  0.00000000000E+00 0.  1.
</event>
<event>
 7    1  0.5753610E-013  0.5052886E+02  0.7816164E-02  0.1300439E+00
        -11   -1    0    0    0    0  0.00000000000E+00  0.00000000000E+00  0.45593999997E+02  0.45594000000E+02  0.51100000000E-03 0.  1.
         11   -1    0    0    0    0 -0.00000000000E+00 -0.00000000000E+00 -0.45593999997E+02  0.45594000000E+02  0.51100000000E-03 0. -1.
    9900012    2    1    2    0    0  0.19080128101E+01 -0.15381028349E+02 -0.37589216680E+02  0.50528858881E+02  0.29999997054E+02 0.  0.
        -12    1    1    2    0    0 -0.19080128101E+01  0.15381028349E+02  0.37589216680E+02  0.40659141119E+02  0.00000000000E+00 0.  1.
         11    1    3    3    0    0 -0.23998151232E+01 -0.63114774165E+01 -0.16660036417E+01  0.69548133116E+01  0.51100000000E-03 0. -1.
        -11    1    3    3    0    0  0.11409736296E+02 -0.12292321187E+02 -0.22723795431E+02  0.28242771138E+02  0.51100000000E-03 0.  1.
         12    1    3    3    0    0 -0.71019083631E+01  0.32227702540E+01 -0.13199417607E+02  0.15331274431E+02  0.00000000000E+00 0. -1.
</event>
<event>
 7    1  0.5753610E-013  0.5052885E+02  0.7816164E-02  0.1300439E+00
        -11   -1    0    0    0    0  0.00000000000E+00  0.00000000000E+00  0.45593999997E+02  0.45594000000E+02  0.51100000000E-03 0. -1.
         11   -1    0    0    0    0 -0.00000000000E+00 -0.00000000000E+00 -0.45593999997E+02  0.45594000000E+02  0.51100000000E-03 0.  1.
    9900012    2    1    2    0    0 -0.40182712564E+02  0.32189886200E+01 -0.53060325557E+01  0.50528852711E+02  0.29999978301E+02 0.  0.
        -12    1    1    2    0    0  0.40182712564E+02 -0.32189886200E+01  0.53060325557E+01  0.40659147289E+02  0.00000000000E+00 0.  1.
         11    1    3    3    0    0 -0.47752177936E+01 -0.40422519326E+01 -0.93931654175E+00  0.63265173271E+01  0.51100000000E-03 0. -1.
        -11    1    3    3    0    0 -0.30114289795E+02  0.46663142523E+01 -0.13501372794E+02  0.33330646651E+02  0.51100000000E-03 0.  1.
         12    1    3    3    0    0 -0.52932049755E+01  0.25949263003E+01  0.91346567805E+01  0.10871688733E+02  0.00000000000E+00 0. -1.
</event>
<event>
 7    1  0.5753610E-013  0.5052886E+02  0.7816164E-02  0.1300439E+00
        -11   -1    0    0    0    0  0.00000000000E+00  0.00000000000E+00  0.45593999997E+02  0.45594000000E+02  0.51100000000E-03 0. -1.
         11   -1    0    0    0    0 -0.00000000000E+00 -0.00000000000E+00 -0.45593999997E+02  0.45594000000E+02  0.51100000000E-03 0.  1.
    9900012    2    1    2    0    0 -0.34178258405E+02  0.21785835358E+02 -0.32233262152E+01  0.50528858325E+02  0.29999995366E+02 0.  0.
        -12    1    1    2    0    0  0.34178258405E+02 -0.21785835358E+02  0.32233262152E+01  0.40659141675E+02  0.00000000000E+00 0.  1.
         11    1    3    3    0    0 -0.38346089684E+01  0.97357533710E+01  0.24536162706E+01  0.10747527749E+02  0.51100000000E-03 0. -1.
        -11    1    3    3    0    0 -0.22603412354E+02  0.18403435988E+02 -0.24068806479E+01  0.29247115771E+02  0.51100000000E-03 0.  1.
        -12    1    3    3    0    0 -0.77402370820E+01 -0.63533540009E+01 -0.32700618379E+01  0.10534214806E+02  0.00000000000E+00 0.  1.
</event>
<event>
 7    1  0.5753610E-013  0.5052882E+02  0.7816164E-02  0.1300439E+00
        -11   -1    0    0    0    0  0.00000000000E+00  0.00000000000E+00  0.45593999997E+02  0.45594000000E+02  0.51100000000E-03 0. -1.
         11   -1    0    0    0    0 -0.00000000000E+00 -0.00000000000E+00 -0.45593999997E+02  0.45594000000E+02  0.51100000000E-03 0.  1.
    9900012    2    1    2    0    0 -0.49862859937E+01 -0.36039227655E+02  0.18151578278E+02  0.50528821799E+02  0.29999884341E+02 0.  0.
        -12    1    1    2    0    0  0.49862859937E+01  0.36039227655E+02 -0.18151578278E+02  0.40659178201E+02  0.00000000000E+00 0.  1.
         11    1    3    3    0    0 -0.10828093620E+01  0.15019186211E+01  0.26325555352E+00  0.18701709565E+01  0.51100000000E-03 0.  1.
        -11    1    3    3    0    0 -0.62085542459E+01 -0.25249578735E+02 -0.98234444871E+00  0.26020230072E+02  0.51100000000E-03 0. -1.
        -12    1    3    3    0    0  0.23050776142E+01 -0.12291567541E+02  0.18870667173E+02  0.22638420771E+02  0.00000000000E+00 0.  1.
</event>
<event>
 7    1  0.5753610E-013  0.5052886E+02  0.7816164E-02  0.1300439E+00
        -11   -1    0    0    0    0  0.00000000000E+00  0.00000000000E+00  0.45593999997E+02  0.45594000000E+02  0.51100000000E-03 0. -1.
         11   -1    0    0    0    0 -0.00000000000E+00 -0.00000000000E+00 -0.45593999997E+02  0.45594000000E+02  0.51100000000E-03 0.  1.
    9900012    2    1    2    0    0 -0.34396444512E+02 -0.21642793749E+02  0.12805925824E+01  0.50528857932E+02  0.29999994171E+02 0.  0.
        -12    1    1    2    0    0  0.34396444512E+02  0.21642793749E+02 -0.12805925824E+01  0.40659142068E+02  0.00000000000E+00 0.  1.
         11    1    3    3    0    0 -0.20560464484E+00 -0.12546753567E+02 -0.62993525223E+00  0.12564239612E+02  0.51100000000E-03 0. -1.
        -11    1    3    3    0    0 -0.61494123497E+01  0.25817476515E+01 -0.27858882273E+01  0.72278535305E+01  0.51100000000E-03 0.  1.
         12    1    3    3    0    0 -0.28041427518E+02 -0.11677787833E+02  0.46964160620E+01  0.30736764790E+02  0.00000000000E+00 0. -1.
</event>
<event>
 7    1  0.5753610E-013  0.5052886E+02  0.7816164E-02  0.1300439E+00
        -11   -1    0    0    0    0  0.00000000000E+00  0.00000000000E+00  0.45593999997E+02  0.45594000000E+02  0.51100000000E-03 0. -1.
         11   -1    0    0    0    0 -0.00000000000E+00 -0.00000000000E+00 -0.45593999997E+02  0.45594000000E+02  0.51100000000E-03 0.  1.
    9900012    2    1    2    0    0 -0.29542244172E+02 -0.16851811835E+02  0.22280878590E+02  0.50528864451E+02  0.30000013986E+02 0.  0.
        -12    1    1    2    0    0  0.29542244172E+02  0.16851811835E+02 -0.22280878590E+02  0.40659135549E+02  0.00000000000E+00 0.  1.
         11    1    3    3    0    0 -0.12418942655E+02 -0.12476345284E+02  0.36779267680E+01  0.17983783636E+02  0.51100000000E-03 0. -1.
        -11    1    3    3    0    0  0.37605681465E+01  0.91855946034E+00 -0.30108428898E+00  0.38828180844E+01  0.51100000000E-03 0.  1.
         12    1    3    3    0    0 -0.20883869664E+02 -0.52940260113E+01  0.18904036111E+02  0.28662262730E+02  0.00000000000E+00 0. -1.
</event>
<event>
 7    1  0.5753610E-013  0.5052887E+02  0.7816164E-02  0.1300439E+00
        -11   -1    0    0    0    0  0.00000000000E+00  0.00000000000E+00  0.45593999997E+02  0.45594000000E+02  0.51100000000E-03 0.  1.
         11   -1    0    0    0    0 -0.00000000000E+00 -0.00000000000E+00 -0.45593999997E+02  0.45594000000E+02  0.51100000000E-03 0. -1.
    9900012    2    1    2    0    0  0.14627501789E+02 -0.14715774037E+02 -0.34966375116E+02  0.50528865690E+02  0.30000017751E+02 0.  0.
        -12    1    1    2    0    0 -0.14627501789E+02  0.14715774037E+02  0.34966375116E+02  0.40659134310E+02  0.00000000000E+00 0.  1.
         11    1    3    3    0    0  0.14173566470E+02 -0.12986185462E+02 -0.28828643693E+02  0.34649988410E+02  0.51100000000E-03 0. -1.
        -11    1    3    3    0    0 -0.30505871542E+01 -0.35837514334E+01 -0.95507823958E+01  0.10647384700E+02  0.51100000000E-03 0.  1.
         12    1    3    3    0    0  0.35045224729E+01  0.18541628593E+01  0.34130509726E+01  0.52314925799E+01  0.00000000000E+00 0. -1.
</event>
<event>
 7    1  0.5753610E-013  0.5052887E+02  0.7816164E-02  0.1300439E+00
        -11   -1    0    0    0    0  0.00000000000E+00  0.00000000000E+00  0.45593999997E+02  0.45594000000E+02  0.51100000000E-03 0. -1.
         11   -1    0    0    0    0 -0.00000000000E+00 -0.00000000000E+00 -0.45593999997E+02  0.45594000000E+02  0.51100000000E-03 0.  1.
    9900012    2    1    2    0    0  0.23698582423E+02 -0.28746648134E+02 -0.16284117815E+02  0.50528867191E+02  0.30000022312E+02 0.  0.
        -12    1    1    2    0    0 -0.23698582423E+02  0.28746648134E+02  0.16284117815E+02  0.40659132809E+02  0.00000000000E+00 0.  1.
         11    1    3    3    0    0  0.87717010549E+01 -0.36147707924E+01 -0.90092744852E+01  0.13083437403E+02  0.51100000000E-03 0. -1.
        -11    1    3    3    0    0  0.82175605522E+01 -0.65600284237E+00 -0.87526725463E+01  0.12023639970E+02  0.51100000000E-03 0.  1.
         12    1    3    3    0    0  0.67093208158E+01 -0.24475874500E+02  0.14778292167E+01  0.25421789817E+02  0.00000000000E+00 0. -1.
</event>
<event>
 7    1  0.5753610E-013  0.5052886E+02  0.7816164E-02  0.1300439E+00
        -11   -1    0    0    0    0  0.00000000000E+00  0.00000000000E+00  0.45593999997E+02  0.45594000000E+02  0.51100000000E-03 0.  1.
         11   -1    0    0    0    0 -0.00000000000E+00 -0.00000000000E+00 -0.45593999997E+02  0.45594000000E+02  0.51100000000E-03 0. -1.
    9900012    2    1    2    0    0  0.89491244632E+01  0.84478375698E+01 -0.38751944814E+02  0.50528855701E+02  0.29999987388E+02 0.  0.
        -12    1    1    2    0    0 -0.89491244632E+01 -0.84478375698E+01  0.38751944814E+02  0.40659144299E+02  0.00000000000E+00 0.  1.
         11    1    3    3    0    0 -0.44630666866E+01  0.10235086100E+02 -0.14598765329E+02  0.18379333533E+02  0.51100000000E-03 0. -1.
        -11    1    3    3    0    0  0.60471574249E+01  0.69104278782E+01 -0.69617976929E+01  0.11523400269E+02  0.51100000000E-03 0.  1.
         12    1    3    3    0    0  0.73650337248E+01 -0.86976764081E+01 -0.17191381792E+02  0.20626121899E+02  0.00000000000E+00 0. -1.
</event>
<event>
 7    1  0.5753610E-013  0.5052886E+02  0.7816164E-02  0.1300439E+00
        -11   -1    0    0    0    0  0.00000000000E+00  0.00000000000E+00  0.45593999997E+02  0.45594000000E+02  0.51100000000E-03 0.  1.
         11   -1    0    0    0    0 -0.00000000000E+00 -0.00000000000E+00 -0.45593999997E+02  0.45594000000E+02  0.51100000000E-03 0. -1.
    9900012    2    1    2    0    0  0.52150147698E+01  0.31970474233E+01 -0.40196374578E+02  0.50528855635E+02  0.29999987188E+02 0.  0.
        -12    1    1    2    0    0 -0.52150147698E+01 -0.31970474233E+01  0.40196374578E+02  0.40659144365E+02  0.00000000000E+00 0.  1.
         11    1    3    3    0    0 -0.26009954979E+01 -0.32537850808E+01 -0.73039095825E+00  0.42291566707E+01  0.51100000000E-03 0. -1.
        -11    1    3    3    0    0  0.11409807070E+02 -0.15748844221E+01 -0.90793128108E+01  0.14666215588E+02  0.51100000000E-03 0.  1.
         12    1    3    3    0    0 -0.35937968020E+01  0.80257169262E+01 -0.30386670809E+02  0.31633483376E+02  0.00000000000E+00 0. -1.
</event>
<event>
 7    1  0.5753610E-013  0.5052887E+02  0.7816164E-02  0.1300439E+00
        -11   -1    0    0    0    0  0.00000000000E+00  0.00000000000E+00  0.45593999997E+02  0.45594000000E+02  0.51100000000E-03 0. -1.
         11   -1    0    0    0    0 -0.00000000000E+00 -0.00000000000E+00 -0.45593999997E+02  0.45594000000E+02  0.51100000000E-03 0.  1.
    9900012    2    1    2    0    0  0.94274757047E+01  0.29328615372E+02  0.26535262866E+02  0.50528866301E+02  0.30000019608E+02 0.  0.
        -12    1    1    2    0    0 -0.94274757047E+01 -0.29328615372E+02 -0.26535262866E+02  0.40659133699E+02  0.00000000000E+00 0.  1.
         11    1    3    3    0    0 -0.32706256560E+01 -0.16437241735E+01  0.18747576505E+01  0.41126071840E+01  0.51100000000E-03 0. -1.
        -11    1    3    3    0    0  0.14776234092E+02  0.18823697979E+02  0.24271805897E+02  0.34085029871E+02  0.51100000000E-03 0.  1.
         12    1    3    3    0    0 -0.20781327309E+01  0.12148641567E+02  0.38869931829E+00  0.12331229246E+02  0.00000000000E+00 0. -1.
</event>
<event>
 7    1  0.5753610E-013  0.5052888E+02  0.7816164E-02  0.1300439E+00
        -11   -1    0    0    0    0  0.00000000000E+00  0.00000000000E+00  0.45593999997E+02  0.45594000000E+02  0.51100000000E-03 0.  1.
         11   -1    0    0    0    0 -0.00000000000E+00 -0.00000000000E+00 -0.45593999997E+02  0.45594000000E+02  0.51100000000E-03 0. -1.
    9900012    2    1    2    0    0  0.93281571581E+01  0.21361667383E+02 -0.33314096608E+02  0.50528875783E+02  0.30000048429E+02 0.  0.
        -12    1    1    2    0    0 -0.93281571581E+01 -0.21361667383E+02  0.33314096608E+02  0.40659124217E+02  0.00000000000E+00 0.  1.
         11    1    3    3    0    0 -0.28195557150E+01  0.13284071720E+02 -0.18965914234E+02  0.23326430479E+02  0.51100000000E-03 0. -1.
        -11    1    3    3    0    0  0.90125621093E+01  0.38631219000E+00 -0.16336867927E+02  0.18661960422E+02  0.51100000000E-03 0.  1.
         12    1    3    3    0    0  0.31351507638E+01  0.76912834732E+01  0.19886855537E+01  0.85404848813E+01  0.00000000000E+00 0. -1.
</event>
<event>
 7    1  0.5753610E-013  0.5052885E+02  0.7816164E-02  0.1300439E+00
        -11   -1    0    0    0    0  0.00000000000E+00  0.00000000000E+00  0.45593999997E+02  0.45594000000E+02  0.51100000000E-03 0.  1.
         11   -1    0    0    0    0 -0.00000000000E+00 -0.00000000000E+00 -0.45593999997E+02  0.45594000000E+02  0.51100000000E-03 0. -1.
    9900012    2    1    2    0    0  0.76476098963E+01 -0.26398287117E+02 -0.29963490555E+02  0.50528852616E+02  0.29999978010E+02 0.  0.
        -12    1    1    2    0    0 -0.76476098963E+01  0.26398287117E+02  0.29963490555E+02  0.40659147384E+02  0.00000000000E+00 0.  1.
         11    1    3    3    0    0  0.10688222190E+02 -0.89559440526E+01 -0.17435499181E+02  0.22325851818E+02  0.51100000000E-03 0. -1.
        -11    1    3    3    0    0 -0.26476266341E+01 -0.21185555498E+02 -0.94825449082E+01  0.23361428611E+02  0.51100000000E-03 0.  1.
         12    1    3    3    0    0 -0.39298565986E+00  0.37432124344E+01 -0.30454464654E+01  0.48415721859E+01  0.00000000000E+00 0. -1.
</event>
<event>
 7    1  0.5753610E-013  0.5052886E+02  0.7816164E-02  0.1300439E+00
        -11   -1    0    0    0    0  0.00000000000E+00  0.00000000000E+00  0.45593999997E+02  0.45594000000E+02  0.51100000000E-03 0.  1.
         11   -1    0    0    0    0 -0.00000000000E+00 -0.00000000000E+00 -0.45593999997E+02  0.45594000000E+02  0.51100000000E-03 0. -1.
    9900012    2    1    2    0    0 -0.99945937289E+01  0.17510205116E+02 -0.35308165845E+02  0.50528858809E+02  0.29999996836E+02 0.  0.
        -12    1    1    2    0    0  0.99945937289E+01 -0.17510205116E+02  0.35308165845E+02  0.40659141191E+02  0.00000000000E+00 0.  1.
         11    1    3    3    0    0 -0.94965909271E+01  0.16594573897E+01 -0.20964174007E+02  0.23074566737E+02  0.51100000000E-03 0. -1.
        -11    1    3    3    0    0  0.24505942551E+01 -0.15766680995E+00 -0.10426560467E+02  0.10711836185E+02  0.51100000000E-03 0.  1.
         12    1    3    3    0    0 -0.29485970569E+01  0.16008414537E+02 -0.39174313719E+01  0.16742455887E+02  0.00000000000E+00 0. -1.
</event>
<event>
 7    1  0.5753610E-013  0.5052885E+02  0.7816164E-02  0.1300439E+00
        -11   -1    0    0    0    0  0.00000000000E+00  0.00000000000E+00  0.45593999997E+02  0.45594000000E+02  0.51100000000E-03 0. -1.
         11   -1    0    0    0    0 -0.00000000000E+00 -0.00000000000E+00 -0.45593999997E+02  0.45594000000E+02  0.51100000000E-03 0.  1.
    9900012    2    1    2    0    0  0.26074531098E+02  0.13243002403E+02  0.28247275501E+02  0.50528845338E+02  0.29999955888E+02 0.  0.
        -12    1    1    2    0    0 -0.26074531098E+02 -0.13243002403E+02 -0.28247275501E+02  0.40659154662E+02  0.00000000000E+00 0.  1.
         11    1    3    3    0    0  0.10051446068E+01  0.37784798679E+01  0.29435352919E+01  0.48940398515E+01  0.51100000000E-03 0. -1.
        -11    1    3    3    0    0  0.56311035640E+01 -0.93412832015E+01  0.65534315661E+01  0.12724636134E+02  0.51100000000E-03 0.  1.
        -12    1    3    3    0    0  0.19438282927E+02  0.18805805736E+02  0.18750308643E+02  0.32910169352E+02  0.00000000000E+00 0.  1.
</event>
<event>
 7    1  0.5753610E-013  0.5052885E+02  0.7816164E-02  0.1300439E+00
        -11   -1    0    0    0    0  0.00000000000E+00  0.00000000000E+00  0.45593999997E+02  0.45594000000E+02  0.51100000000E-03 0.  1.
         11   -1    0    0    0    0 -0.00000000000E+00 -0.00000000000E+00 -0.45593999997E+02  0.45594000000E+02  0.51100000000E-03 0. -1.
    9900012    2    1    2    0    0 -0.32711341087E+02  0.98653375643E+01 -0.22041086977E+02  0.50528852984E+02  0.29999979131E+02 0.  0.
        -12    1    1    2    0    0  0.32711341087E+02 -0.98653375643E+01  0.22041086977E+02  0.40659147016E+02  0.00000000000E+00 0.  1.
         11    1    3    3    0    0 -0.86786680248E+01 -0.16835161079E+01 -0.12053913572E+02  0.14948255344E+02  0.51100000000E-03 0. -1.
        -11    1    3    3    0    0 -0.31183026280E+01 -0.45266252808E+01  0.29082114435E+01  0.62186688105E+01  0.51100000000E-03 0.  1.
        -12    1    3    3    0    0 -0.20914370434E+02  0.16075478953E+02 -0.12895384848E+02  0.29361928829E+02  0.00000000000E+00 0.  1.
</event>
<event>
 7    1  0.5753610E-013  0.5052885E+02  0.7816164E-02  0.1300439E+00
        -11   -1    0    0    0    0  0.00000000000E+00  0.00000000000E+00  0.45593999997E+02  0.45594000000E+02  0.51100000000E-03 0.  1.
         11   -1    0    0    0    0 -0.00000000000E+00 -0.00000000000E+00 -0.45593999997E+02  0.45594000000E+02  0.51100000000E-03 0. -1.
    9900012    2    1    2    0    0 -0.97689582312E+01  0.37968715252E+02 -0.10775476197E+02  0.50528846417E+02  0.29999959168E+02 0.  0.
        -12    1    1    2    0    0  0.97689582312E+01 -0.37968715252E+02  0.10775476197E+02  0.40659153583E+02  0.00000000000E+00 0.  1.
         11    1    3    3    0    0  0.63801734762E+00  0.41991205838E+01 -0.58603962585E+01  0.72376739621E+01  0.51100000000E-03 0. -1.
        -11    1    3    3    0    0 -0.69674757665E+01  0.34150990205E+02  0.26673133913E+01  0.34956407303E+02  0.51100000000E-03 0.  1.
         12    1    3    3    0    0 -0.34394998124E+01 -0.38139553705E+00 -0.75823933301E+01  0.83347651513E+01  0.00000000000E+00 0. -1.
</event>
<event>
 7    1  0.5753610E-013  0.5052886E+02  0.7816164E-02  0.1300439E+00
        -11   -1    0    0    0    0  0.00000000000E+00  0.00000000000E+00  0.45593999997E+02  0.45594000000E+02  0.51100000000E-03 0.  1.
         11   -1    0    0    0    0 -0.00000000000E+00 -0.00000000000E+00 -0.45593999997E+02  0.45594000000E+02  0.51100000000E-03 0. -1.
    9900012    2    1    2    0    0  0.16241412463E+02  0.18350564830E+02 -0.32444394071E+02  0.50528863081E+02  0.30000009821E+02 0.  0.
        -12    1    1    2    0    0 -0.16241412463E+02 -0.18350564830E+02  0.32444394071E+02  0.40659136919E+02  0.00000000000E+00 0.  1.
         11    1    3    3    0    0 -0.27742877198E+01  0.18581371837E+01  0.30324814339E+01  0.45105753573E+01  0.51100000000E-03 0.  1.
        -11    1    3    3    0    0  0.11255635188E+02  0.17075247150E+02 -0.19551909412E+02  0.28293648591E+02  0.51100000000E-03 0. -1.
        -12    1    3    3    0    0  0.77600649950E+01 -0.58281950405E+00 -0.15924966093E+02  0.17724639132E+02  0.00000000000E+00 0.  1.
</event>
<event>
 7    1  0.5753610E-013  0.5052887E+02  0.7816164E-02  0.1300439E+00
        -11   -1    0    0    0    0  0.00000000000E+00  0.00000000000E+00  0.45593999997E+02  0.45594000000E+02  0.51100000000E-03 0. -1.
         11   -1    0    0    0    0 -0.00000000000E+00 -0.00000000000E+00 -0.45593999997E+02  0.45594000000E+02  0.51100000000E-03 0.  1.
    9900012    2    1    2    0    0  0.39846957737E+02  0.47219332669E+01  0.65641384741E+01  0.50528872998E+02  0.30000039963E+02 0.  0.
        -12    1    1    2    0    0 -0.39846957737E+02 -0.47219332669E+01 -0.65641384741E+01  0.40659127002E+02  0.00000000000E+00 0.  1.
         11    1    3    3    0    0  0.26527893681E+01  0.99032118268E+00 -0.38257963197E+01  0.47597001185E+01  0.51100000000E-03 0. -1.
        -11    1    3    3    0    0 -0.13883236443E+01  0.40784681971E+01 -0.26299847963E+01  0.50475900849E+01  0.51100000000E-03 0.  1.
         12    1    3    3    0    0  0.38582492013E+02 -0.34685611287E+00  0.13019919590E+02  0.40721582794E+02  0.00000000000E+00 0. -1.
</event>
<event>
 7    1  0.5753610E-013  0.5052887E+02  0.7816164E-02  0.1300439E+00
        -11   -1    0    0    0    0  0.00000000000E+00  0.00000000000E+00  0.45593999997E+02  0.45594000000E+02  0.51100000000E-03 0. -1.
         11   -1    0    0    0    0 -0.00000000000E+00 -0.00000000000E+00 -0.45593999997E+02  0.45594000000E+02  0.51100000000E-03 0.  1.
    9900012    2    1    2    0    0  0.33572856169E+02 -0.21979241449E+02 -0.65529747932E+01  0.50528865667E+02  0.30000017682E+02 0.  0.
        -12    1    1    2    0    0 -0.33572856169E+02  0.21979241449E+02  0.65529747932E+01  0.40659134333E+02  0.00000000000E+00 0.  1.
         11    1    3    3    0    0  0.36202397968E+02 -0.23262289424E+02 -0.13992446692E+01  0.43054681671E+02  0.51100000000E-03 0. -1.
        -11    1    3    3    0    0 -0.32858356865E+00  0.25843498965E+01 -0.16447158064E+01  0.30808962810E+01  0.51100000000E-03 0.  1.
        -12    1    3    3    0    0 -0.23009582302E+01 -0.13013019216E+01 -0.35090143177E+01  0.43932877153E+01  0.00000000000E+00 0.  1.
</event>
<event>
 7    1  0.5753610E-013  0.5052887E+02  0.7816164E-02  0.1300439E+00
        -11   -1    0    0    0    0  0.00000000000E+00  0.00000000000E+00  0.45593999997E+02  0.45594000000E+02  0.51100000000E-03 0.  1.
         11   -1    0    0    0    0 -0.00000000000E+00 -0.00000000000E+00 -0.45593999997E+02  0.45594000000E+02  0.51100000000E-03 0. -1.
    9900012    2    1    2    0    0  0.22597689135E+02 -0.30099562762E+02 -0.15379401932E+02  0.50528865277E+02  0.30000016495E+02 0.  0.
        -12    1    1    2    0    0 -0.22597689135E+02  0.30099562762E+02  0.15379401932E+02  0.40659134723E+02  0.00000000000E+00 0.  1.
         11    1    3    3    0    0  0.20248549789E+02 -0.15251890444E+02 -0.15821035979E+02  0.29881919456E+02  0.51100000000E-03 0. -1.
        -11    1    3    3    0    0 -0.40169305375E+01 -0.34062037111E+01 -0.42197552954E+01  0.67486509525E+01  0.51100000000E-03 0.  1.
        -12    1    3    3    0    0  0.63660698832E+01 -0.11441468607E+02  0.46613893424E+01  0.13898294868E+02  0.00000000000E+00 0.  1.
</event>
<event>
 7    1  0.5753610E-013  0.5052886E+02  0.7816164E-02  0.1300439E+00
        -11   -1    0    0    0    0  0.00000000000E+00  0.00000000000E+00  0.45593999997E+02  0.45594000000E+02  0.51100000000E-03 0.  1.
         11   -1    0    0    0    0 -0.00000000000E+00 -0.00000000000E+00 -0.45593999997E+02  0.45594000000E+02  0.51100000000E-03 0. -1.
    9900012    2    1    2    0    0 -0.24278982582E+02  0.15180704030E+02  0.28865950826E+02  0.50528857275E+02  0.29999992172E+02 0.  0.
        -12    1    1    2    0    0  0.24278982582E+02 -0.15180704030E+02 -0.28865950826E+02  0.40659142725E+02  0.00000000000E+00 0.  1.
         11    1    3    3    0    0  0.40298970033E+01  0.73522844032E+01  0.31015730601E+01  0.89395699847E+01  0.51100000000E-03 0. -1.
        -11    1    3    3    0    0 -0.50252838494E+01 -0.31216490594E+01  0.93663944636E+01  0.11078245174E+02  0.51100000000E-03 0.  1.
         12    1    3    3    0    0 -0.23283595736E+02  0.10950068687E+02  0.16397983302E+02  0.30511042116E+02  0.00000000000E+00 0. -1.
</event>
<event>
 7    1  0.5753610E-013  0.5052885E+02  0.7816164E-02  0.1300439E+00
        -11   -1    0    0    0    0  0.00000000000E+00  0.00000000000E+00  0.45593999997E+02  0.45594000000E+02  0.51100000000E-03 0.  1.
         11   -1    0    0    0    0 -0.00000000000E+00 -0.00000000000E+00 -0.45593999997E+02  0.45594000000E+02  0.51100000000E-03 0. -1.
    9900012    2    1    2    0    0 -0.38614956021E+01  0.15093965573E+02 -0.37555654042E+02  0.50528854712E+02  0.29999984382E+02 0.  0.
        -12    1    1    2    0    0  0.38614956021E+01 -0.15093965573E+02  0.37555654042E+02  0.40659145288E+02  0.00000000000E+00 0.  1.
         11    1    3    3    0    0 -0.24002803653E+01 -0.25397783980E+01 -0.28202415118E+02  0.28418093512E+02  0.51100000000E-03 0. -1.
        -11    1    3    3    0    0  0.22898016193E+01  0.40734911382E+00 -0.48449884914E+00  0.23756818289E+01  0.51100000000E-03 0.  1.
        -12    1    3    3    0    0 -0.37510168561E+01  0.17226394857E+02 -0.88687400752E+01  0.19735079371E+02  0.00000000000E+00 0.  1.
</event>
<event>
 7    1  0.5753610E-013  0.5052886E+02  0.7816164E-02  0.1300439E+00
        -11   -1    0    0    0    0  0.00000000000E+00  0.00000000000E+00  0.45593999997E+02  0.45594000000E+02  0.51100000000E-03 0.  1.
         11   -1    0    0    0    0 -0.00000000000E+00 -0.00000000000E+00 -0.45593999997E+02  0.45594000000E+02  0.51100000000E-03 0. -1.
    9900012    2    1    2    0    0  0.33652415073E+02 -0.21723740219E+02  0.69828146356E+01  0.50528860442E+02  0.30000001800E+02 0.  0.
        -12    1    1    2    0    0 -0.33652415073E+02  0.21723740219E+02 -0.69828146356E+01  0.40659139558E+02  0.00000000000E+00 0.  1.
         11    1    3    3    0    0  0.74952166624E+01  0.38896890226E+01  0.57579539904E+01  0.10220664750E+02  0.51100000000E-03 0. -1.
        -11    1    3    3    0    0  0.46209837171E+01 -0.10202420997E+02  0.69944826216E+01  0.13204759449E+02  0.51100000000E-03 0.  1.
         12    1    3    3    0    0  0.21536214694E+02 -0.15411008244E+02 -0.57696219764E+01  0.27103436243E+02  0.00000000000E+00 0. -1.
</event>
<event>
 7    1  0.5753610E-013  0.5052885E+02  0.7816164E-02  0.1300439E+00
        -11   -1    0    0    0    0  0.00000000000E+00  0.00000000000E+00  0.45593999997E+02  0.45594000000E+02  0.51100000000E-03 0. -1.
         11   -1    0    0    0    0 -0.00000000000E+00 -0.00000000000E+00 -0.45593999997E+02  0.45594000000E+02  0.51100000000E-03 0.  1.
    9900012    2    1    2    0    0  0.25696336894E+02 -0.21369088367E+02  0.23156563979E+02  0.50528854378E+02  0.29999983367E+02 0.  0.
        -12    1    1    2    0    0 -0.25696336894E+02  0.21369088367E+02 -0.23156563979E+02  0.40659145622E+02  0.00000000000E+00 0.  1.
         11    1    3    3    0    0  0.73353416775E+01  0.15044850246E+01  0.13378862728E+01  0.76066190029E+01  0.51100000000E-03 0. -1.
        -11    1    3    3    0    0  0.17656198054E+02 -0.72786154624E+01  0.19223201517E+02  0.27097067177E+02  0.51100000000E-03 0.  1.
        -12    1    3    3    0    0  0.70479716322E+00 -0.15594957929E+02  0.25954761889E+01  0.15825168198E+02  0.00000000000E+00 0.  1.
</event>
<event>
 7    1  0.5753610E-013  0.5052886E+02  0.7816164E-02  0.1300439E+00
        -11   -1    0    0    0    0  0.00000000000E+00  0.00000000000E+00  0.45593999997E+02  0.45594000000E+02  0.51100000000E-03 0.  1.
         11   -1    0    0    0    0 -0.00000000000E+00 -0.00000000000E+00 -0.45593999997E+02  0.45594000000E+02  0.51100000000E-03 0. -1.
    9900012    2    1    2    0    0  0.24648494622E+02 -0.31905420578E+02 -0.52594427006E+01  0.50528857278E+02  0.29999992183E+02 0.  0.
        -12    1    1    2    0    0 -0.24648494622E+02  0.31905420578E+02  0.52594427006E+01  0.40659142722E+02  0.00000000000E+00 0.  1.
         11    1    3    3    0    0  0.14418501386E+02 -0.97090254056E+01 -0.16776181353E+01  0.17463469283E+02  0.51100000000E-03 0. -1.
        -11    1    3    3    0    0  0.72113501916E+01 -0.16186063230E+02 -0.12652406856E+02  0.21773277520E+02  0.51100000000E-03 0.  1.
         12    1    3    3    0    0  0.30186430448E+01 -0.60103319418E+01  0.90705822905E+01  0.11292110475E+02  0.00000000000E+00 0. -1.
</event>
<event>
 7    1  0.5753610E-013  0.5052888E+02  0.7816164E-02  0.1300439E+00
        -11   -1    0    0    0    0  0.00000000000E+00  0.00000000000E+00  0.45593999997E+02  0.45594000000E+02  0.51100000000E-03 0.  1.
         11   -1    0    0    0    0 -0.00000000000E+00 -0.00000000000E+00 -0.45593999997E+02  0.45594000000E+02  0.51100000000E-03 0. -1.
    9900012    2    1    2    0    0  0.28868903873E+02  0.28338788183E+02 -0.40820737160E+01  0.50528882298E+02  0.30000068232E+02 0.  0.
        -12    1    1    2    0    0 -0.28868903873E+02 -0.28338788183E+02  0.40820737160E+01  0.40659117702E+02  0.00000000000E+00 0.  1.
         11    1    3    3    0    0  0.11525737802E+01  0.57702680922E+01  0.26268805942E+01  0.64439834025E+01  0.51100000000E-03 0. -1.
        -11    1    3    3    0    0  0.41345899366E+01 -0.54865460360E+01 -0.18497924273E+01  0.71146857720E+01  0.51100000000E-03 0.  1.
         12    1    3    3    0    0  0.23581740156E+02  0.28055066127E+02 -0.48591618829E+01  0.36970213123E+02  0.00000000000E+00 0. -1.
</event>
<event>
 7    1  0.5753610E-013  0.5052886E+02  0.7816164E-02  0.1300439E+00
        -11   -1    0    0    0    0  0.00000000000E+00  0.00000000000E+00  0.45593999997E+02  0.45594000000E+02  0.51100000000E-03 0.  1.
         11   -1    0    0    0    0 -0.00000000000E+00 -0.00000000000E+00 -0.45593999997E+02  0.45594000000E+02  0.51100000000E-03 0. -1.
    9900012    2    1    2    0    0 -0.34234033419E+02 -0.18589072463E+02  0.11646584569E+02  0.50528860913E+02  0.30000003231E+02 0.  0.
        -12    1    1    2    0    0  0.34234033419E+02  0.18589072463E+02 -0.11646584569E+02  0.40659139087E+02  0.00000000000E+00 0.  1.
         11    1    3    3    0    0 -0.19377191752E+01 -0.68657053973E+01  0.52084673955E+01  0.88329383036E+01  0.51100000000E-03 0.  1.
        -11    1    3    3    0    0 -0.24604351013E+02 -0.13518271322E+02  0.13454467616E+02  0.31131020661E+02  0.51100000000E-03 0. -1.
        -12    1    3    3    0    0 -0.76919632315E+01  0.17949042566E+01 -0.70163504427E+01  0.10564901948E+02  0.00000000000E+00 0.  1.
</event>
<event>
 7    1  0.5753610E-013  0.5052886E+02  0.7816164E-02  0.1300439E+00
        -11   -1    0    0    0    0  0.00000000000E+00  0.00000000000E+00  0.45593999997E+02  0.45594000000E+02  0.51100000000E-03 0. -1.
         11   -1    0    0    0    0 -0.00000000000E+00 -0.00000000000E+00 -0.45593999997E+02  0.45594000000E+02  0.51100000000E-03 0.  1.
    9900012    2    1    2    0    0 -0.18287913953E+02 -0.58604668604E+01  0.35838151011E+02  0.50528856669E+02  0.29999990330E+02 0.  0.
        -12    1    1    2    0    0  0.18287913953E+02  0.58604668604E+01 -0.35838151011E+02  0.40659143331E+02  0.00000000000E+00 0.  1.
         11    1    3    3    0    0 -0.42828409615E+01  0.99344307504E+01  0.21157729336E+02  0.23763104847E+02  0.51100000000E-03 0. -1.
        -11    1    3    3    0    0 -0.74616355085E+01 -0.31271755335E+01  0.60106947088E+01  0.10078873073E+02  0.51100000000E-03 0.  1.
        -12    1    3    3    0    0 -0.65434374831E+01 -0.12667722077E+02  0.86697269656E+01  0.16686878749E+02  0.00000000000E+00 0.  1.
</event>
<event>
 7    1  0.5753610E-013  0.5052885E+02  0.7816164E-02  0.1300439E+00
        -11   -1    0    0    0    0  0.00000000000E+00  0.00000000000E+00  0.45593999997E+02  0.45594000000E+02  0.51100000000E-03 0.  1.
         11   -1    0    0    0    0 -0.00000000000E+00 -0.00000000000E+00 -0.45593999997E+02  0.45594000000E+02  0.51100000000E-03 0. -1.
    9900012    2    1    2    0    0 -0.55294118246E+01  0.62217149066E+01 -0.39798015547E+02  0.50528853760E+02  0.29999981489E+02 0.  0.
        -12    1    1    2    0    0  0.55294118246E+01 -0.62217149066E+01  0.39798015547E+02  0.40659146240E+02  0.00000000000E+00 0.  1.
         11    1    3    3    0    0 -0.13536595818E+02  0.15524906779E+01 -0.21524678112E+02  0.25474721230E+02  0.51100000000E-03 0. -1.
        -11    1    3    3    0    0  0.65783192151E+00 -0.39536078775E+01 -0.58800332175E+00  0.40508648772E+01  0.51100000000E-03 0.  1.
         12    1    3    3    0    0  0.73493520722E+01  0.86228321061E+01 -0.17685334113E+02  0.21003267653E+02  0.00000000000E+00 0. -1.
</event>
<event>
 7    1  0.5753610E-013  0.5052886E+02  0.7816164E-02  0.1300439E+00
        -11   -1    0    0    0    0  0.00000000000E+00  0.00000000000E+00  0.45593999997E+02  0.45594000000E+02  0.51100000000E-03 0.  1.
         11   -1    0    0    0    0 -0.00000000000E+00 -0.00000000000E+00 -0.45593999997E+02  0.45594000000E+02  0.51100000000E-03 0. -1.
    9900012    2    1    2    0    0  0.22218875401E+02  0.10780794298E+02 -0.32299559541E+02  0.50528862081E+02  0.30000006782E+02 0.  0.
        -12    1    1    2    0    0 -0.22218875401E+02 -0.10780794298E+02  0.32299559541E+02  0.40659137919E+02  0.00000000000E+00 0.  1.
         11    1    3    3    0    0  0.75742542714E+01 -0.15264296079E+01 -0.62795540389E+01  0.99565111512E+01  0.51100000000E-03 0. -1.
        -11    1    3    3    0    0 -0.39795731240E+01 -0.38853448466E+01 -0.14495193549E+01  0.57475223747E+01  0.51100000000E-03 0.  1.
         12    1    3    3    0    0  0.18624194254E+02  0.16192568752E+02 -0.24570486147E+02  0.34824828555E+02  0.00000000000E+00 0. -1.
</event>
<event>
 7    1  0.5753610E-013  0.5052886E+02  0.7816164E-02  0.1300439E+00
        -11   -1    0    0    0    0  0.00000000000E+00  0.00000000000E+00  0.45593999997E+02  0.45594000000E+02  0.51100000000E-03 0. -1.
         11   -1    0    0    0    0 -0.00000000000E+00 -0.00000000000E+00 -0.45593999997E+02  0.45594000000E+02  0.51100000000E-03 0.  1.
    9900012    2    1    2    0    0  0.10593242331E+02 -0.39009069708E+02  0.43865195000E+01  0.50528857660E+02  0.29999993342E+02 0.  0.
        -12    1    1    2    0    0 -0.10593242331E+02  0.39009069708E+02 -0.43865195000E+01  0.40659142340E+02  0.00000000000E+00 0.  1.
         11    1    3    3    0    0 -0.48184748998E+01 -0.38083658127E+01  0.68331438802E+01  0.91876659752E+01  0.51100000000E-03 0. -1.
        -11    1    3    3    0    0  0.18950559594E+00 -0.11881157094E+02 -0.59228296393E+01  0.13276961906E+02  0.51100000000E-03 0.  1.
         12    1    3    3    0    0  0.15222211634E+02 -0.23319546801E+02  0.34762052590E+01  0.28064229778E+02  0.00000000000E+00 0. -1.
</event>
<event>
 7    1  0.5753610E-013  0.5052886E+02  0.7816164E-02  0.1300439E+00
        -11   -1    0    0    0    0  0.00000000000E+00  0.00000000000E+00  0.45593999997E+02  0.45594000000E+02  0.51100000000E-03 0.  1.
         11   -1    0    0    0    0 -0.00000000000E+00 -0.00000000000E+00 -0.45593999997E+02  0.45594000000E+02  0.51100000000E-03 0. -1.
    9900012    2    1    2    0    0 -0.34537412779E+02  0.16682753103E+02 -0.13491422265E+02  0.50528860717E+02  0.30000002634E+02 0.  0.
        -12    1    1    2    0    0  0.34537412779E+02 -0.16682753103E+02  0.13491422265E+02  0.40659139283E+02  0.00000000000E+00 0.  1.
         11    1    3    3    0    0 -0.64547609052E+01  0.13329969764E+02 -0.10656001977E+02  0.18245613463E+02  0.51100000000E-03 0. -1.
        -11    1    3    3    0    0 -0.80044813824E+00  0.60625036451E-01  0.39065514978E+01  0.39881747057E+01  0.51100000000E-03 0.  1.
        -12    1    3    3    0    0 -0.27282203735E+02  0.32921583028E+01 -0.67419717863E+01  0.28295072548E+02  0.00000000000E+00 0.  1.
</event>
<event>
 7    1  0.5753610E-013  0.5052887E+02  0.7816164E-02  0.1300439E+00
        -11   -1    0    0    0    0  0.00000000000E+00  0.00000000000E+00  0.45593999997E+02  0.45594000000E+02  0.51100000000E-03 0.  1.
         11   -1    0    0    0    0 -0.00000000000E+00 -0.00000000000E+00 -0.45593999997E+02  0.45594000000E+02  0.51100000000E-03 0. -1.
    9900012    2    1    2    0    0  0.35567143454E+02 -0.17021999631E+02 -0.99194214271E+01  0.50528867122E+02  0.30000022104E+02 0.  0.
        -12    1    1    2    0    0 -0.35567143454E+02  0.17021999631E+02  0.99194214271E+01  0.40659132878E+02  0.00000000000E+00 0.  1.
         11    1    3    3    0    0  0.35077692970E+02 -0.12372413693E+02 -0.14498504762E+02  0.39921520578E+02  0.51100000000E-03 0. -1.
        -11    1    3    3    0    0  0.22922671157E+01  0.17664535177E+01  0.16066850424E+01  0.33100277410E+01  0.51100000000E-03 0.  1.
        -12    1    3    3    0    0 -0.18028166310E+01 -0.64160394553E+01  0.29723982927E+01  0.72973188027E+01  0.00000000000E+00 0.  1.
</event>
<event>
 7    1  0.5753610E-013  0.5052885E+02  0.7816164E-02  0.1300439E+00
        -11   -1    0    0    0    0  0.00000000000E+00  0.00000000000E+00  0.45593999997E+02  0.45594000000E+02  0.51100000000E-03 0. -1.
         11   -1    0    0    0    0 -0.00000000000E+00 -0.00000000000E+00 -0.45593999997E+02  0.45594000000E+02  0.51100000000E-03 0.  1.
    9900012    2    1    2    0    0 -0.34636322701E+01 -0.23292373304E+02  0.33145658770E+02  0.50528854682E+02  0.29999984292E+02 0.  0.
        -12    1    1    2    0    0  0.34636322701E+01  0.23292373304E+02 -0.33145658770E+02  0.40659145318E+02  0.00000000000E+00 0.  1.
         11    1    3    3    0    0 -0.57622901995E+01 -0.14363247829E+02  0.40312409755E+01  0.15992428852E+02  0.51100000000E-03 0. -1.
        -11    1    3    3    0    0 -0.42425380527E+01  0.15159395240E+01  0.23735788926E+01  0.50922567481E+01  0.51100000000E-03 0.  1.
         12    1    3    3    0    0  0.65411959820E+01 -0.10445065000E+02  0.26740838902E+02  0.29444169082E+02  0.00000000000E+00 0. -1.
</event>
<event>
 7    1  0.5753610E-013  0.5052893E+02  0.7816164E-02  0.1300439E+00
        -11   -1    0    0    0    0  0.00000000000E+00  0.00000000000E+00  0.45593999997E+02  0.45594000000E+02  0.51100000000E-03 0.  1.
         11   -1    0    0    0    0 -0.00000000000E+00 -0.00000000000E+00 -0.45593999997E+02  0.45594000000E+02  0.51100000000E-03 0. -1.
    9900012    2    1    2    0    0 -0.22987963334E+02 -0.18660362736E+02 -0.27865823517E+02  0.50528933165E+02  0.30000222846E+02 0.  0.
        -12    1    1    2    0    0  0.22987963334E+02  0.18660362736E+02  0.27865823517E+02  0.40659066835E+02  0.00000000000E+00 0.  1.
         11    1    3    3    0    0 -0.97947945864E+01 -0.58904564822E+01 -0.24811561935E+02  0.27317560002E+02  0.51100000000E-03 0. -1.
        -11    1    3    3    0    0  0.24173067379E+01 -0.41345259448E-01 -0.18299407611E+01  0.30321221522E+01  0.51100000000E-03 0.  1.
         12    1    3    3    0    0 -0.15610475485E+02 -0.12728560994E+02 -0.12243208205E+01  0.20179251010E+02  0.00000000000E+00 0. -1.
</event>
<event>
 7    1  0.5753610E-013  0.5052886E+02  0.7816164E-02  0.1300439E+00
        -11   -1    0    0    0    0  0.00000000000E+00  0.00000000000E+00  0.45593999997E+02  0.45594000000E+02  0.51100000000E-03 0. -1.
         11   -1    0    0    0    0 -0.00000000000E+00 -0.00000000000E+00 -0.45593999997E+02  0.45594000000E+02  0.51100000000E-03 0.  1.
    9900012    2    1    2    0    0 -0.38391995182E+02 -0.42963507420E+01  0.12679185901E+02  0.50528859836E+02  0.29999999956E+02 0.  0.
        -12    1    1    2    0    0  0.38391995182E+02  0.42963507420E+01 -0.12679185901E+02  0.40659140164E+02  0.00000000000E+00 0.  1.
         11    1    3    3    0    0 -0.41469725898E+01  0.19962015415E+00  0.82991973530E+01  0.92797579080E+01  0.51100000000E-03 0. -1.
        -11    1    3    3    0    0  0.58855168025E+00  0.43707503723E+01 -0.18253851577E+01  0.47730370973E+01  0.51100000000E-03 0.  1.
        -12    1    3    3    0    0 -0.34833574273E+02 -0.88667212685E+01  0.62053737062E+01  0.36476064830E+02  0.00000000000E+00 0.  1.
</event>
<event>
 7    1  0.5753610E-013  0.5052887E+02  0.7816164E-02  0.1300439E+00
        -11   -1    0    0    0    0  0.00000000000E+00  0.00000000000E+00  0.45593999997E+02  0.45594000000E+02  0.51100000000E-03 0.  1.
         11   -1    0    0    0    0 -0.00000000000E+00 -0.00000000000E+00 -0.45593999997E+02  0.45594000000E+02  0.51100000000E-03 0. -1.
    9900012    2    1    2    0    0  0.38415137396E+02  0.32844658946E+01  0.12909482948E+02  0.50528865143E+02  0.30000016088E+02 0.  0.
        -12    1    1    2    0    0 -0.38415137396E+02 -0.32844658946E+01 -0.12909482948E+02  0.40659134857E+02  0.00000000000E+00 0.  1.
         11    1    3    3    0    0  0.28357825149E+00 -0.44443894782E+01  0.28763439861E+01  0.53015440625E+01  0.51100000000E-03 0. -1.
        -11    1    3    3    0    0  0.35360355042E+02  0.10904281645E+02  0.13880035832E+02  0.39521050870E+02  0.51100000000E-03 0.  1.
         12    1    3    3    0    0  0.27712041023E+01 -0.31754262721E+01 -0.38468968703E+01  0.57062702106E+01  0.00000000000E+00 0. -1.
</event>
<event>
 7    1  0.5753610E-013  0.5052886E+02  0.7816164E-02  0.1300439E+00
        -11   -1    0    0    0    0  0.00000000000E+00  0.00000000000E+00  0.45593999997E+02  0.45594000000E+02  0.51100000000E-03 0.  1.
         11   -1    0    0    0    0 -0.00000000000E+00 -0.00000000000E+00 -0.45593999997E+02  0.45594000000E+02  0.51100000000E-03 0. -1.
    9900012    2    1    2    0    0 -0.38720839260E+01  0.11231067237E+02 -0.38884907713E+02  0.50528856465E+02  0.29999989710E+02 0.  0.
        -12    1    1    2    0    0  0.38720839260E+01 -0.11231067237E+02  0.38884907713E+02  0.40659143535E+02  0.00000000000E+00 0.  1.
         11    1    3    3    0    0  0.14015556587E+01 -0.49160460380E+01 -0.13625820344E+02  0.14553173098E+02  0.51100000000E-03 0. -1.
        -11    1    3    3    0    0  0.53919305147E+01  0.51265183911E+01 -0.13364251520E+01  0.75591095995E+01  0.51100000000E-03 0.  1.
         12    1    3    3    0    0 -0.10665570099E+02  0.11020594883E+02 -0.23922662217E+02  0.28416573767E+02  0.00000000000E+00 0. -1.
</event>
<event>
 7    1  0.5753610E-013  0.5052889E+02  0.7816164E-02  0.1300439E+00
        -11   -1    0    0    0    0  0.00000000000E+00  0.00000000000E+00  0.45593999997E+02  0.45594000000E+02  0.51100000000E-03 0.  1.
         11   -1    0    0    0    0 -0.00000000000E+00 -0.00000000000E+00 -0.45593999997E+02  0.45594000000E+02  0.51100000000E-03 0. -1.
    9900012    2    1    2    0    0 -0.24750953429E+02  0.21016923240E+02 -0.24471252076E+02  0.50528893562E+02  0.30000102472E+02 0.  0.
        -12    1    1    2    0    0  0.24750953429E+02 -0.21016923240E+02  0.24471252076E+02  0.40659106438E+02  0.00000000000E+00 0.  1.
         11    1    3    3    0    0 -0.11140436151E+02 -0.31427958327E+01 -0.10673120205E+02  0.15744903253E+02  0.51100000000E-03 0. -1.
        -11    1    3    3    0    0  0.16764624053E+01  0.23613458224E+01 -0.65943198297E+01  0.72021895675E+01  0.51100000000E-03 0.  1.
         12    1    3    3    0    0 -0.15286979684E+02  0.21798373251E+02 -0.72038120408E+01  0.27581800742E+02  0.00000000000E+00 0. -1.
</event>
<event>
 7    1  0.5753610E-013  0.5052885E+02  0.7816164E-02  0.1300439E+00
        -11   -1    0    0    0    0  0.00000000000E+00  0.00000000000E+00  0.45593999997E+02  0.45594000000E+02  0.51100000000E-03 0.  1.
         11   -1    0    0    0    0 -0.00000000000E+00 -0.00000000000E+00 -0.45593999997E+02  0.45594000000E+02  0.51100000000E-03 0. -1.
    9900012    2    1    2    0    0  0.15376330881E+02  0.17387756212E+01 -0.37599352666E+02  0.50528853268E+02  0.29999979994E+02 0.  0.
        -12    1    1    2    0    0 -0.15376330881E+02 -0.17387756212E+01  0.37599352666E+02  0.40659146732E+02  0.00000000000E+00 0.  1.
         11    1    3    3    0    0 -0.70306606617E+01  0.12623986778E+01 -0.56844319419E+01  0.91288885700E+01  0.51100000000E-03 0. -1.
        -11    1    3    3    0    0  0.58186436604E+01  0.61056014873E+01 -0.70988316765E+01  0.11023991791E+02  0.51100000000E-03 0.  1.
         12    1    3    3    0    0  0.16588347883E+02 -0.56292245439E+01 -0.24816089048E+02  0.30375972908E+02  0.00000000000E+00 0. -1.
</event>
<event>
 7    1  0.5753610E-013  0.5052885E+02  0.7816164E-02  0.1300439E+00
        -11   -1    0    0    0    0  0.00000000000E+00  0.00000000000E+00  0.45593999997E+02  0.45594000000E+02  0.51100000000E-03 0.  1.
         11   -1    0    0    0    0 -0.00000000000E+00 -0.00000000000E+00 -0.45593999997E+02  0.45594000000E+02  0.51100000000E-03 0. -1.
    9900012    2    1    2    0    0  0.35579056720E+02 -0.14913025154E+02 -0.12841291213E+02  0.50528851505E+02  0.29999974635E+02 0.  0.
        -12    1    1    2    0    0 -0.35579056720E+02  0.14913025154E+02  0.12841291213E+02  0.40659148495E+02  0.00000000000E+00 0.  1.
         11    1    3    3    0    0  0.65639181476E+01 -0.13003720318E+01  0.64796306322E+01  0.93145908263E+01  0.51100000000E-03 0. -1.
        -11    1    3    3    0    0  0.38218175265E+01  0.31461045286E+01  0.60112850198E+00  0.49865437577E+01  0.51100000000E-03 0.  1.
         12    1    3    3    0    0  0.25193321046E+02 -0.16758757651E+02 -0.19922050347E+02  0.36227716921E+02  0.00000000000E+00 0. -1.
</event>
<event>
 7    1  0.5753610E-013  0.5052885E+02  0.7816164E-02  0.1300439E+00
        -11   -1    0    0    0    0  0.00000000000E+00  0.00000000000E+00  0.45593999997E+02  0.45594000000E+02  0.51100000000E-03 0. -1.
         11   -1    0    0    0    0 -0.00000000000E+00 -0.00000000000E+00 -0.45593999997E+02  0.45594000000E+02  0.51100000000E-03 0.  1.
    9900012    2    1    2    0    0 -0.94877795228E+01  0.33765233506E+02  0.20568359588E+02  0.50528851335E+02  0.29999974119E+02 0.  0.
        -12    1    1    2    0    0  0.94877795228E+01 -0.33765233506E+02 -0.20568359588E+02  0.40659148665E+02  0.00000000000E+00 0.  1.
         11    1    3    3    0    0 -0.58583113543E+01  0.13045081254E+02  0.16108745272E+01  0.14390582818E+02  0.51100000000E-03 0. -1.
        -11    1    3    3    0    0 -0.11860075973E+02  0.57812790714E+01  0.11579447534E+02  0.17554720027E+02  0.51100000000E-03 0.  1.
        -12    1    3    3    0    0  0.82306078041E+01  0.14938873181E+02  0.73780375273E+01  0.18583548490E+02  0.00000000000E+00 0.  1.
</event>
<event>
 7    1  0.5753610E-013  0.5052886E+02  0.7816164E-02  0.1300439E+00
        -11   -1    0    0    0    0  0.00000000000E+00  0.00000000000E+00  0.45593999997E+02  0.45594000000E+02  0.51100000000E-03 0.  1.
         11   -1    0    0    0    0 -0.00000000000E+00 -0.00000000000E+00 -0.45593999997E+02  0.45594000000E+02  0.51100000000E-03 0. -1.
    9900012    2    1    2    0    0  0.18828702974E+02  0.32855410334E+02  0.14804308987E+02  0.50528860702E+02  0.30000002590E+02 0.  0.
        -12    1    1    2    0    0 -0.18828702974E+02 -0.32855410334E+02 -0.14804308987E+02  0.40659139298E+02  0.00000000000E+00 0.  1.
         11    1    3    3    0    0 -0.30927132487E+01 -0.77811204837E+00 -0.56014322043E+00  0.32379151143E+01  0.51100000000E-03 0.  1.
        -11    1    3    3    0    0  0.14928665648E+02  0.68477489075E+01  0.19849129574E+01  0.16543778372E+02  0.51100000000E-03 0. -1.
         12    1    3    3    0    0  0.69927505751E+01  0.26785773475E+02  0.13379539250E+02  0.30747167216E+02  0.00000000000E+00 0. -1.
</event>
<event>
 7    1  0.5753610E-013  0.5052887E+02  0.7816164E-02  0.1300439E+00
        -11   -1    0    0    0    0  0.00000000000E+00  0.00000000000E+00  0.45593999997E+02  0.45594000000E+02  0.51100000000E-03 0.  1.
         11   -1    0    0    0    0 -0.00000000000E+00 -0.00000000000E+00 -0.45593999997E+02  0.45594000000E+02  0.51100000000E-03 0. -1.
    9900012    2    1    2    0    0  0.15186230423E+02  0.27924569888E+02 -0.25352746840E+02  0.50528868551E+02  0.30000026447E+02 0.  0.
        -12    1    1    2    0    0 -0.15186230423E+02 -0.27924569888E+02  0.25352746840E+02  0.40659131449E+02  0.00000000000E+00 0.  1.
         11    1    3    3    0    0  0.48170981167E+01  0.45663672873E+01 -0.62389891651E+00  0.66667379270E+01  0.51100000000E-03 0. -1.
        -11    1    3    3    0    0 -0.52061623567E+01  0.19371267908E+02 -0.12179954016E+02  0.23467028507E+02  0.51100000000E-03 0.  1.
         12    1    3    3    0    0  0.15575294663E+02  0.39869346932E+01 -0.12548893907E+02  0.20395102117E+02  0.00000000000E+00 0. -1.
</event>
<event>
 7    1  0.5753610E-013  0.5052885E+02  0.7816164E-02  0.1300439E+00
        -11   -1    0    0    0    0  0.00000000000E+00  0.00000000000E+00  0.45593999997E+02  0.45594000000E+02  0.51100000000E-03 0.  1.
         11   -1    0    0    0    0 -0.00000000000E+00 -0.00000000000E+00 -0.45593999997E+02  0.45594000000E+02  0.51100000000E-03 0. -1.
    9900012    2    1    2    0    0 -0.44099617535E+00  0.19610492881E+02 -0.35614614261E+02  0.50528847800E+02  0.29999963374E+02 0.  0.
        -12    1    1    2    0    0  0.44099617535E+00 -0.19610492881E+02  0.35614614261E+02  0.40659152200E+02  0.00000000000E+00 0.  1.
         11    1    3    3    0    0 -0.26531055565E+01  0.84588451363E+01 -0.54845437986E+01  0.10424550402E+02  0.51100000000E-03 0. -1.
        -11    1    3    3    0    0  0.70707699379E+01  0.71406387796E+01 -0.77302512595E+00  0.10078793470E+02  0.51100000000E-03 0.  1.
         12    1    3    3    0    0 -0.48586605568E+01  0.40110089648E+01 -0.29357045336E+02  0.30025503929E+02  0.00000000000E+00 0. -1.
</event>
<event>
 7    1  0.5753610E-013  0.5052885E+02  0.7816164E-02  0.1300439E+00
        -11   -1    0    0    0    0  0.00000000000E+00  0.00000000000E+00  0.45593999997E+02  0.45594000000E+02  0.51100000000E-03 0.  1.
         11   -1    0    0    0    0 -0.00000000000E+00 -0.00000000000E+00 -0.45593999997E+02  0.45594000000E+02  0.51100000000E-03 0. -1.
    9900012    2    1    2    0    0 -0.15550391440E+02  0.11875239830E+01 -0.37549193074E+02  0.50528846201E+02  0.29999958513E+02 0.  0.
        -12    1    1    2    0    0  0.15550391440E+02 -0.11875239830E+01  0.37549193074E+02  0.40659153799E+02  0.00000000000E+00 0.  1.
         11    1    3    3    0    0 -0.59038964879E+01  0.16547189371E+01 -0.38327618926E+01  0.72307781385E+01  0.51100000000E-03 0.  1.
        -11    1    3    3    0    0  0.38905044057E+01 -0.97665649735E+01 -0.10486598784E+02  0.14848924885E+02  0.51100000000E-03 0. -1.
         12    1    3    3    0    0 -0.13536999358E+02  0.92993700193E+01 -0.23229832397E+02  0.28449143178E+02  0.00000000000E+00 0. -1.
</event>
<event>
 7    1  0.5753610E-013  0.5052881E+02  0.7816164E-02  0.1300439E+00
        -11   -1    0    0    0    0  0.00000000000E+00  0.00000000000E+00  0.45593999997E+02  0.45594000000E+02  0.51100000000E-03 0.  1.
         11   -1    0    0    0    0 -0.00000000000E+00 -0.00000000000E+00 -0.45593999997E+02  0.45594000000E+02  0.51100000000E-03 0. -1.
    9900012    2    1    2    0    0 -0.62857486289E+00 -0.83294246636E+01 -0.39791901026E+02  0.50528809048E+02  0.29999845581E+02 0.  0.
        -12    1    1    2    0    0  0.62857486289E+00  0.83294246636E+01  0.39791901026E+02  0.40659190952E+02  0.00000000000E+00 0.  1.
         11    1    3    3    0    0  0.14932527543E+01  0.18057894472E+00 -0.31420212844E+02  0.31456194747E+02  0.51100000000E-03 0. -1.
        -11    1    3    3    0    0  0.10290510545E+01  0.37035966995E+01  0.15577090302E+00  0.38470559419E+01  0.51100000000E-03 0.  1.
        -12    1    3    3    0    0 -0.31508786717E+01 -0.12213600308E+02 -0.85274590856E+01  0.15225558359E+02  0.00000000000E+00 0.  1.
</event>
<event>
 7    1  0.5753610E-013  0.5052886E+02  0.7816164E-02  0.1300439E+00
        -11   -1    0    0    0    0  0.00000000000E+00  0.00000000000E+00  0.45593999997E+02  0.45594000000E+02  0.51100000000E-03 0.  1.
         11   -1    0    0    0    0 -0.00000000000E+00 -0.00000000000E+00 -0.45593999997E+02  0.45594000000E+02  0.51100000000E-03 0. -1.
    9900012    2    1    2    0    0  0.96635876179E+01 -0.23633411440E+02 -0.31642415488E+02  0.50528861792E+02  0.30000005902E+02 0.  0.
        -12    1    1    2    0    0 -0.96635876179E+01  0.23633411440E+02  0.31642415488E+02  0.40659138208E+02  0.00000000000E+00 0.  1.
         11    1    3    3    0    0 -0.60264871633E+00 -0.79148988911E+01 -0.67711088392E+01  0.10433442630E+02  0.51100000000E-03 0. -1.
        -11    1    3    3    0    0  0.88774666208E+01 -0.12645506002E+02 -0.46527552934E+00  0.15457513294E+02  0.51100000000E-03 0.  1.
         12    1    3    3    0    0  0.13887697134E+01 -0.30730065462E+01 -0.24406031120E+02  0.24637905868E+02  0.00000000000E+00 0. -1.
</event>
<event>
 7    1  0.5753610E-013  0.5052885E+02  0.7816164E-02  0.1300439E+00
        -11   -1    0    0    0    0  0.00000000000E+00  0.00000000000E+00  0.45593999997E+02  0.45594000000E+02  0.51100000000E-03 0.  1.
         11   -1    0    0    0    0 -0.00000000000E+00 -0.00000000000E+00 -0.45593999997E+02  0.45594000000E+02  0.51100000000E-03 0. -1.
    9900012    2    1    2    0    0 -0.18941126944E+02 -0.34760936245E+02  0.92777810098E+01  0.50528853440E+02  0.29999980516E+02 0.  0.
        -12    1    1    2    0    0  0.18941126944E+02  0.34760936245E+02 -0.92777810098E+01  0.40659146560E+02  0.00000000000E+00 0.  1.
         11    1    3    3    0    0 -0.42346029329E+01 -0.12123179488E+02  0.65332177476E+01  0.14407854708E+02  0.51100000000E-03 0. -1.
        -11    1    3    3    0    0 -0.65057340059E+01 -0.13491724113E+02  0.13219042454E+02  0.19977344122E+02  0.51100000000E-03 0.  1.
         12    1    3    3    0    0 -0.82007900055E+01 -0.91460326433E+01 -0.10474479191E+02  0.16143654610E+02  0.00000000000E+00 0. -1.
</event>
<event>
 7    1  0.5753610E-013  0.5052887E+02  0.7816164E-02  0.1300439E+00
        -11   -1    0    0    0    0  0.00000000000E+00  0.00000000000E+00  0.45593999997E+02  0.45594000000E+02  0.51100000000E-03 0. -1.
         11   -1    0    0    0    0 -0.00000000000E+00 -0.00000000000E+00 -0.45593999997E+02  0.45594000000E+02  0.51100000000E-03 0.  1.
    9900012    2    1    2    0    0 -0.28615929328E+02  0.28660993343E+02 -0.35834739763E+01  0.50528865276E+02  0.30000016494E+02 0.  0.
        -12    1    1    2    0    0  0.28615929328E+02 -0.28660993343E+02  0.35834739763E+01  0.40659134724E+02  0.00000000000E+00 0.  1.
         11    1    3    3    0    0 -0.22913383790E+02  0.16731736519E+02  0.36993469436E+01  0.28612223467E+02  0.51100000000E-03 0. -1.
        -11    1    3    3    0    0  0.55591181803E+00  0.12207228970E+02  0.11789497679E+00  0.12220449114E+02  0.51100000000E-03 0.  1.
        -12    1    3    3    0    0 -0.62584573566E+01 -0.27797214592E+00 -0.74007158966E+01  0.96961926951E+01  0.00000000000E+00 0.  1.
</event>
<event>
 7    1  0.5753610E-013  0.5052885E+02  0.7816164E-02  0.1300439E+00
        -11   -1    0    0    0    0  0.00000000000E+00  0.00000000000E+00  0.45593999997E+02  0.45594000000E+02  0.51100000000E-03 0.  1.
         11   -1    0    0    0    0 -0.00000000000E+00 -0.00000000000E+00 -0.45593999997E+02  0.45594000000E+02  0.51100000000E-03 0. -1.
    9900012    2    1    2    0    0  0.11061286079E+02 -0.39123371616E+02  0.41961671829E+00  0.50528851773E+02  0.29999975449E+02 0.  0.
        -12    1    1    2    0    0 -0.11061286079E+02  0.39123371616E+02 -0.41961671829E+00  0.40659148227E+02  0.00000000000E+00 0.  1.
         11    1    3    3    0    0  0.13624173349E+02 -0.25326580510E+02 -0.18062552535E+01  0.28815210186E+02  0.51100000000E-03 0. -1.
        -11    1    3    3    0    0 -0.31111709926E+01 -0.13156179690E+02 -0.50184239049E+01  0.14420437848E+02  0.51100000000E-03 0.  1.
        -12    1    3    3    0    0  0.54828372321E+00 -0.64061141677E+00  0.72442958767E+01  0.72932037390E+01  0.00000000000E+00 0.  1.
</event>
<event>
 7    1  0.5753610E-013  0.5052881E+02  0.7816164E-02  0.1300439E+00
        -11   -1    0    0    0    0  0.00000000000E+00  0.00000000000E+00  0.45593999997E+02  0.45594000000E+02  0.51100000000E-03 0.  1.
         11   -1    0    0    0    0 -0.00000000000E+00 -0.00000000000E+00 -0.45593999997E+02  0.45594000000E+02  0.51100000000E-03 0. -1.
    9900012    2    1    2    0    0  0.32219816681E+02 -0.98221375831E+00 -0.24780802195E+02  0.50528812990E+02  0.29999857565E+02 0.  0.
        -12    1    1    2    0    0 -0.32219816681E+02  0.98221375831E+00  0.24780802195E+02  0.40659187010E+02  0.00000000000E+00 0.  1.
         11    1    3    3    0    0  0.27323800762E+02 -0.38087435077E+01 -0.18651390212E+02  0.33301215778E+02  0.51100000000E-03 0. -1.
        -11    1    3    3    0    0  0.83974285940E+01  0.59487799343E+01 -0.70135564617E+01  0.12453704838E+02  0.51100000000E-03 0.  1.
        -12    1    3    3    0    0 -0.35014126749E+01 -0.31222501850E+01  0.88414447858E+00  0.47738923738E+01  0.00000000000E+00 0.  1.
</event>
<event>
 7    1  0.5753610E-013  0.5052887E+02  0.7816164E-02  0.1300439E+00
        -11   -1    0    0    0    0  0.00000000000E+00  0.00000000000E+00  0.45593999997E+02  0.45594000000E+02  0.51100000000E-03 0. -1.
         11   -1    0    0    0    0 -0.00000000000E+00 -0.00000000000E+00 -0.45593999997E+02  0.45594000000E+02  0.51100000000E-03 0.  1.
    9900012    2    1    2    0    0  0.21395689920E+02  0.22966000221E+02  0.25844762341E+02  0.50528874902E+02  0.30000045751E+02 0.  0.
        -12    1    1    2    0    0 -0.21395689920E+02 -0.22966000221E+02 -0.25844762341E+02  0.40659125098E+02  0.00000000000E+00 0.  1.
         11    1    3    3    0    0  0.90897793034E+01  0.15135847533E+02  0.34446377062E+01  0.17988426766E+02  0.51100000000E-03 0. -1.
        -11    1    3    3    0    0  0.90219992330E+01  0.12826170224E+02  0.95318018812E+01  0.18351086075E+02  0.51100000000E-03 0.  1.
        -12    1    3    3    0    0  0.32839113840E+01 -0.49960175363E+01  0.12868322753E+02  0.14189362061E+02  0.00000000000E+00 0.  1.
</event>
<event>
 7    1  0.5753610E-013  0.5052888E+02  0.7816164E-02  0.1300439E+00
        -11   -1    0    0    0    0  0.00000000000E+00  0.00000000000E+00  0.45593999997E+02  0.45594000000E+02  0.51100000000E-03 0.  1.
         11   -1    0    0    0    0 -0.00000000000E+00 -0.00000000000E+00 -0.45593999997E+02  0.45594000000E+02  0.51100000000E-03 0. -1.
    9900012    2    1    2    0    0 -0.73667978261E+01  0.30619959119E+02 -0.25716002002E+02  0.50528875985E+02  0.30000049044E+02 0.  0.
        -12    1    1    2    0    0  0.73667978261E+01 -0.30619959119E+02  0.25716002002E+02  0.40659124015E+02  0.00000000000E+00 0.  1.
         11    1    3    3    0    0  0.39535102305E+01  0.23925447561E+02 -0.67445818910E+01  0.25170352982E+02  0.51100000000E-03 0. -1.
        -11    1    3    3    0    0 -0.62751632985E+00 -0.13040984954E+01  0.68037530785E+00  0.15991749281E+01  0.51100000000E-03 0.  1.
        -12    1    3    3    0    0 -0.10692791727E+02  0.79986100543E+01 -0.19651795419E+02  0.23759348074E+02  0.00000000000E+00 0.  1.
</event>
<event>
 7    1  0.5753610E-013  0.5052886E+02  0.7816164E-02  0.1300439E+00
        -11   -1    0    0    0    0  0.00000000000E+00  0.00000000000E+00  0.45593999997E+02  0.45594000000E+02  0.51100000000E-03 0.  1.
         11   -1    0    0    0    0 -0.00000000000E+00 -0.00000000000E+00 -0.45593999997E+02  0.45594000000E+02  0.51100000000E-03 0. -1.
    9900012    2    1    2    0    0 -0.27130540462E+02 -0.11345361199E+02 -0.28078141211E+02  0.50528862523E+02  0.30000008124E+02 0.  0.
        -12    1    1    2    0    0  0.27130540462E+02  0.11345361199E+02  0.28078141211E+02  0.40659137477E+02  0.00000000000E+00 0.  1.
         11    1    3    3    0    0 -0.21864598267E+01 -0.75346599839E+01 -0.71205460937E+01  0.10594993373E+02  0.51100000000E-03 0. -1.
        -11    1    3    3    0    0 -0.75693752814E+01  0.72153337174E+01 -0.15406434639E+02  0.18620276887E+02  0.51100000000E-03 0.  1.
         12    1    3    3    0    0 -0.17374705354E+02 -0.11026034933E+02 -0.55511604789E+01  0.21313592263E+02  0.00000000000E+00 0. -1.
</event>
<event>
 7    1  0.5753610E-013  0.5052886E+02  0.7816164E-02  0.1300439E+00
        -11   -1    0    0    0    0  0.00000000000E+00  0.00000000000E+00  0.45593999997E+02  0.45594000000E+02  0.51100000000E-03 0.  1.
         11   -1    0    0    0    0 -0.00000000000E+00 -0.00000000000E+00 -0.45593999997E+02  0.45594000000E+02  0.51100000000E-03 0. -1.
    9900012    2    1    2    0    0  0.21391815220E+02 -0.33346829340E+02 -0.91403046566E+01  0.50528856445E+02  0.29999989649E+02 0.  0.
        -12    1    1    2    0    0 -0.21391815220E+02  0.33346829340E+02  0.91403046566E+01  0.40659143555E+02  0.00000000000E+00 0.  1.
         11    1    3    3    0    0  0.15765251142E+01 -0.20491821477E+02 -0.46988194476E+01  0.21082672586E+02  0.51100000000E-03 0. -1.
        -11    1    3    3    0    0  0.11414718799E+02 -0.91367705902E+01  0.57628402074E+01  0.15715810816E+02  0.51100000000E-03 0.  1.
        -12    1    3    3    0    0  0.84005713061E+01 -0.37182372727E+01 -0.10204325416E+02  0.13730373043E+02  0.00000000000E+00 0.  1.
</event>
<event>
 7    1  0.5753610E-013  0.5052886E+02  0.7816164E-02  0.1300439E+00
        -11   -1    0    0    0    0  0.00000000000E+00  0.00000000000E+00  0.45593999997E+02  0.45594000000E+02  0.51100000000E-03 0.  1.
         11   -1    0    0    0    0 -0.00000000000E+00 -0.00000000000E+00 -0.45593999997E+02  0.45594000000E+02  0.51100000000E-03 0. -1.
    9900012    2    1    2    0    0 -0.23212000130E+02 -0.11929743329E+02 -0.31177717850E+02  0.50528858147E+02  0.29999994823E+02 0.  0.
        -12    1    1    2    0    0  0.23212000130E+02  0.11929743329E+02  0.31177717850E+02  0.40659141853E+02  0.00000000000E+00 0.  1.
         11    1    3    3    0    0 -0.17723628641E+01 -0.51787497237E+01  0.71168405087E+00  0.55197113395E+01  0.51100000000E-03 0.  1.
        -11    1    3    3    0    0 -0.42064189229E+01 -0.12301652029E+02 -0.17929856638E+02  0.22147333071E+02  0.51100000000E-03 0. -1.
        -12    1    3    3    0    0 -0.17233218343E+02  0.55506584241E+01 -0.13959545262E+02  0.22861813736E+02  0.00000000000E+00 0.  1.
</event>
<event>
 7    1  0.5753610E-013  0.5052885E+02  0.7816164E-02  0.1300439E+00
        -11   -1    0    0    0    0  0.00000000000E+00  0.00000000000E+00  0.45593999997E+02  0.45594000000E+02  0.51100000000E-03 0. -1.
         11   -1    0    0    0    0 -0.00000000000E+00 -0.00000000000E+00 -0.45593999997E+02  0.45594000000E+02  0.51100000000E-03 0.  1.
    9900012    2    1    2    0    0  0.96970758246E+01 -0.19673573931E+01  0.39436819260E+02  0.50528849886E+02  0.29999969713E+02 0.  0.
        -12    1    1    2    0    0 -0.96970758246E+01  0.19673573931E+01 -0.39436819260E+02  0.40659150114E+02  0.00000000000E+00 0.  1.
         11    1    3    3    0    0  0.47510442318E+01  0.11578582044E+01  0.25205412439E+02  0.25675394318E+02  0.51100000000E-03 0. -1.
        -11    1    3    3    0    0  0.90032545864E+01  0.47654244064E+01  0.31601445945E+01  0.10665569701E+02  0.51100000000E-03 0.  1.
        -12    1    3    3    0    0 -0.40572229937E+01 -0.78906400039E+01  0.11071262227E+02  0.14187885867E+02  0.00000000000E+00 0.  1.
</event>
<event>
 7    1  0.5753610E-013  0.5052886E+02  0.7816164E-02  0.1300439E+00
        -11   -1    0    0    0    0  0.00000000000E+00  0.00000000000E+00  0.45593999997E+02  0.45594000000E+02  0.51100000000E-03 0.  1.
         11   -1    0    0    0    0 -0.00000000000E+00 -0.00000000000E+00 -0.45593999997E+02  0.45594000000E+02  0.51100000000E-03 0. -1.
    9900012    2    1    2    0    0  0.95572293779E+01 -0.30394992727E+02 -0.25258056560E+02  0.50528860346E+02  0.30000001508E+02 0.  0.
        -12    1    1    2    0    0 -0.95572293779E+01  0.30394992727E+02  0.25258056560E+02  0.40659139654E+02  0.00000000000E+00 0.  1.
         11    1    3    3    0    0  0.80787333557E+01 -0.80030016437E+01 -0.15289148473E+02  0.19054449067E+02  0.51100000000E-03 0. -1.
        -11    1    3    3    0    0 -0.17597770101E+01 -0.14993773474E+02 -0.15538180313E+02  0.21664374116E+02  0.51100000000E-03 0.  1.
         12    1    3    3    0    0  0.32382730322E+01 -0.73982176087E+01  0.55692722265E+01  0.98100371635E+01  0.00000000000E+00 0. -1.
</event>
<event>
 7    1  0.5753610E-013  0.5052886E+02  0.7816164E-02  0.1300439E+00
        -11   -1    0    0    0    0  0.00000000000E+00  0.00000000000E+00  0.45593999997E+02  0.45594000000E+02  0.51100000000E-03 0. -1.
         11   -1    0    0    0    0 -0.00000000000E+00 -0.00000000000E+00 -0.45593999997E+02  0.45594000000E+02  0.51100000000E-03 0.  1.
    9900012    2    1    2    0    0 -0.14626424198E+02 -0.33870274534E+02  0.17089127456E+02  0.50528855161E+02  0.29999985748E+02 0.  0.
        -12    1    1    2    0    0  0.14626424198E+02  0.33870274534E+02 -0.17089127456E+02  0.40659144839E+02  0.00000000000E+00 0.  1.
         11    1    3    3    0    0 -0.13667896526E+02 -0.61707323437E+01  0.28655971567E+01  0.15267644888E+02  0.51100000000E-03 0. -1.
        -11    1    3    3    0    0 -0.15376530428E-02 -0.12391019541E+02 -0.24228252804E+01  0.12625666328E+02  0.51100000000E-03 0.  1.
         12    1    3    3    0    0 -0.95699001845E+00 -0.15308522649E+02  0.16646355579E+02  0.22635543945E+02  0.00000000000E+00 0. -1.
</event>
<event>
 7    1  0.5753610E-013  0.5052886E+02  0.7816164E-02  0.1300439E+00
        -11   -1    0    0    0    0  0.00000000000E+00  0.00000000000E+00  0.45593999997E+02  0.45594000000E+02  0.51100000000E-03 0. -1.
         11   -1    0    0    0    0 -0.00000000000E+00 -0.00000000000E+00 -0.45593999997E+02  0.45594000000E+02  0.51100000000E-03 0.  1.
    9900012    2    1    2    0    0  0.15463193778E+02 -0.35476521494E+02  0.12468825224E+02  0.50528861524E+02  0.30000005087E+02 0.  0.
        -12    1    1    2    0    0 -0.15463193778E+02  0.35476521494E+02 -0.12468825224E+02  0.40659138476E+02  0.00000000000E+00 0.  1.
         11    1    3    3    0    0 -0.23186488321E+01 -0.10536317930E+02  0.10183268339E+02  0.14835399632E+02  0.51100000000E-03 0. -1.
        -11    1    3    3    0    0 -0.89585509836E-01  0.23892849278E+01 -0.14971390170E+01  0.28210163997E+01  0.51100000000E-03 0.  1.
         12    1    3    3    0    0  0.17871428120E+02 -0.27329488493E+02  0.37826959025E+01  0.32872445492E+02  0.00000000000E+00 0. -1.
</event>
<event>
 7    1  0.5753610E-013  0.5052888E+02  0.7816164E-02  0.1300439E+00
        -11   -1    0    0    0    0  0.00000000000E+00  0.00000000000E+00  0.45593999997E+02  0.45594000000E+02  0.51100000000E-03 0. -1.
         11   -1    0    0    0    0 -0.00000000000E+00 -0.00000000000E+00 -0.45593999997E+02  0.45594000000E+02  0.51100000000E-03 0.  1.
    9900012    2    1    2    0    0  0.42727036674E+01  0.38397688499E+02  0.12669852964E+02  0.50528884751E+02  0.30000075688E+02 0.  0.
        -12    1    1    2    0    0 -0.42727036674E+01 -0.38397688499E+02 -0.12669852964E+02  0.40659115249E+02  0.00000000000E+00 0.  1.
         11    1    3    3    0    0  0.89019100712E+01  0.23574801207E+02  0.10308275037E+02  0.27226380394E+02  0.51100000000E-03 0. -1.
        -11    1    3    3    0    0  0.23213295462E+01 -0.31497034459E+01  0.37819282404E+00  0.39309328069E+01  0.51100000000E-03 0.  1.
         12    1    3    3    0    0 -0.69505359500E+01  0.17972590738E+02  0.19833851035E+01  0.19371571549E+02  0.00000000000E+00 0. -1.
</event>
<event>
 7    1  0.1084688E-012  0.5052886E+02  0.7816164E-02  0.1300439E+00
        -11   -1    0    0    0    0  0.00000000000E+00  0.00000000000E+00  0.45593999997E+02  0.45594000000E+02  0.51100000000E-03 0. -1.
         11   -1    0    0    0    0 -0.00000000000E+00 -0.00000000000E+00 -0.45593999997E+02  0.45594000000E+02  0.51100000000E-03 0.  1.
    9900012    2    1    2    0    0  0.34421443605E+02 -0.19991899335E+02 -0.82857706241E+01  0.50528858178E+02  0.29999994917E+02 0.  0.
        -12    1    1    2    0    0 -0.34421443605E+02  0.19991899335E+02  0.82857706241E+01  0.40659141822E+02  0.00000000000E+00 0.  1.
         11    1    3    3    0    0  0.24611961229E+02 -0.13138669010E+02 -0.25403877518E+01  0.28014760914E+02  0.51100000000E-03 0. -1.
        -11    1    3    3    0    0  0.86176491178E+01 -0.12949809890E+02 -0.42280284103E+01  0.16119481288E+02  0.51100000000E-03 0.  1.
        -12    1    3    3    0    0  0.11918332582E+01  0.60965795650E+01 -0.15173544620E+01  0.63946159752E+01  0.00000000000E+00 0.  1.
</event>
<event>
 7    1  0.5753610E-013  0.5052888E+02  0.7816164E-02  0.1300439E+00
        -11   -1    0    0    0    0  0.00000000000E+00  0.00000000000E+00  0.45593999997E+02  0.45594000000E+02  0.51100000000E-03 0. -1.
         11   -1    0    0    0    0 -0.00000000000E+00 -0.00000000000E+00 -0.45593999997E+02  0.45594000000E+02  0.51100000000E-03 0.  1.
    9900012    2    1    2    0    0  0.16871132688E+02  0.36436518933E+02 -0.63960242684E+01  0.50528878556E+02  0.30000056858E+02 0.  0.
        -12    1    1    2    0    0 -0.16871132688E+02 -0.36436518933E+02  0.63960242684E+01  0.40659121444E+02  0.00000000000E+00 0.  1.
         11    1    3    3    0    0 -0.52057764008E+01  0.14726932225E+02 -0.22989998124E+01  0.15788224761E+02  0.51100000000E-03 0. -1.
        -11    1    3    3    0    0  0.19729156414E+01  0.32926247217E+00 -0.49935383143E+01  0.53792411232E+01  0.51100000000E-03 0.  1.
         12    1    3    3    0    0  0.20103993448E+02  0.21380324236E+02  0.89651385832E+00  0.29361412672E+02  0.00000000000E+00 0. -1.
</event>
<event>
 7    1  0.5753610E-013  0.5052886E+02  0.7816164E-02  0.1300439E+00
        -11   -1    0    0    0    0  0.00000000000E+00  0.00000000000E+00  0.45593999997E+02  0.45594000000E+02  0.51100000000E-03 0.  1.
         11   -1    0    0    0    0 -0.00000000000E+00 -0.00000000000E+00 -0.45593999997E+02  0.45594000000E+02  0.51100000000E-03 0. -1.
    9900012    2    1    2    0    0  0.36332146768E+02 -0.90312069353E+01 -0.15861222020E+02  0.50528856484E+02  0.29999989768E+02 0.  0.
        -12    1    1    2    0    0 -0.36332146768E+02  0.90312069353E+01  0.15861222020E+02  0.40659143516E+02  0.00000000000E+00 0.  1.
         11    1    3    3    0    0  0.27403727628E+02 -0.29811842811E+01 -0.82961373030E+01  0.28786761576E+02  0.51100000000E-03 0. -1.
        -11    1    3    3    0    0  0.30086202291E+01 -0.11188841502E+01  0.56193589178E+01  0.64715448180E+01  0.51100000000E-03 0.  1.
         12    1    3    3    0    0  0.59197989115E+01 -0.49311385040E+01 -0.13184443634E+02  0.15270550090E+02  0.00000000000E+00 0. -1.
</event>
<event>
 7    1  0.5753610E-013  0.5052887E+02  0.7816164E-02  0.1300439E+00
        -11   -1    0    0    0    0  0.00000000000E+00  0.00000000000E+00  0.45593999997E+02  0.45594000000E+02  0.51100000000E-03 0. -1.
         11   -1    0    0    0    0 -0.00000000000E+00 -0.00000000000E+00 -0.45593999997E+02  0.45594000000E+02  0.51100000000E-03 0.  1.
    9900012    2    1    2    0    0 -0.12678095119E+01  0.37003310633E+02  0.16802162646E+02  0.50528868081E+02  0.30000025020E+02 0.  0.
        -12    1    1    2    0    0  0.12678095119E+01 -0.37003310633E+02 -0.16802162646E+02  0.40659131919E+02  0.00000000000E+00 0.  1.
         11    1    3    3    0    0  0.35458067474E+01  0.11383146010E+01 -0.28585858609E+01  0.46946798619E+01  0.51100000000E-03 0. -1.
        -11    1    3    3    0    0 -0.75204968239E+01  0.12970074844E+02 -0.79402752939E+00  0.15013700207E+02  0.51100000000E-03 0.  1.
         12    1    3    3    0    0  0.27068805646E+01  0.22894921189E+02  0.20454776036E+02  0.30820488012E+02  0.00000000000E+00 0. -1.
</event>
<event>
 7    1  0.5753610E-013  0.5052886E+02  0.7816164E-02  0.1300439E+00
        -11   -1    0    0    0    0  0.00000000000E+00  0.00000000000E+00  0.45593999997E+02  0.45594000000E+02  0.51100000000E-03 0. -1.
         11   -1    0    0    0    0 -0.00000000000E+00 -0.00000000000E+00 -0.45593999997E+02  0.45594000000E+02  0.51100000000E-03 0.  1.
    9900012    2    1    2    0    0 -0.40353171316E+02 -0.49320201895E+01 -0.67996360182E+00  0.50528860697E+02  0.30000002574E+02 0.  0.
        -12    1    1    2    0    0  0.40353171316E+02  0.49320201895E+01  0.67996360182E+00  0.40659139303E+02  0.00000000000E+00 0.  1.
         11    1    3    3    0    0 -0.54901307496E+01  0.54175568759E+01 -0.37457293221E+01  0.85744939540E+01  0.51100000000E-03 0. -1.
        -11    1    3    3    0    0 -0.99963889684E+01 -0.70187202799E+01 -0.79289604170E+01  0.14562233357E+02  0.51100000000E-03 0.  1.
        -12    1    3    3    0    0 -0.24866651598E+02 -0.33308567855E+01  0.10994726137E+02  0.27392133386E+02  0.00000000000E+00 0.  1.
</event>
<event>
 7    1  0.5753610E-013  0.5052885E+02  0.7816164E-02  0.1300439E+00
        -11   -1    0    0    0    0  0.00000000000E+00  0.00000000000E+00  0.45593999997E+02  0.45594000000E+02  0.51100000000E-03 0.  1.
         11   -1    0    0    0    0 -0.00000000000E+00 -0.00000000000E+00 -0.45593999997E+02  0.45594000000E+02  0.51100000000E-03 0. -1.
    9900012    2    1    2    0    0  0.15002208422E+02  0.25308288652E+01 -0.37705369978E+02  0.50528852475E+02  0.29999977583E+02 0.  0.
        -12    1    1    2    0    0 -0.15002208422E+02 -0.25308288652E+01  0.37705369978E+02  0.40659147525E+02  0.00000000000E+00 0.  1.
         11    1    3    3    0    0  0.13969099604E+01 -0.35726887923E+00 -0.16832632532E+02  0.16894274672E+02  0.51100000000E-03 0. -1.
        -11    1    3    3    0    0  0.11815481274E+02  0.11203183626E+02 -0.18817926245E+02  0.24884357928E+02  0.51100000000E-03 0.  1.
        -12    1    3    3    0    0  0.17898171871E+01 -0.83150858812E+01 -0.20548112012E+01  0.87502198742E+01  0.00000000000E+00 0.  1.
</event>
<event>
 7    1  0.5753610E-013  0.5052886E+02  0.7816164E-02  0.1300439E+00
        -11   -1    0    0    0    0  0.00000000000E+00  0.00000000000E+00  0.45593999997E+02  0.45594000000E+02  0.51100000000E-03 0.  1.
         11   -1    0    0    0    0 -0.00000000000E+00 -0.00000000000E+00 -0.45593999997E+02  0.45594000000E+02  0.51100000000E-03 0. -1.
    9900012    2    1    2    0    0  0.29282301641E+02 -0.25181846127E+01 -0.28095757537E+02  0.50528855460E+02  0.29999986658E+02 0.  0.
        -12    1    1    2    0    0 -0.29282301641E+02  0.25181846127E+01  0.28095757537E+02  0.40659144540E+02  0.00000000000E+00 0.  1.
         11    1    3    3    0    0  0.12312655761E+01 -0.80553937883E+01 -0.19725663570E+01  0.83842949792E+01  0.51100000000E-03 0. -1.
        -11    1    3    3    0    0  0.10371994900E+02  0.13388097152E+01 -0.16598041339E+00  0.10459361329E+02  0.51100000000E-03 0.  1.
         12    1    3    3    0    0  0.17679041165E+02  0.41983994605E+01 -0.25957210767E+02  0.31685199152E+02  0.00000000000E+00 0. -1.
</event>
<event>
 7    1  0.5753610E-013  0.5052886E+02  0.7816164E-02  0.1300439E+00
        -11   -1    0    0    0    0  0.00000000000E+00  0.00000000000E+00  0.45593999997E+02  0.45594000000E+02  0.51100000000E-03 0.  1.
         11   -1    0    0    0    0 -0.00000000000E+00 -0.00000000000E+00 -0.45593999997E+02  0.45594000000E+02  0.51100000000E-03 0. -1.
    9900012    2    1    2    0    0 -0.34871728402E+02  0.29963609063E+01 -0.20691788045E+02  0.50528859417E+02  0.29999998684E+02 0.  0.
        -12    1    1    2    0    0  0.34871728402E+02 -0.29963609063E+01  0.20691788045E+02  0.40659140583E+02  0.00000000000E+00 0.  1.
         11    1    3    3    0    0 -0.28321432305E+00 -0.58557119278E+01 -0.62699832117E+01  0.85838372696E+01  0.51100000000E-03 0. -1.
        -11    1    3    3    0    0 -0.24602742687E+02  0.65684568007E+00 -0.15329328830E+02  0.28995080904E+02  0.51100000000E-03 0.  1.
        -12    1    3    3    0    0 -0.99857713922E+01  0.81952271541E+01  0.90752399756E+00  0.12949941244E+02  0.00000000000E+00 0.  1.
</event>
<event>
 7    1  0.5753610E-013  0.5052886E+02  0.7816164E-02  0.1300439E+00
        -11   -1    0    0    0    0  0.00000000000E+00  0.00000000000E+00  0.45593999997E+02  0.45594000000E+02  0.51100000000E-03 0.  1.
         11   -1    0    0    0    0 -0.00000000000E+00 -0.00000000000E+00 -0.45593999997E+02  0.45594000000E+02  0.51100000000E-03 0. -1.
    9900012    2    1    2    0    0  0.27144585857E+02 -0.91939131646E+01 -0.28841104437E+02  0.50528857292E+02  0.29999992225E+02 0.  0.
        -12    1    1    2    0    0 -0.27144585857E+02  0.91939131646E+01  0.28841104437E+02  0.40659142708E+02  0.00000000000E+00 0.  1.
         11    1    3    3    0    0  0.17678369361E+02 -0.11804905980E+02 -0.17451004956E+02  0.27503056607E+02  0.51100000000E-03 0. -1.
        -11    1    3    3    0    0  0.10613382887E+02 -0.26273968210E+01 -0.56865978900E+00  0.10948538011E+02  0.51100000000E-03 0.  1.
         12    1    3    3    0    0 -0.11471663921E+01  0.52383896360E+01 -0.10821439691E+02  0.12077262674E+02  0.00000000000E+00 0. -1.
</event>
<event>
 7    1  0.5753610E-013  0.5052886E+02  0.7816164E-02  0.1300439E+00
        -11   -1    0    0    0    0  0.00000000000E+00  0.00000000000E+00  0.45593999997E+02  0.45594000000E+02  0.51100000000E-03 0.  1.
         11   -1    0    0    0    0 -0.00000000000E+00 -0.00000000000E+00 -0.45593999997E+02  0.45594000000E+02  0.51100000000E-03 0. -1.
    9900012    2    1    2    0    0 -0.59065695522E+01  0.21322177266E+02 -0.34112204848E+02  0.50528864165E+02  0.30000013115E+02 0.  0.
        -12    1    1    2    0    0  0.59065695522E+01 -0.21322177266E+02  0.34112204848E+02  0.40659135835E+02  0.00000000000E+00 0.  1.
         11    1    3    3    0    0  0.34655217922E+01  0.17054456137E+02 -0.14905635331E+02  0.22913801088E+02  0.51100000000E-03 0. -1.
        -11    1    3    3    0    0 -0.42957683204E+01  0.35678131163E+01  0.18975201245E+01  0.58977537063E+01  0.51100000000E-03 0.  1.
        -12    1    3    3    0    0 -0.50763230240E+01  0.69990801284E+00 -0.21104089642E+02  0.21717309371E+02  0.00000000000E+00 0.  1.
</event>
<event>
 7    1  0.5753610E-013  0.5052887E+02  0.7816164E-02  0.1300439E+00
        -11   -1    0    0    0    0  0.00000000000E+00  0.00000000000E+00  0.45593999997E+02  0.45594000000E+02  0.51100000000E-03 0. -1.
         11   -1    0    0    0    0 -0.00000000000E+00 -0.00000000000E+00 -0.45593999997E+02  0.45594000000E+02  0.51100000000E-03 0.  1.
    9900012    2    1    2    0    0  0.13446174948E+02  0.29803115326E+02  0.24168982738E+02  0.50528867810E+02  0.30000024194E+02 0.  0.
        -12    1    1    2    0    0 -0.13446174948E+02 -0.29803115326E+02 -0.24168982738E+02  0.40659132190E+02  0.00000000000E+00 0.  1.
         11    1    3    3    0    0  0.23076247456E+01  0.81190373114E+01  0.69444154334E+01  0.10930178626E+02  0.51100000000E-03 0. -1.
        -11    1    3    3    0    0 -0.49127942091E+01  0.16432233819E+02  0.14566879663E+02  0.22502174086E+02  0.51100000000E-03 0.  1.
         12    1    3    3    0    0  0.16051344412E+02  0.52518441958E+01  0.26576876420E+01  0.17096515098E+02  0.00000000000E+00 0. -1.
</event>
<event>
 7    1  0.5753610E-013  0.5052886E+02  0.7816164E-02  0.1300439E+00
        -11   -1    0    0    0    0  0.00000000000E+00  0.00000000000E+00  0.45593999997E+02  0.45594000000E+02  0.51100000000E-03 0.  1.
         11   -1    0    0    0    0 -0.00000000000E+00 -0.00000000000E+00 -0.45593999997E+02  0.45594000000E+02  0.51100000000E-03 0. -1.
    9900012    2    1    2    0    0 -0.23184257134E+02 -0.31739669818E+02 -0.10404291520E+02  0.50528859564E+02  0.29999999130E+02 0.  0.
        -12    1    1    2    0    0  0.23184257134E+02  0.31739669818E+02  0.10404291520E+02  0.40659140436E+02  0.00000000000E+00 0.  1.
         11    1    3    3    0    0 -0.19775938245E+02 -0.19730311997E+02 -0.83308066416E+01  0.29150905381E+02  0.51100000000E-03 0. -1.
        -11    1    3    3    0    0 -0.56802509783E+01 -0.51165195378E+01 -0.86779802509E+01  0.11565092514E+02  0.51100000000E-03 0.  1.
         12    1    3    3    0    0  0.22719320893E+01 -0.68928382825E+01  0.66044953726E+01  0.98128616689E+01  0.00000000000E+00 0. -1.
</event>
<event>
 7    1  0.5753610E-013  0.5052885E+02  0.7816164E-02  0.1300439E+00
        -11   -1    0    0    0    0  0.00000000000E+00  0.00000000000E+00  0.45593999997E+02  0.45594000000E+02  0.51100000000E-03 0.  1.
         11   -1    0    0    0    0 -0.00000000000E+00 -0.00000000000E+00 -0.45593999997E+02  0.45594000000E+02  0.51100000000E-03 0. -1.
    9900012    2    1    2    0    0 -0.13927360794E+02 -0.70009737719E+01 -0.37552380509E+02  0.50528852267E+02  0.29999976952E+02 0.  0.
        -12    1    1    2    0    0  0.13927360794E+02  0.70009737719E+01  0.37552380509E+02  0.40659147733E+02  0.00000000000E+00 0.  1.
         11    1    3    3    0    0 -0.44405068159E+01 -0.14207973011E+01 -0.17429693165E+00  0.46655273479E+01  0.51100000000E-03 0. -1.
        -11    1    3    3    0    0  0.34000284079E+01  0.73834412119E+01 -0.92107954382E+01  0.12284712051E+02  0.51100000000E-03 0.  1.
         12    1    3    3    0    0 -0.12886882386E+02 -0.12963617683E+02 -0.28167288139E+02  0.33578612869E+02  0.00000000000E+00 0. -1.
</event>
<event>
 7    1  0.5753610E-013  0.5052887E+02  0.7816164E-02  0.1300439E+00
        -11   -1    0    0    0    0  0.00000000000E+00  0.00000000000E+00  0.45593999997E+02  0.45594000000E+02  0.51100000000E-03 0.  1.
         11   -1    0    0    0    0 -0.00000000000E+00 -0.00000000000E+00 -0.45593999997E+02  0.45594000000E+02  0.51100000000E-03 0. -1.
    9900012    2    1    2    0    0 -0.88341613325E+01  0.27429962890E+02 -0.28683095512E+02  0.50528865249E+02  0.30000016410E+02 0.  0.
        -12    1    1    2    0    0  0.88341613325E+01 -0.27429962890E+02  0.28683095512E+02  0.40659134751E+02  0.00000000000E+00 0.  1.
         11    1    3    3    0    0 -0.50495788383E+01  0.14615387644E+02 -0.24632277134E+01  0.15658074385E+02  0.51100000000E-03 0. -1.
        -11    1    3    3    0    0 -0.55422959944E+01 -0.17355313213E+01 -0.12856130488E+01  0.59482699190E+01  0.51100000000E-03 0.  1.
         12    1    3    3    0    0  0.17577135003E+01  0.14550106567E+02 -0.24934254750E+02  0.28922520944E+02  0.00000000000E+00 0. -1.
</event>
<event>
 7    1  0.5753610E-013  0.5052886E+02  0.7816164E-02  0.1300439E+00
        -11   -1    0    0    0    0  0.00000000000E+00  0.00000000000E+00  0.45593999997E+02  0.45594000000E+02  0.51100000000E-03 0.  1.
         11   -1    0    0    0    0 -0.00000000000E+00 -0.00000000000E+00 -0.45593999997E+02  0.45594000000E+02  0.51100000000E-03 0. -1.
    9900012    2    1    2    0    0 -0.11901309901E+02  0.95003690088E+01 -0.37699699876E+02  0.50528861306E+02  0.30000004424E+02 0.  0.
        -12    1    1    2    0    0  0.11901309901E+02 -0.95003690088E+01  0.37699699876E+02  0.40659138694E+02  0.00000000000E+00 0.  1.
         11    1    3    3    0    0 -0.37684409581E+01  0.56064045947E+01 -0.14271124697E+02  0.15789170976E+02  0.51100000000E-03 0. -1.
        -11    1    3    3    0    0  0.70725073741E+01  0.45125976617E+00 -0.15939526439E+02  0.17443981750E+02  0.51100000000E-03 0.  1.
        -12    1    3    3    0    0 -0.15205376317E+02  0.34427046479E+01 -0.74890487394E+01  0.17295708579E+02  0.00000000000E+00 0.  1.
</event>
<event>
 7    1  0.5753610E-013  0.5052886E+02  0.7816164E-02  0.1300439E+00
        -11   -1    0    0    0    0  0.00000000000E+00  0.00000000000E+00  0.45593999997E+02  0.45594000000E+02  0.51100000000E-03 0.  1.
         11   -1    0    0    0    0 -0.00000000000E+00 -0.00000000000E+00 -0.45593999997E+02  0.45594000000E+02  0.51100000000E-03 0. -1.
    9900012    2    1    2    0    0 -0.22732531161E+02  0.25280110229E+02 -0.22300524352E+02  0.50528864095E+02  0.30000012903E+02 0.  0.
        -12    1    1    2    0    0  0.22732531161E+02 -0.25280110229E+02  0.22300524352E+02  0.40659135905E+02  0.00000000000E+00 0.  1.
         11    1    3    3    0    0 -0.95027085502E+01  0.90000471465E+01  0.16866734979E+00  0.13089337927E+02  0.51100000000E-03 0. -1.
        -11    1    3    3    0    0 -0.18215403224E+01  0.17200007618E+02 -0.81835859758E+01  0.19134506811E+02  0.51100000000E-03 0.  1.
        -12    1    3    3    0    0 -0.11408282288E+02 -0.91994453528E+00 -0.14285605726E+02  0.18305019357E+02  0.00000000000E+00 0.  1.
</event>
<event>
 7    1  0.5753610E-013  0.5052887E+02  0.7816164E-02  0.1300439E+00
        -11   -1    0    0    0    0  0.00000000000E+00  0.00000000000E+00  0.45593999997E+02  0.45594000000E+02  0.51100000000E-03 0. -1.
         11   -1    0    0    0    0 -0.00000000000E+00 -0.00000000000E+00 -0.45593999997E+02  0.45594000000E+02  0.51100000000E-03 0.  1.
    9900012    2    1    2    0    0 -0.58894477680E+01 -0.30082714531E+02  0.26711605560E+02  0.50528865968E+02  0.30000018597E+02 0.  0.
        -12    1    1    2    0    0  0.58894477680E+01  0.30082714531E+02 -0.26711605560E+02  0.40659134032E+02  0.00000000000E+00 0.  1.
         11    1    3    3    0    0 -0.47134751830E+01 -0.21930909022E+01 -0.53639638747E+01  0.74698463650E+01  0.51100000000E-03 0.  1.
        -11    1    3    3    0    0 -0.22280599185E+01 -0.18315199972E+02  0.16533877625E+02  0.24774581946E+02  0.51100000000E-03 0. -1.
        -12    1    3    3    0    0  0.10520873335E+01 -0.95744236574E+01  0.15541691810E+02  0.18284437658E+02  0.00000000000E+00 0.  1.
</event>
<event>
 7    1  0.5753610E-013  0.5052886E+02  0.7816164E-02  0.1300439E+00
        -11   -1    0    0    0    0  0.00000000000E+00  0.00000000000E+00  0.45593999997E+02  0.45594000000E+02  0.51100000000E-03 0.  1.
         11   -1    0    0    0    0 -0.00000000000E+00 -0.00000000000E+00 -0.45593999997E+02  0.45594000000E+02  0.51100000000E-03 0. -1.
    9900012    2    1    2    0    0  0.35217056119E+02  0.91043205502E+01 -0.18166900187E+02  0.50528856419E+02  0.29999989571E+02 0.  0.
        -12    1    1    2    0    0 -0.35217056119E+02 -0.91043205502E+01  0.18166900187E+02  0.40659143581E+02  0.00000000000E+00 0.  1.
         11    1    3    3    0    0 -0.85910688735E+00  0.44285707645E+01  0.59310244075E+00  0.45499532334E+01  0.51100000000E-03 0. -1.
        -11    1    3    3    0    0  0.29809522073E+02  0.11963347977E+02 -0.16476502945E+02  0.36099923138E+02  0.51100000000E-03 0.  1.
         12    1    3    3    0    0  0.62666409332E+01 -0.72875981910E+01 -0.22834996827E+01  0.98789800476E+01  0.00000000000E+00 0. -1.
</event>
<event>
 7    1  0.5753610E-013  0.5052874E+02  0.7816164E-02  0.1300439E+00
        -11   -1    0    0    0    0  0.00000000000E+00  0.00000000000E+00  0.45593999997E+02  0.45594000000E+02  0.51100000000E-03 0.  1.
         11   -1    0    0    0    0 -0.00000000000E+00 -0.00000000000E+00 -0.45593999997E+02  0.45594000000E+02  0.51100000000E-03 0. -1.
    9900012    2    1    2    0    0 -0.19814674333E+02  0.33017403083E+02 -0.13053932109E+02  0.50528740677E+02  0.29999637758E+02 0.  0.
        -12    1    1    2    0    0  0.19814674333E+02 -0.33017403083E+02  0.13053932109E+02  0.40659259323E+02  0.00000000000E+00 0.  1.
         11    1    3    3    0    0 -0.19232231217E+02  0.13367380524E+02 -0.39171054998E+01  0.23746774421E+02  0.51100000000E-03 0. -1.
        -11    1    3    3    0    0 -0.18876916556E+01 -0.15385859666E+01  0.16777514322E+01  0.29572752142E+01  0.51100000000E-03 0.  1.
         12    1    3    3    0    0  0.13052485397E+01  0.21188608525E+02 -0.10814578042E+02  0.23824691041E+02  0.00000000000E+00 0. -1.
</event>
<event>
 7    1  0.5753610E-013  0.5052886E+02  0.7816164E-02  0.1300439E+00
        -11   -1    0    0    0    0  0.00000000000E+00  0.00000000000E+00  0.45593999997E+02  0.45594000000E+02  0.51100000000E-03 0.  1.
         11   -1    0    0    0    0 -0.00000000000E+00 -0.00000000000E+00 -0.45593999997E+02  0.45594000000E+02  0.51100000000E-03 0. -1.
    9900012    2    1    2    0    0  0.36663251220E+00  0.35912245474E+02 -0.19061523262E+02  0.50528862485E+02  0.30000008010E+02 0.  0.
        -12    1    1    2    0    0 -0.36663251220E+00 -0.35912245474E+02  0.19061523262E+02  0.40659137515E+02  0.00000000000E+00 0.  1.
         11    1    3    3    0    0 -0.48618022574E+01  0.34414593244E+01 -0.20031513277E+01  0.62843757824E+01  0.51100000000E-03 0. -1.
        -11    1    3    3    0    0  0.45995931849E+00  0.16214149477E+02  0.44929496765E+01  0.16831423080E+02  0.51100000000E-03 0.  1.
        -12    1    3    3    0    0  0.47684754511E+01  0.16256636673E+02 -0.21551321611E+02  0.27413063623E+02  0.00000000000E+00 0.  1.
</event>
<event>
 7    1  0.5753610E-013  0.5052885E+02  0.7816164E-02  0.1300439E+00
        -11   -1    0    0    0    0  0.00000000000E+00  0.00000000000E+00  0.45593999997E+02  0.45594000000E+02  0.51100000000E-03 0. -1.
         11   -1    0    0    0    0 -0.00000000000E+00 -0.00000000000E+00 -0.45593999997E+02  0.45594000000E+02  0.51100000000E-03 0.  1.
    9900012    2    1    2    0    0  0.25613650868E+02  0.31396012130E+02  0.33761110190E+01  0.50528845876E+02  0.29999957525E+02 0.  0.
        -12    1    1    2    0    0 -0.25613650868E+02 -0.31396012130E+02 -0.33761110190E+01  0.40659154124E+02  0.00000000000E+00 0.  1.
         11    1    3    3    0    0  0.81235925037E+01  0.20301201072E+02  0.25156507546E+01  0.22010452497E+02  0.51100000000E-03 0. -1.
        -11    1    3    3    0    0  0.98204805834E+01  0.71776981688E+01 -0.92176370464E+01  0.15261914129E+02  0.51100000000E-03 0.  1.
        -12    1    3    3    0    0  0.76695777806E+01  0.39171128894E+01  0.10078097311E+02  0.13256479251E+02  0.00000000000E+00 0.  1.
</event>
<event>
 7    1  0.5753610E-013  0.5052886E+02  0.7816164E-02  0.1300439E+00
        -11   -1    0    0    0    0  0.00000000000E+00  0.00000000000E+00  0.45593999997E+02  0.45594000000E+02  0.51100000000E-03 0. -1.
         11   -1    0    0    0    0 -0.00000000000E+00 -0.00000000000E+00 -0.45593999997E+02  0.45594000000E+02  0.51100000000E-03 0.  1.
    9900012    2    1    2    0    0  0.33823086511E+02 -0.17807222472E+02  0.13858839824E+02  0.50528858413E+02  0.29999995633E+02 0.  0.
        -12    1    1    2    0    0 -0.33823086511E+02  0.17807222472E+02 -0.13858839824E+02  0.40659141587E+02  0.00000000000E+00 0.  1.
         11    1    3    3    0    0  0.99210156547E+01 -0.10548987267E+02 -0.58152153303E+01  0.15605268776E+02  0.51100000000E-03 0.  1.
        -11    1    3    3    0    0 -0.19103128513E+01 -0.92300604239E+00  0.25016848990E+01  0.32801925155E+01  0.51100000000E-03 0. -1.
         12    1    3    3    0    0  0.25812383708E+02 -0.63352291627E+01  0.17172370255E+02  0.31643397122E+02  0.00000000000E+00 0. -1.
</event>
<event>
 7    1  0.5753610E-013  0.5052886E+02  0.7816164E-02  0.1300439E+00
        -11   -1    0    0    0    0  0.00000000000E+00  0.00000000000E+00  0.45593999997E+02  0.45594000000E+02  0.51100000000E-03 0.  1.
         11   -1    0    0    0    0 -0.00000000000E+00 -0.00000000000E+00 -0.45593999997E+02  0.45594000000E+02  0.51100000000E-03 0. -1.
    9900012    2    1    2    0    0  0.11683671222E+02 -0.30957147588E+02 -0.23628644604E+02  0.50528855815E+02  0.29999987736E+02 0.  0.
        -12    1    1    2    0    0 -0.11683671222E+02  0.30957147588E+02  0.23628644604E+02  0.40659144185E+02  0.00000000000E+00 0.  1.
         11    1    3    3    0    0  0.11210705235E+02 -0.10011845277E+02 -0.18546633632E+02  0.23872464830E+02  0.51100000000E-03 0. -1.
        -11    1    3    3    0    0  0.34664336463E+01 -0.85473499819E+01 -0.94209086564E+01  0.13184342005E+02  0.51100000000E-03 0.  1.
        -12    1    3    3    0    0 -0.29934676589E+01 -0.12397952330E+02  0.43388976852E+01  0.13472048980E+02  0.00000000000E+00 0.  1.
</event>
<event>
 7    1  0.5753610E-013  0.5052886E+02  0.7816164E-02  0.1300439E+00
        -11   -1    0    0    0    0  0.00000000000E+00  0.00000000000E+00  0.45593999997E+02  0.45594000000E+02  0.51100000000E-03 0.  1.
         11   -1    0    0    0    0 -0.00000000000E+00 -0.00000000000E+00 -0.45593999997E+02  0.45594000000E+02  0.51100000000E-03 0. -1.
    9900012    2    1    2    0    0 -0.37257941876E+02  0.16104548310E+02  0.23780351823E+01  0.50528858833E+02  0.29999996908E+02 0.  0.
        -12    1    1    2    0    0  0.37257941876E+02 -0.16104548310E+02 -0.23780351823E+01  0.40659141167E+02  0.00000000000E+00 0.  1.
         11    1    3    3    0    0 -0.12445439561E+02  0.24890115385E+01  0.47984637863E+01  0.13568691877E+02  0.51100000000E-03 0. -1.
        -11    1    3    3    0    0  0.11373431700E+01 -0.45929884883E+01  0.16233360837E+01  0.50024307133E+01  0.51100000000E-03 0.  1.
         12    1    3    3    0    0 -0.25949845485E+02  0.18208525260E+02 -0.40437646877E+01  0.31957736242E+02  0.00000000000E+00 0. -1.
</event>
<event>
 7    1  0.5753610E-013  0.5052882E+02  0.7816164E-02  0.1300439E+00
        -11   -1    0    0    0    0  0.00000000000E+00  0.00000000000E+00  0.45593999997E+02  0.45594000000E+02  0.51100000000E-03 0.  1.
         11   -1    0    0    0    0 -0.00000000000E+00 -0.00000000000E+00 -0.45593999997E+02  0.45594000000E+02  0.51100000000E-03 0. -1.
    9900012    2    1    2    0    0  0.12898176754E+02  0.19941942628E+02 -0.33001893142E+02  0.50528819115E+02  0.29999876181E+02 0.  0.
        -12    1    1    2    0    0 -0.12898176754E+02 -0.19941942628E+02  0.33001893142E+02  0.40659180885E+02  0.00000000000E+00 0.  1.
         11    1    3    3    0    0 -0.76089280578E+01  0.18919425246E+01 -0.70256228005E+01  0.10527801703E+02  0.51100000000E-03 0. -1.
        -11    1    3    3    0    0  0.29314094815E+01  0.36455375226E+01  0.94359332147E+00  0.47721561159E+01  0.51100000000E-03 0.  1.
         12    1    3    3    0    0  0.17575695330E+02  0.14404462581E+02 -0.26919863663E+02  0.35228861296E+02  0.00000000000E+00 0. -1.
</event>
<event>
 7    1  0.5753610E-013  0.5052886E+02  0.7816164E-02  0.1300439E+00
        -11   -1    0    0    0    0  0.00000000000E+00  0.00000000000E+00  0.45593999997E+02  0.45594000000E+02  0.51100000000E-03 0. -1.
         11   -1    0    0    0    0 -0.00000000000E+00 -0.00000000000E+00 -0.45593999997E+02  0.45594000000E+02  0.51100000000E-03 0.  1.
    9900012    2    1    2    0    0 -0.21974785840E+02 -0.16112641707E+02  0.30177103815E+02  0.50528855517E+02  0.29999986828E+02 0.  0.
        -12    1    1    2    0    0  0.21974785840E+02  0.16112641707E+02 -0.30177103815E+02  0.40659144483E+02  0.00000000000E+00 0.  1.
         11    1    3    3    0    0  0.28885791881E+01 -0.30431907156E+01  0.15903378320E+02  0.16447563397E+02  0.51100000000E-03 0. -1.
        -11    1    3    3    0    0 -0.49811626390E+00 -0.77095357049E+00 -0.20730872875E+01  0.22671965911E+01  0.51100000000E-03 0.  1.
         12    1    3    3    0    0 -0.24365248764E+02 -0.12298497420E+02  0.16346812782E+02  0.31814095528E+02  0.00000000000E+00 0. -1.
</event>
<event>
 7    1  0.5753610E-013  0.5052887E+02  0.7816164E-02  0.1300439E+00
        -11   -1    0    0    0    0  0.00000000000E+00  0.00000000000E+00  0.45593999997E+02  0.45594000000E+02  0.51100000000E-03 0.  1.
         11   -1    0    0    0    0 -0.00000000000E+00 -0.00000000000E+00 -0.45593999997E+02  0.45594000000E+02  0.51100000000E-03 0. -1.
    9900012    2    1    2    0    0  0.62665198399E+01 -0.35393282727E+02 -0.19005562536E+02  0.50528866457E+02  0.30000020084E+02 0.  0.
        -12    1    1    2    0    0 -0.62665198399E+01  0.35393282727E+02  0.19005562536E+02  0.40659133543E+02  0.00000000000E+00 0.  1.
         11    1    3    3    0    0  0.99068545810E+01 -0.17356135930E+02 -0.64795222246E+01  0.21008698927E+02  0.51100000000E-03 0. -1.
        -11    1    3    3    0    0  0.56586506175E+01  0.32243763436E+00 -0.51498435346E+01  0.76580142028E+01  0.51100000000E-03 0.  1.
         12    1    3    3    0    0 -0.92989853586E+01 -0.18359584432E+02 -0.73761967769E+01  0.21862153327E+02  0.00000000000E+00 0. -1.
</event>
<event>
 7    1  0.5753610E-013  0.5052886E+02  0.7816164E-02  0.1300439E+00
        -11   -1    0    0    0    0  0.00000000000E+00  0.00000000000E+00  0.45593999997E+02  0.45594000000E+02  0.51100000000E-03 0.  1.
         11   -1    0    0    0    0 -0.00000000000E+00 -0.00000000000E+00 -0.45593999997E+02  0.45594000000E+02  0.51100000000E-03 0. -1.
    9900012    2    1    2    0    0 -0.15200840288E+02 -0.30052046690E+02 -0.22781018723E+02  0.50528857488E+02  0.29999992822E+02 0.  0.
        -12    1    1    2    0    0  0.15200840288E+02  0.30052046690E+02  0.22781018723E+02  0.40659142512E+02  0.00000000000E+00 0.  1.
         11    1    3    3    0    0 -0.18048175655E+01 -0.14691294104E+02 -0.63920598216E+01  0.16122962442E+02  0.51100000000E-03 0. -1.
        -11    1    3    3    0    0 -0.12445995723E+02 -0.41882686745E+01  0.15789154468E+01  0.13226389465E+02  0.51100000000E-03 0.  1.
         12    1    3    3    0    0 -0.95002699950E+00 -0.11172483911E+02 -0.17967874349E+02  0.21179505581E+02  0.00000000000E+00 0. -1.
</event>
<event>
 7    1  0.5753610E-013  0.5052887E+02  0.7816164E-02  0.1300439E+00
        -11   -1    0    0    0    0  0.00000000000E+00  0.00000000000E+00  0.45593999997E+02  0.45594000000E+02  0.51100000000E-03 0.  1.
         11   -1    0    0    0    0 -0.00000000000E+00 -0.00000000000E+00 -0.45593999997E+02  0.45594000000E+02  0.51100000000E-03 0. -1.
    9900012    2    1    2    0    0  0.33199421512E+02 -0.21539527800E+02 -0.93280405184E+01  0.50528865892E+02  0.30000018364E+02 0.  0.
        -12    1    1    2    0    0 -0.33199421512E+02  0.21539527800E+02  0.93280405184E+01  0.40659134108E+02  0.00000000000E+00 0.  1.
         11    1    3    3    0    0  0.66382111727E+01 -0.11330567432E+02 -0.28819906905E+01  0.13444458952E+02  0.51100000000E-03 0. -1.
        -11    1    3    3    0    0  0.10537165410E+02 -0.15880394036E+02 -0.63426004150E+01  0.20085998852E+02  0.51100000000E-03 0.  1.
         12    1    3    3    0    0  0.16024044929E+02  0.56714336680E+01 -0.10344941288E+00  0.16998408088E+02  0.00000000000E+00 0. -1.
</event>
<event>
 7    1  0.5753610E-013  0.5052885E+02  0.7816164E-02  0.1300439E+00
        -11   -1    0    0    0    0  0.00000000000E+00  0.00000000000E+00  0.45593999997E+02  0.45594000000E+02  0.51100000000E-03 0. -1.
         11   -1    0    0    0    0 -0.00000000000E+00 -0.00000000000E+00 -0.45593999997E+02  0.45594000000E+02  0.51100000000E-03 0.  1.
    9900012    2    1    2    0    0  0.32197319306E+02 -0.23206680959E+02  0.88288842684E+01  0.50528848398E+02  0.29999965190E+02 0.  0.
        -12    1    1    2    0    0 -0.32197319306E+02  0.23206680959E+02 -0.88288842684E+01  0.40659151602E+02  0.00000000000E+00 0.  1.
         11    1    3    3    0    0  0.59151788250E+01 -0.23779836363E+01  0.35676469558E+01  0.73056315106E+01  0.51100000000E-03 0. -1.
        -11    1    3    3    0    0  0.12670678041E+02  0.18842363960E+01  0.10090911372E+02  0.16307143262E+02  0.51100000000E-03 0.  1.
         12    1    3    3    0    0  0.13611462440E+02 -0.22712933719E+02 -0.48296740593E+01  0.26916073625E+02  0.00000000000E+00 0. -1.
</event>
<event>
 7    1  0.5753610E-013  0.5052885E+02  0.7816164E-02  0.1300439E+00
        -11   -1    0    0    0    0  0.00000000000E+00  0.00000000000E+00  0.45593999997E+02  0.45594000000E+02  0.51100000000E-03 0.  1.
         11   -1    0    0    0    0 -0.00000000000E+00 -0.00000000000E+00 -0.45593999997E+02  0.45594000000E+02  0.51100000000E-03 0. -1.
    9900012    2    1    2    0    0 -0.88366230052E+00  0.12025492271E+02 -0.38830055104E+02  0.50528849704E+02  0.29999969159E+02 0.  0.
        -12    1    1    2    0    0  0.88366230052E+00 -0.12025492271E+02  0.38830055104E+02  0.40659150296E+02  0.00000000000E+00 0.  1.
         11    1    3    3    0    0  0.71804509592E+01  0.19045907061E+01 -0.10756121430E+02  0.13072126461E+02  0.51100000000E-03 0. -1.
        -11    1    3    3    0    0  0.12619613016E+00 -0.51595037945E+01 -0.14642908495E+02  0.15525822823E+02  0.51100000000E-03 0.  1.
         12    1    3    3    0    0 -0.81903093898E+01  0.15280405360E+02 -0.13431025179E+02  0.21930900420E+02  0.00000000000E+00 0. -1.
</event>
<event>
 7    1  0.5753610E-013  0.5052886E+02  0.7816164E-02  0.1300439E+00
        -11   -1    0    0    0    0  0.00000000000E+00  0.00000000000E+00  0.45593999997E+02  0.45594000000E+02  0.51100000000E-03 0.  1.
         11   -1    0    0    0    0 -0.00000000000E+00 -0.00000000000E+00 -0.45593999997E+02  0.45594000000E+02  0.51100000000E-03 0. -1.
    9900012    2    1    2    0    0 -0.10696280677E+02 -0.11081875322E+02 -0.37629075690E+02  0.50528859351E+02  0.29999998484E+02 0.  0.
        -12    1    1    2    0    0  0.10696280677E+02  0.11081875322E+02  0.37629075690E+02  0.40659140649E+02  0.00000000000E+00 0.  1.
         11    1    3    3    0    0  0.22341592090E+01 -0.11259321054E+02 -0.20137629529E+02  0.23179471548E+02  0.51100000000E-03 0. -1.
        -11    1    3    3    0    0  0.33481108698E+01  0.29605269710E+01 -0.30480141744E+01  0.54097095126E+01  0.51100000000E-03 0.  1.
        -12    1    3    3    0    0 -0.16278550756E+02 -0.27830812398E+01 -0.14443431987E+02  0.21939678290E+02  0.00000000000E+00 0.  1.
</event>
<event>
 7    1  0.5753610E-013  0.5052886E+02  0.7816164E-02  0.1300439E+00
        -11   -1    0    0    0    0  0.00000000000E+00  0.00000000000E+00  0.45593999997E+02  0.45594000000E+02  0.51100000000E-03 0. -1.
         11   -1    0    0    0    0 -0.00000000000E+00 -0.00000000000E+00 -0.45593999997E+02  0.45594000000E+02  0.51100000000E-03 0.  1.
    9900012    2    1    2    0    0  0.12004189363E+01  0.15801817718E+02  0.37443654949E+02  0.50528859026E+02  0.29999997496E+02 0.  0.
        -12    1    1    2    0    0 -0.12004189363E+01 -0.15801817718E+02 -0.37443654949E+02  0.40659140974E+02  0.00000000000E+00 0.  1.
         11    1    3    3    0    0 -0.48562730552E+01  0.91519128534E+01  0.75761600630E+01  0.12835072981E+02  0.51100000000E-03 0. -1.
        -11    1    3    3    0    0  0.32482689184E+01 -0.72393309076E+01  0.16037885333E+02  0.17893376684E+02  0.51100000000E-03 0.  1.
         12    1    3    3    0    0  0.28084230731E+01  0.13889235772E+02  0.13829609553E+02  0.19800409361E+02  0.00000000000E+00 0. -1.
</event>
<event>
 7    1  0.5753610E-013  0.5052887E+02  0.7816164E-02  0.1300439E+00
        -11   -1    0    0    0    0  0.00000000000E+00  0.00000000000E+00  0.45593999997E+02  0.45594000000E+02  0.51100000000E-03 0. -1.
         11   -1    0    0    0    0 -0.00000000000E+00 -0.00000000000E+00 -0.45593999997E+02  0.45594000000E+02  0.51100000000E-03 0.  1.
    9900012    2    1    2    0    0  0.37005625686E+02  0.50636432040E+01  0.16065753407E+02  0.50528865142E+02  0.30000016085E+02 0.  0.
        -12    1    1    2    0    0 -0.37005625686E+02 -0.50636432040E+01 -0.16065753407E+02  0.40659134858E+02  0.00000000000E+00 0.  1.
         11    1    3    3    0    0  0.11642753354E+02 -0.22190713444E+01 -0.23672764258E-01  0.11852364488E+02  0.51100000000E-03 0. -1.
        -11    1    3    3    0    0  0.19008501459E+02  0.15639140453E+02  0.12284259143E+02  0.27510159301E+02  0.51100000000E-03 0.  1.
         12    1    3    3    0    0  0.63543708728E+01 -0.83564259045E+01  0.38051670282E+01  0.11166341352E+02  0.00000000000E+00 0. -1.
</event>
<event>
 7    1  0.5753610E-013  0.5052887E+02  0.7816164E-02  0.1300439E+00
        -11   -1    0    0    0    0  0.00000000000E+00  0.00000000000E+00  0.45593999997E+02  0.45594000000E+02  0.51100000000E-03 0.  1.
         11   -1    0    0    0    0 -0.00000000000E+00 -0.00000000000E+00 -0.45593999997E+02  0.45594000000E+02  0.51100000000E-03 0. -1.
    9900012    2    1    2    0    0  0.15168050357E+02  0.37660611147E+02 -0.21848532045E+01  0.50528868589E+02  0.30000026563E+02 0.  0.
        -12    1    1    2    0    0 -0.15168050357E+02 -0.37660611147E+02  0.21848532045E+01  0.40659131411E+02  0.00000000000E+00 0.  1.
         11    1    3    3    0    0  0.15585940365E+02  0.27902186581E+02 -0.30203009399E+01  0.32102582000E+02  0.51100000000E-03 0. -1.
        -11    1    3    3    0    0  0.64799161057E+01  0.43736910524E+01  0.44074136775E+01  0.89746187520E+01  0.51100000000E-03 0.  1.
         12    1    3    3    0    0 -0.68978061140E+01  0.53847335137E+01 -0.35719659422E+01  0.94516678365E+01  0.00000000000E+00 0. -1.
</event>
<event>
 7    1  0.5753610E-013  0.5052887E+02  0.7816164E-02  0.1300439E+00
        -11   -1    0    0    0    0  0.00000000000E+00  0.00000000000E+00  0.45593999997E+02  0.45594000000E+02  0.51100000000E-03 0. -1.
         11   -1    0    0    0    0 -0.00000000000E+00 -0.00000000000E+00 -0.45593999997E+02  0.45594000000E+02  0.51100000000E-03 0.  1.
    9900012    2    1    2    0    0 -0.12064484778E+02  0.37926134775E+02  0.83199577896E+01  0.50528865854E+02  0.30000018249E+02 0.  0.
        -12    1    1    2    0    0  0.12064484778E+02 -0.37926134775E+02 -0.83199577896E+01  0.40659134146E+02  0.00000000000E+00 0.  1.
         11    1    3    3    0    0 -0.69314893097E+01  0.12956691374E+02 -0.26174155588E-01  0.14694287352E+02  0.51100000000E-03 0. -1.
        -11    1    3    3    0    0  0.30206743326E+01  0.25618154084E+02  0.27890095762E+01  0.25945960510E+02  0.51100000000E-03 0.  1.
        -12    1    3    3    0    0 -0.81536698006E+01 -0.64871068430E+00  0.55571223690E+01  0.98886179921E+01  0.00000000000E+00 0.  1.
</event>
<event>
 7    1  0.5753610E-013  0.5052886E+02  0.7816164E-02  0.1300439E+00
        -11   -1    0    0    0    0  0.00000000000E+00  0.00000000000E+00  0.45593999997E+02  0.45594000000E+02  0.51100000000E-03 0.  1.
         11   -1    0    0    0    0 -0.00000000000E+00 -0.00000000000E+00 -0.45593999997E+02  0.45594000000E+02  0.51100000000E-03 0. -1.
    9900012    2    1    2    0    0 -0.71010268230E+01  0.17776339969E+01 -0.39994761911E+02  0.50528861484E+02  0.30000004967E+02 0.  0.
        -12    1    1    2    0    0  0.71010268230E+01 -0.17776339969E+01  0.39994761911E+02  0.40659138516E+02  0.00000000000E+00 0.  1.
         11    1    3    3    0    0  0.13153667087E+00 -0.27877477707E+01 -0.17179188690E+02  0.17404406449E+02  0.51100000000E-03 0. -1.
        -11    1    3    3    0    0  0.73581494466E+01  0.34219851777E+01 -0.33704440954E+01  0.87870495330E+01  0.51100000000E-03 0.  1.
        -12    1    3    3    0    0 -0.14590712940E+02  0.11433965899E+01 -0.19445129125E+02  0.24337405502E+02  0.00000000000E+00 0.  1.
</event>
<event>
 7    1  0.5753610E-013  0.5052883E+02  0.7816164E-02  0.1300439E+00
        -11   -1    0    0    0    0  0.00000000000E+00  0.00000000000E+00  0.45593999997E+02  0.45594000000E+02  0.51100000000E-03 0. -1.
         11   -1    0    0    0    0 -0.00000000000E+00 -0.00000000000E+00 -0.45593999997E+02  0.45594000000E+02  0.51100000000E-03 0.  1.
    9900012    2    1    2    0    0  0.12860608466E+02  0.26217151452E+02  0.28291939028E+02  0.50528830133E+02  0.29999909671E+02 0.  0.
        -12    1    1    2    0    0 -0.12860608466E+02 -0.26217151452E+02 -0.28291939028E+02  0.40659169867E+02  0.00000000000E+00 0.  1.
         11    1    3    3    0    0 -0.10559569303E+01  0.11048643922E+02  0.65119092418E+01  0.12868276488E+02  0.51100000000E-03 0. -1.
        -11    1    3    3    0    0  0.10231752480E+02  0.10613294685E+02 -0.37196106256E+00  0.14746834853E+02  0.51100000000E-03 0.  1.
         12    1    3    3    0    0  0.36848129163E+01  0.45552128451E+01  0.22151990849E+02  0.22913718791E+02  0.00000000000E+00 0. -1.
</event>
<event>
 7    1  0.5753610E-013  0.5052885E+02  0.7816164E-02  0.1300439E+00
        -11   -1    0    0    0    0  0.00000000000E+00  0.00000000000E+00  0.45593999997E+02  0.45594000000E+02  0.51100000000E-03 0. -1.
         11   -1    0    0    0    0 -0.00000000000E+00 -0.00000000000E+00 -0.45593999997E+02  0.45594000000E+02  0.51100000000E-03 0.  1.
    9900012    2    1    2    0    0 -0.31442042778E+02 -0.20475674816E+02  0.15662416662E+02  0.50528848399E+02  0.29999965195E+02 0.  0.
        -12    1    1    2    0    0  0.31442042778E+02  0.20475674816E+02 -0.15662416662E+02  0.40659151601E+02  0.00000000000E+00 0.  1.
         11    1    3    3    0    0 -0.11008521428E+02 -0.10897293523E+02 -0.31787379134E+01  0.15812745655E+02  0.51100000000E-03 0. -1.
        -11    1    3    3    0    0 -0.13106969444E+02  0.24780958856E+01  0.33297349992E+01  0.13748481467E+02  0.51100000000E-03 0.  1.
        -12    1    3    3    0    0 -0.73265519059E+01 -0.12056477178E+02  0.15511419576E+02  0.20967621278E+02  0.00000000000E+00 0.  1.
</event>
<event>
 7    1  0.5753610E-013  0.5052886E+02  0.7816164E-02  0.1300439E+00
        -11   -1    0    0    0    0  0.00000000000E+00  0.00000000000E+00  0.45593999997E+02  0.45594000000E+02  0.51100000000E-03 0. -1.
         11   -1    0    0    0    0 -0.00000000000E+00 -0.00000000000E+00 -0.45593999997E+02  0.45594000000E+02  0.51100000000E-03 0.  1.
    9900012    2    1    2    0    0  0.28718914515E+02  0.17098234835E+02  0.23152543288E+02  0.50528856550E+02  0.29999989968E+02 0.  0.
        -12    1    1    2    0    0 -0.28718914515E+02 -0.17098234835E+02 -0.23152543288E+02  0.40659143450E+02  0.00000000000E+00 0.  1.
         11    1    3    3    0    0 -0.32657085362E+01  0.10022079193E+01  0.73379300927E+01  0.80941022519E+01  0.51100000000E-03 0. -1.
        -11    1    3    3    0    0  0.44291145446E+01  0.77217038729E+01 -0.12031199683E+01  0.89827203157E+01  0.51100000000E-03 0.  1.
         12    1    3    3    0    0  0.27555508507E+02  0.83743230428E+01  0.17017733164E+02  0.33452033982E+02  0.00000000000E+00 0. -1.
</event>
<event>
 7    1  0.5753610E-013  0.5052883E+02  0.7816164E-02  0.1300439E+00
        -11   -1    0    0    0    0  0.00000000000E+00  0.00000000000E+00  0.45593999997E+02  0.45594000000E+02  0.51100000000E-03 0. -1.
         11   -1    0    0    0    0 -0.00000000000E+00 -0.00000000000E+00 -0.45593999997E+02  0.45594000000E+02  0.51100000000E-03 0.  1.
    9900012    2    1    2    0    0  0.39413654135E+02  0.59358078309E+01 -0.80310665439E+01  0.50528831579E+02  0.29999914067E+02 0.  0.
        -12    1    1    2    0    0 -0.39413654135E+02 -0.59358078309E+01  0.80310665439E+01  0.40659168421E+02  0.00000000000E+00 0.  1.
         11    1    3    3    0    0  0.30008673373E+02 -0.10543276090E+01 -0.69835597333E+01  0.30828593726E+02  0.51100000000E-03 0. -1.
        -11    1    3    3    0    0  0.48642474922E+01  0.14395619877E+01 -0.81546798626E+01  0.96037516786E+01  0.51100000000E-03 0.  1.
         12    1    3    3    0    0  0.45407332699E+01  0.55505734522E+01  0.71071730520E+01  0.10096486174E+02  0.00000000000E+00 0. -1.
</event>
<event>
 7    1  0.5753610E-013  0.5052886E+02  0.7816164E-02  0.1300439E+00
        -11   -1    0    0    0    0  0.00000000000E+00  0.00000000000E+00  0.45593999997E+02  0.45594000000E+02  0.51100000000E-03 0. -1.
         11   -1    0    0    0    0 -0.00000000000E+00 -0.00000000000E+00 -0.45593999997E+02  0.45594000000E+02  0.51100000000E-03 0.  1.
    9900012    2    1    2    0    0  0.23909304796E+02 -0.52559626537E+01  0.32463600566E+02  0.50528863746E+02  0.30000011842E+02 0.  0.
        -12    1    1    2    0    0 -0.23909304796E+02  0.52559626537E+01 -0.32463600566E+02  0.40659136254E+02  0.00000000000E+00 0.  1.
         11    1    3    3    0    0  0.48314870938E+00  0.29765864649E+01  0.14829502620E+02  0.15132998641E+02  0.51100000000E-03 0. -1.
        -11    1    3    3    0    0  0.13308981269E+02  0.48257334244E+01  0.75933082037E+01  0.16064713357E+02  0.51100000000E-03 0.  1.
        -12    1    3    3    0    0  0.10117174818E+02 -0.13058282543E+02  0.10040789742E+02  0.19331151748E+02  0.00000000000E+00 0.  1.
</event>
<event>
 7    1  0.5753610E-013  0.5052887E+02  0.7816164E-02  0.1300439E+00
        -11   -1    0    0    0    0  0.00000000000E+00  0.00000000000E+00  0.45593999997E+02  0.45594000000E+02  0.51100000000E-03 0.  1.
         11   -1    0    0    0    0 -0.00000000000E+00 -0.00000000000E+00 -0.45593999997E+02  0.45594000000E+02  0.51100000000E-03 0. -1.
    9900012    2    1    2    0    0 -0.15305086795E+02 -0.29100949678E+01 -0.37555969535E+02  0.50528865943E+02  0.30000018522E+02 0.  0.
        -12    1    1    2    0    0  0.15305086795E+02  0.29100949678E+01  0.37555969535E+02  0.40659134057E+02  0.00000000000E+00 0.  1.
         11    1    3    3    0    0 -0.26766578962E+01 -0.69543527001E+01 -0.15705121150E+02  0.17383277872E+02  0.51100000000E-03 0. -1.
        -11    1    3    3    0    0 -0.16474856190E+02 -0.27856913527E+01 -0.17435214714E+02  0.24148864884E+02  0.51100000000E-03 0.  1.
        -12    1    3    3    0    0  0.38464272908E+01  0.68299490851E+01 -0.44156336707E+01  0.89967231881E+01  0.00000000000E+00 0.  1.
</event>
<event>
 7    1  0.6313880E-013  0.5052886E+02  0.7816164E-02  0.1300439E+00
        -11   -1    0    0    0    0  0.00000000000E+00  0.00000000000E+00  0.45593999997E+02  0.45594000000E+02  0.51100000000E-03 0.  1.
         11   -1    0    0    0    0 -0.00000000000E+00 -0.00000000000E+00 -0.45593999997E+02  0.45594000000E+02  0.51100000000E-03 0. -1.
    9900012    2    1    2    0    0 -0.34384809598E+02 -0.42318578957E+01 -0.21282440949E+02  0.50528855333E+02  0.29999986270E+02 0.  0.
        -12    1    1    2    0    0  0.34384809598E+02  0.42318578957E+01  0.21282440949E+02  0.40659144667E+02  0.00000000000E+00 0.  1.
         11    1    3    3    0    0 -0.11920755277E+02 -0.77734273498E+01 -0.11691347675E+02  0.18417876909E+02  0.51100000000E-03 0. -1.
        -11    1    3    3    0    0  0.36155062905E+01 -0.57184196432E+00 -0.33932615852E+01  0.49913037792E+01  0.51100000000E-03 0.  1.
        -12    1    3    3    0    0 -0.26079560611E+02  0.41134114184E+01 -0.61978316893E+01  0.27119674644E+02  0.00000000000E+00 0.  1.
</event>
<event>
 7    1  0.5753610E-013  0.5052887E+02  0.7816164E-02  0.1300439E+00
        -11   -1    0    0    0    0  0.00000000000E+00  0.00000000000E+00  0.45593999997E+02  0.45594000000E+02  0.51100000000E-03 0.  1.
         11   -1    0    0    0    0 -0.00000000000E+00 -0.00000000000E+00 -0.45593999997E+02  0.45594000000E+02  0.51100000000E-03 0. -1.
    9900012    2    1    2    0    0 -0.27386378741E+02 -0.14929568062E+02 -0.26081781155E+02  0.50528867554E+02  0.30000023416E+02 0.  0.
        -12    1    1    2    0    0  0.27386378741E+02  0.14929568062E+02  0.26081781155E+02  0.40659132446E+02  0.00000000000E+00 0.  1.
         11    1    3    3    0    0 -0.14652152508E+02 -0.92336996227E+01 -0.10153136154E+02  0.20075680708E+02  0.51100000000E-03 0. -1.
        -11    1    3    3    0    0 -0.43239786277E+01 -0.40627209897E+01  0.50507889366E+01  0.77918522930E+01  0.51100000000E-03 0.  1.
         12    1    3    3    0    0 -0.84102476052E+01 -0.16331474491E+01 -0.20979433938E+02  0.22661334553E+02  0.00000000000E+00 0. -1.
</event>
<event>
 7    1  0.5753610E-013  0.5052886E+02  0.7816164E-02  0.1300439E+00
        -11   -1    0    0    0    0  0.00000000000E+00  0.00000000000E+00  0.45593999997E+02  0.45594000000E+02  0.51100000000E-03 0.  1.
         11   -1    0    0    0    0 -0.00000000000E+00 -0.00000000000E+00 -0.45593999997E+02  0.45594000000E+02  0.51100000000E-03 0. -1.
    9900012    2    1    2    0    0  0.11323759089E+02 -0.38979707631E+02 -0.23495667312E+01  0.50528860920E+02  0.30000003252E+02 0.  0.
        -12    1    1    2    0    0 -0.11323759089E+02  0.38979707631E+02  0.23495667312E+01  0.40659139080E+02  0.00000000000E+00 0.  1.
         11    1    3    3    0    0  0.11961887902E+02 -0.55907205957E+01 -0.58422964753E+01  0.14438675400E+02  0.51100000000E-03 0. -1.
        -11    1    3    3    0    0 -0.38092253074E+01 -0.18874140981E+01  0.67254927118E+00  0.43040506739E+01  0.51100000000E-03 0.  1.
         12    1    3    3    0    0  0.31710964942E+01 -0.31501572938E+02  0.28201804729E+01  0.31786134846E+02  0.00000000000E+00 0. -1.
</event>
<event>
 7    1  0.5753610E-013  0.5052892E+02  0.7816164E-02  0.1300439E+00
        -11   -1    0    0    0    0  0.00000000000E+00  0.00000000000E+00  0.45593999997E+02  0.45594000000E+02  0.51100000000E-03 0. -1.
         11   -1    0    0    0    0 -0.00000000000E+00 -0.00000000000E+00 -0.45593999997E+02  0.45594000000E+02  0.51100000000E-03 0.  1.
    9900012    2    1    2    0    0 -0.17126855964E+02  0.19536889747E+02  0.31275251967E+02  0.50528921778E+02  0.30000188237E+02 0.  0.
        -12    1    1    2    0    0  0.17126855964E+02 -0.19536889747E+02 -0.31275251967E+02  0.40659078222E+02  0.00000000000E+00 0.  1.
         11    1    3    3    0    0 -0.18633791515E+02  0.14433728356E+02  0.25584594901E+02  0.34786810676E+02  0.51100000000E-03 0. -1.
        -11    1    3    3    0    0 -0.21447296235E+01  0.64496081007E+01 -0.20320485288E+01  0.70941194870E+01  0.51100000000E-03 0.  1.
        -12    1    3    3    0    0  0.36516651737E+01 -0.13464467092E+01  0.77227055946E+01  0.86479916156E+01  0.00000000000E+00 0.  1.
</event>
<event>
 7    1  0.5753610E-013  0.5052886E+02  0.7816164E-02  0.1300439E+00
        -11   -1    0    0    0    0  0.00000000000E+00  0.00000000000E+00  0.45593999997E+02  0.45594000000E+02  0.51100000000E-03 0.  1.
         11   -1    0    0    0    0 -0.00000000000E+00 -0.00000000000E+00 -0.45593999997E+02  0.45594000000E+02  0.51100000000E-03 0. -1.
    9900012    2    1    2    0    0  0.38723101890E+01 -0.34042643375E+02 -0.21892223645E+02  0.50528858219E+02  0.29999995044E+02 0.  0.
        -12    1    1    2    0    0 -0.38723101890E+01  0.34042643375E+02  0.21892223645E+02  0.40659141781E+02  0.00000000000E+00 0.  1.
         11    1    3    3    0    0  0.59856751356E+01 -0.73942065986E+01 -0.20533858713E+02  0.22630553505E+02  0.51100000000E-03 0. -1.
        -11    1    3    3    0    0 -0.87607622399E+00 -0.43196329542E+00  0.11781031676E+01  0.15303689665E+01  0.51100000000E-03 0.  1.
         12    1    3    3    0    0 -0.12372887226E+01 -0.26216473481E+02 -0.25364681003E+01  0.26367935748E+02  0.00000000000E+00 0. -1.
</event>
<event>
 7    1  0.5753610E-013  0.5052886E+02  0.7816164E-02  0.1300439E+00
        -11   -1    0    0    0    0  0.00000000000E+00  0.00000000000E+00  0.45593999997E+02  0.45594000000E+02  0.51100000000E-03 0.  1.
         11   -1    0    0    0    0 -0.00000000000E+00 -0.00000000000E+00 -0.45593999997E+02  0.45594000000E+02  0.51100000000E-03 0. -1.
    9900012    2    1    2    0    0  0.11465362669E+01 -0.36794909253E+02 -0.17262253599E+02  0.50528864598E+02  0.30000014432E+02 0.  0.
        -12    1    1    2    0    0 -0.11465362669E+01  0.36794909253E+02  0.17262253599E+02  0.40659135402E+02  0.00000000000E+00 0.  1.
         11    1    3    3    0    0  0.13209538161E+01 -0.19141497021E+02 -0.13712975341E+02  0.23583628223E+02  0.51100000000E-03 0. -1.
        -11    1    3    3    0    0  0.53868757444E+01 -0.19554361474E+02 -0.42061377910E+00  0.20287148621E+02  0.51100000000E-03 0.  1.
        -12    1    3    3    0    0 -0.55612932936E+01  0.19009492426E+01 -0.31286644783E+01  0.66580877538E+01  0.00000000000E+00 0.  1.
</event>
<event>
 7    1  0.5753610E-013  0.5052887E+02  0.7816164E-02  0.1300439E+00
        -11   -1    0    0    0    0  0.00000000000E+00  0.00000000000E+00  0.45593999997E+02  0.45594000000E+02  0.51100000000E-03 0. -1.
         11   -1    0    0    0    0 -0.00000000000E+00 -0.00000000000E+00 -0.45593999997E+02  0.45594000000E+02  0.51100000000E-03 0.  1.
    9900012    2    1    2    0    0 -0.13470721676E+02  0.21575868918E+02  0.31720444875E+02  0.50528867138E+02  0.30000022153E+02 0.  0.
        -12    1    1    2    0    0  0.13470721676E+02 -0.21575868918E+02 -0.31720444875E+02  0.40659132862E+02  0.00000000000E+00 0.  1.
         11    1    3    3    0    0  0.69013625203E+01  0.52704891005E+00  0.11088180619E+02  0.13071125999E+02  0.51100000000E-03 0. -1.
        -11    1    3    3    0    0 -0.33099684294E+01  0.43346204857E+01 -0.61719966765E+00  0.54886939658E+01  0.51100000000E-03 0.  1.
         12    1    3    3    0    0 -0.17062115767E+02  0.16714199522E+02  0.21249463924E+02  0.31969047173E+02  0.00000000000E+00 0. -1.
</event>
<event>
 7    1  0.5753610E-013  0.5052882E+02  0.7816164E-02  0.1300439E+00
        -11   -1    0    0    0    0  0.00000000000E+00  0.00000000000E+00  0.45593999997E+02  0.45594000000E+02  0.51100000000E-03 0.  1.
         11   -1    0    0    0    0 -0.00000000000E+00 -0.00000000000E+00 -0.45593999997E+02  0.45594000000E+02  0.51100000000E-03 0. -1.
    9900012    2    1    2    0    0 -0.76912088952E+01 -0.19389686497E+02 -0.34900630248E+02  0.50528823564E+02  0.29999889704E+02 0.  0.
        -12    1    1    2    0    0  0.76912088952E+01  0.19389686497E+02  0.34900630248E+02  0.40659176436E+02  0.00000000000E+00 0.  1.
         11    1    3    3    0    0  0.51220141902E+01 -0.71576169714E+01 -0.19205998555E+02  0.21126686698E+02  0.51100000000E-03 0. -1.
        -11    1    3    3    0    0 -0.25184778352E+00 -0.82044825834E+01 -0.13826196051E+02  0.16079199584E+02  0.51100000000E-03 0.  1.
        -12    1    3    3    0    0 -0.12561375302E+02 -0.40275869427E+01 -0.18684356419E+01  0.13322937281E+02  0.00000000000E+00 0.  1.
</event>
<event>
 7    1  0.5753610E-013  0.5052887E+02  0.7816164E-02  0.1300439E+00
        -11   -1    0    0    0    0  0.00000000000E+00  0.00000000000E+00  0.45593999997E+02  0.45594000000E+02  0.51100000000E-03 0. -1.
         11   -1    0    0    0    0 -0.00000000000E+00 -0.00000000000E+00 -0.45593999997E+02  0.45594000000E+02  0.51100000000E-03 0.  1.
    9900012    2    1    2    0    0  0.13073042760E+02 -0.28946645217E+02  0.25384098975E+02  0.50528865760E+02  0.30000017965E+02 0.  0.
        -12    1    1    2    0    0 -0.13073042760E+02  0.28946645217E+02 -0.25384098975E+02  0.40659134240E+02  0.00000000000E+00 0.  1.
         11    1    3    3    0    0  0.11113976787E+02 -0.78452938479E+01  0.51380015967E+01  0.14541945408E+02  0.51100000000E-03 0. -1.
        -11    1    3    3    0    0  0.19413661024E+01  0.17024217743E+01 -0.26304748794E+01  0.36859924842E+01  0.51100000000E-03 0.  1.
         12    1    3    3    0    0  0.17699870775E-01 -0.22803773144E+02  0.22876572258E+02  0.32300927868E+02  0.00000000000E+00 0. -1.
</event>
<event>
 7    1  0.5753610E-013  0.5052877E+02  0.7816164E-02  0.1300439E+00
        -11   -1    0    0    0    0  0.00000000000E+00  0.00000000000E+00  0.45593999997E+02  0.45594000000E+02  0.51100000000E-03 0.  1.
         11   -1    0    0    0    0 -0.00000000000E+00 -0.00000000000E+00 -0.45593999997E+02  0.45594000000E+02  0.51100000000E-03 0. -1.
    9900012    2    1    2    0    0  0.10508464384E+02  0.24021023287E+02 -0.31076284515E+02  0.50528771740E+02  0.29999732179E+02 0.  0.
        -12    1    1    2    0    0 -0.10508464384E+02 -0.24021023287E+02  0.31076284515E+02  0.40659228260E+02  0.00000000000E+00 0.  1.
         11    1    3    3    0    0 -0.27516913217E+01 -0.33871941440E+00  0.13221300284E+01  0.30715735454E+01  0.51100000000E-03 0. -1.
        -11    1    3    3    0    0  0.87561759598E+01 -0.10976719167E+01 -0.82604552814E+01  0.12087622711E+02  0.51100000000E-03 0.  1.
         12    1    3    3    0    0  0.45039797463E+01  0.25457414618E+02 -0.24137959262E+02  0.35369575484E+02  0.00000000000E+00 0. -1.
</event>
<event>
 7    1  0.5753610E-013  0.5052888E+02  0.7816164E-02  0.1300439E+00
        -11   -1    0    0    0    0  0.00000000000E+00  0.00000000000E+00  0.45593999997E+02  0.45594000000E+02  0.51100000000E-03 0. -1.
         11   -1    0    0    0    0 -0.00000000000E+00 -0.00000000000E+00 -0.45593999997E+02  0.45594000000E+02  0.51100000000E-03 0.  1.
    9900012    2    1    2    0    0  0.27026279143E+02 -0.74025857181E+01  0.29460929480E+02  0.50528875495E+02  0.30000047556E+02 0.  0.
        -12    1    1    2    0    0 -0.27026279143E+02  0.74025857181E+01 -0.29460929480E+02  0.40659124505E+02  0.00000000000E+00 0.  1.
         11    1    3    3    0    0  0.57650720445E+00  0.68171520438E+01  0.16099201231E+02  0.17492575656E+02  0.51100000000E-03 0.  1.
        -11    1    3    3    0    0  0.13807124769E+02 -0.74087883813E+01  0.51512562647E+01  0.16494310565E+02  0.51100000000E-03 0. -1.
        -12    1    3    3    0    0  0.12642647170E+02 -0.68109493805E+01  0.82104719846E+01  0.16541989274E+02  0.00000000000E+00 0.  1.
</event>
<event>
 7    1  0.5753610E-013  0.5052885E+02  0.7816164E-02  0.1300439E+00
        -11   -1    0    0    0    0  0.00000000000E+00  0.00000000000E+00  0.45593999997E+02  0.45594000000E+02  0.51100000000E-03 0.  1.
         11   -1    0    0    0    0 -0.00000000000E+00 -0.00000000000E+00 -0.45593999997E+02  0.45594000000E+02  0.51100000000E-03 0. -1.
    9900012    2    1    2    0    0 -0.31380073659E+02 -0.20486329688E+02 -0.15772370008E+02  0.50528851182E+02  0.29999973652E+02 0.  0.
        -12    1    1    2    0    0  0.31380073659E+02  0.20486329688E+02  0.15772370008E+02  0.40659148818E+02  0.00000000000E+00 0.  1.
         11    1    3    3    0    0 -0.66980357549E+01 -0.82615318528E+01 -0.59174024899E+01  0.12170959043E+02  0.51100000000E-03 0. -1.
        -11    1    3    3    0    0 -0.12602217823E+02 -0.11549123370E+02  0.62623529120E+01  0.18204812796E+02  0.51100000000E-03 0.  1.
         12    1    3    3    0    0 -0.12079820080E+02 -0.67567446587E+00 -0.16117320430E+02  0.20153079343E+02  0.00000000000E+00 0. -1.
</event>
<event>
 7    1  0.5753610E-013  0.5052888E+02  0.7816164E-02  0.1300439E+00
        -11   -1    0    0    0    0  0.00000000000E+00  0.00000000000E+00  0.45593999997E+02  0.45594000000E+02  0.51100000000E-03 0.  1.
         11   -1    0    0    0    0 -0.00000000000E+00 -0.00000000000E+00 -0.45593999997E+02  0.45594000000E+02  0.51100000000E-03 0. -1.
    9900012    2    1    2    0    0  0.16250837836E+02 -0.29730794413E+02 -0.22475639681E+02  0.50528877458E+02  0.30000053521E+02 0.  0.
        -12    1    1    2    0    0 -0.16250837836E+02  0.29730794413E+02  0.22475639681E+02  0.40659122542E+02  0.00000000000E+00 0.  1.
         11    1    3    3    0    0  0.76663121024E+01 -0.23291128936E+02 -0.25605059045E+02  0.35452335287E+02  0.51100000000E-03 0. -1.
        -11    1    3    3    0    0  0.36856837923E+01 -0.42690111700E+01 -0.34344633348E+01  0.66033521825E+01  0.51100000000E-03 0.  1.
        -12    1    3    3    0    0  0.48988419415E+01 -0.21706543071E+01  0.65638826987E+01  0.84731899879E+01  0.00000000000E+00 0.  1.
</event>
<event>
 7    1  0.5753610E-013  0.5052885E+02  0.7816164E-02  0.1300439E+00
        -11   -1    0    0    0    0  0.00000000000E+00  0.00000000000E+00  0.45593999997E+02  0.45594000000E+02  0.51100000000E-03 0. -1.
         11   -1    0    0    0    0 -0.00000000000E+00 -0.00000000000E+00 -0.45593999997E+02  0.45594000000E+02  0.51100000000E-03 0.  1.
    9900012    2    1    2    0    0  0.80457631956E+01  0.18625566529E+02  0.35235213201E+02  0.50528852404E+02  0.29999977366E+02 0.  0.
        -12    1    1    2    0    0 -0.80457631956E+01 -0.18625566529E+02 -0.35235213201E+02  0.40659147596E+02  0.00000000000E+00 0.  1.
         11    1    3    3    0    0 -0.39240471519E+01  0.11768565444E+01  0.43739960129E+01  0.59929107084E+01  0.51100000000E-03 0. -1.
        -11    1    3    3    0    0  0.10927402440E+02  0.35230576044E+01  0.28025784287E+02  0.30286377204E+02  0.51100000000E-03 0.  1.
         12    1    3    3    0    0  0.10424079073E+01  0.13925652380E+02  0.28354329011E+01  0.14249564491E+02  0.00000000000E+00 0. -1.
</event>
<event>
 7    1  0.5753610E-013  0.5052886E+02  0.7816164E-02  0.1300439E+00
        -11   -1    0    0    0    0  0.00000000000E+00  0.00000000000E+00  0.45593999997E+02  0.45594000000E+02  0.51100000000E-03 0. -1.
         11   -1    0    0    0    0 -0.00000000000E+00 -0.00000000000E+00 -0.45593999997E+02  0.45594000000E+02  0.51100000000E-03 0.  1.
    9900012    2    1    2    0    0 -0.18792737749E+02  0.78831722209E+01  0.35183152892E+02  0.50528860268E+02  0.30000001269E+02 0.  0.
        -12    1    1    2    0    0  0.18792737749E+02 -0.78831722209E+01 -0.35183152892E+02  0.40659139732E+02  0.00000000000E+00 0.  1.
         11    1    3    3    0    0 -0.26903400973E+01  0.68243071272E+01  0.14422878981E+02  0.16181116648E+02  0.51100000000E-03 0. -1.
        -11    1    3    3    0    0 -0.15645184225E+02  0.14800166228E+01  0.25290345343E+02  0.29775221350E+02  0.51100000000E-03 0.  1.
        -12    1    3    3    0    0 -0.45721342662E+00 -0.42115152913E+00 -0.45300714319E+01  0.45725222696E+01  0.00000000000E+00 0.  1.
</event>
<event>
 7    1  0.5753610E-013  0.5052886E+02  0.7816164E-02  0.1300439E+00
        -11   -1    0    0    0    0  0.00000000000E+00  0.00000000000E+00  0.45593999997E+02  0.45594000000E+02  0.51100000000E-03 0.  1.
         11   -1    0    0    0    0 -0.00000000000E+00 -0.00000000000E+00 -0.45593999997E+02  0.45594000000E+02  0.51100000000E-03 0. -1.
    9900012    2    1    2    0    0 -0.73007020155E+00 -0.23672155978E+02 -0.33049384545E+02  0.50528858470E+02  0.29999995807E+02 0.  0.
        -12    1    1    2    0    0  0.73007020155E+00  0.23672155978E+02  0.33049384545E+02  0.40659141530E+02  0.00000000000E+00 0.  1.
         11    1    3    3    0    0 -0.84152263484E+01 -0.16552293305E+02 -0.15108925274E+02  0.23938965545E+02  0.51100000000E-03 0. -1.
        -11    1    3    3    0    0  0.76898854503E+01 -0.11733491776E+02 -0.94124478978E+01  0.16893884787E+02  0.51100000000E-03 0.  1.
         12    1    3    3    0    0 -0.47293034112E-02  0.46136291029E+01 -0.85280113725E+01  0.96960081391E+01  0.00000000000E+00 0. -1.
</event>
<event>
 7    1  0.5753610E-013  0.5052886E+02  0.7816164E-02  0.1300439E+00
        -11   -1    0    0    0    0  0.00000000000E+00  0.00000000000E+00  0.45593999997E+02  0.45594000000E+02  0.51100000000E-03 0. -1.
         11   -1    0    0    0    0 -0.00000000000E+00 -0.00000000000E+00 -0.45593999997E+02  0.45594000000E+02  0.51100000000E-03 0.  1.
    9900012    2    1    2    0    0 -0.19846556413E+02 -0.23664003580E+02  0.26444186316E+02  0.50528857648E+02  0.29999993307E+02 0.  0.
        -12    1    1    2    0    0  0.19846556413E+02  0.23664003580E+02 -0.26444186316E+02  0.40659142352E+02  0.00000000000E+00 0.  1.
         11    1    3    3    0    0 -0.18951552504E+02 -0.20835778860E+02  0.98999365854E+01  0.29854643988E+02  0.51100000000E-03 0.  1.
        -11    1    3    3    0    0  0.31157054535E+01 -0.58779840863E+01  0.58766315263E+01  0.88765486395E+01  0.51100000000E-03 0. -1.
        -12    1    3    3    0    0 -0.40107093624E+01  0.30497593662E+01  0.10667618204E+02  0.11797665020E+02  0.00000000000E+00 0.  1.
</event>
<event>
 7    1  0.5753610E-013  0.5052887E+02  0.7816164E-02  0.1300439E+00
        -11   -1    0    0    0    0  0.00000000000E+00  0.00000000000E+00  0.45593999997E+02  0.45594000000E+02  0.51100000000E-03 0. -1.
         11   -1    0    0    0    0 -0.00000000000E+00 -0.00000000000E+00 -0.45593999997E+02  0.45594000000E+02  0.51100000000E-03 0.  1.
    9900012    2    1    2    0    0 -0.77568306739E+01 -0.21109857517E+02  0.33872861058E+02  0.50528865445E+02  0.30000017006E+02 0.  0.
        -12    1    1    2    0    0  0.77568306739E+01  0.21109857517E+02 -0.33872861058E+02  0.40659134555E+02  0.00000000000E+00 0.  1.
         11    1    3    3    0    0 -0.38612396705E+01  0.32986765530E+01  0.35257751469E+01  0.61823563017E+01  0.51100000000E-03 0. -1.
        -11    1    3    3    0    0  0.23400979304E+01  0.15683985157E+01 -0.11526295593E+01  0.30437620455E+01  0.51100000000E-03 0.  1.
         12    1    3    3    0    0 -0.62356889338E+01 -0.25976932586E+02  0.31499715471E+02  0.41302747097E+02  0.00000000000E+00 0. -1.
</event>
<event>
 7    1  0.6219281E-013  0.5052886E+02  0.7816164E-02  0.1300439E+00
        -11   -1    0    0    0    0  0.00000000000E+00  0.00000000000E+00  0.45593999997E+02  0.45594000000E+02  0.51100000000E-03 0. -1.
         11   -1    0    0    0    0 -0.00000000000E+00 -0.00000000000E+00 -0.45593999997E+02  0.45594000000E+02  0.51100000000E-03 0.  1.
    9900012    2    1    2    0    0  0.39501480479E+02  0.42943976920E+01 -0.86230363568E+01  0.50528861205E+02  0.30000004119E+02 0.  0.
        -12    1    1    2    0    0 -0.39501480479E+02 -0.42943976920E+01  0.86230363568E+01  0.40659138795E+02  0.00000000000E+00 0.  1.
         11    1    3    3    0    0  0.25255213946E+02 -0.43389354962E+01 -0.13264365616E+02  0.28854732509E+02  0.51100000000E-03 0. -1.
        -11    1    3    3    0    0  0.59157148804E+01  0.70942587314E+01 -0.35445417650E+01  0.98938347509E+01  0.51100000000E-03 0.  1.
        -12    1    3    3    0    0  0.83305516523E+01  0.15390744568E+01  0.81858710243E+01  0.11780293945E+02  0.00000000000E+00 0.  1.
</event>
<event>
 7    1  0.5753610E-013  0.5052885E+02  0.7816164E-02  0.1300439E+00
        -11   -1    0    0    0    0  0.00000000000E+00  0.00000000000E+00  0.45593999997E+02  0.45594000000E+02  0.51100000000E-03 0.  1.
         11   -1    0    0    0    0 -0.00000000000E+00 -0.00000000000E+00 -0.45593999997E+02  0.45594000000E+02  0.51100000000E-03 0. -1.
    9900012    2    1    2    0    0 -0.30670782846E+02  0.11370543982E+02 -0.24149122510E+02  0.50528852089E+02  0.29999976411E+02 0.  0.
        -12    1    1    2    0    0  0.30670782846E+02 -0.11370543982E+02  0.24149122510E+02  0.40659147911E+02  0.00000000000E+00 0.  1.
         11    1    3    3    0    0 -0.12963851716E+02  0.12843043736E+02 -0.86550902405E+01  0.20196925782E+02  0.51100000000E-03 0. -1.
        -11    1    3    3    0    0  0.18259844839E+00  0.30567530441E+01  0.29422016684E+01  0.42466024402E+01  0.51100000000E-03 0.  1.
        -12    1    3    3    0    0 -0.17889529578E+02 -0.45292527983E+01 -0.18436233938E+02  0.26085323867E+02  0.00000000000E+00 0.  1.
</event>
<event>
 7    1  0.5753610E-013  0.5052887E+02  0.7816164E-02  0.1300439E+00
        -11   -1    0    0    0    0  0.00000000000E+00  0.00000000000E+00  0.45593999997E+02  0.45594000000E+02  0.51100000000E-03 0.  1.
         11   -1    0    0    0    0 -0.00000000000E+00 -0.00000000000E+00 -0.45593999997E+02  0.45594000000E+02  0.51100000000E-03 0. -1.
    9900012    2    1    2    0    0  0.38238841414E+02  0.32761823502E+01 -0.13424711994E+02  0.50528865041E+02  0.30000015780E+02 0.  0.
        -12    1    1    2    0    0 -0.38238841414E+02 -0.32761823502E+01  0.13424711994E+02  0.40659134959E+02  0.00000000000E+00 0.  1.
         11    1    3    3    0    0  0.29546294531E+02 -0.41604306997E+01 -0.11062418263E+02  0.31822473225E+02  0.51100000000E-03 0. -1.
        -11    1    3    3    0    0 -0.25112924774E+01 -0.65353573587E+00 -0.40232502727E+01  0.47875089433E+01  0.51100000000E-03 0.  1.
        -12    1    3    3    0    0  0.11203839360E+02  0.80901487858E+01  0.16609565414E+01  0.13918882873E+02  0.00000000000E+00 0.  1.
</event>
<event>
 7    1  0.5753610E-013  0.5052886E+02  0.7816164E-02  0.1300439E+00
        -11   -1    0    0    0    0  0.00000000000E+00  0.00000000000E+00  0.45593999997E+02  0.45594000000E+02  0.51100000000E-03 0.  1.
         11   -1    0    0    0    0 -0.00000000000E+00 -0.00000000000E+00 -0.45593999997E+02  0.45594000000E+02  0.51100000000E-03 0. -1.
    9900012    2    1    2    0    0  0.25593197331E+01 -0.29299904521E+02 -0.28073677139E+02  0.50528857479E+02  0.29999992792E+02 0.  0.
        -12    1    1    2    0    0 -0.25593197331E+01  0.29299904521E+02  0.28073677139E+02  0.40659142521E+02  0.00000000000E+00 0.  1.
         11    1    3    3    0    0  0.39196120004E+01 -0.85742721342E+01 -0.15720158464E+02  0.18330435981E+02  0.51100000000E-03 0. -1.
        -11    1    3    3    0    0  0.37984757238E+01 -0.14650764156E+02  0.25015331896E+01  0.15340501189E+02  0.51100000000E-03 0.  1.
         12    1    3    3    0    0 -0.51587679910E+01 -0.60748682316E+01 -0.14855051865E+02  0.16857920309E+02  0.00000000000E+00 0. -1.
</event>
<event>
 7    1  0.5753610E-013  0.5052900E+02  0.7816164E-02  0.1300438E+00
        -11   -1    0    0    0    0  0.00000000000E+00  0.00000000000E+00  0.45593999997E+02  0.45594000000E+02  0.51100000000E-03 0.  1.
         11   -1    0    0    0    0 -0.00000000000E+00 -0.00000000000E+00 -0.45593999997E+02  0.45594000000E+02  0.51100000000E-03 0. -1.
    9900012    2    1    2    0    0  0.26002381133E+02  0.16651670301E+02 -0.26452825088E+02  0.50529004642E+02  0.30000440105E+02 0.  0.
        -12    1    1    2    0    0 -0.26002381133E+02 -0.16651670301E+02  0.26452825088E+02  0.40658995358E+02  0.00000000000E+00 0.  1.
         11    1    3    3    0    0  0.80599803102E+01  0.13486190113E+02 -0.14004037648E+02  0.21046464717E+02  0.51100000000E-03 0. -1.
        -11    1    3    3    0    0  0.54618235482E+00  0.70116401695E+01  0.10753579561E+01  0.71146193170E+01  0.51100000000E-03 0.  1.
         12    1    3    3    0    0  0.17396218468E+02 -0.38461599821E+01 -0.13524145397E+02  0.22367920608E+02  0.00000000000E+00 0. -1.
</event>
<event>
 7    1  0.5753610E-013  0.5052886E+02  0.7816164E-02  0.1300439E+00
        -11   -1    0    0    0    0  0.00000000000E+00  0.00000000000E+00  0.45593999997E+02  0.45594000000E+02  0.51100000000E-03 0.  1.
         11   -1    0    0    0    0 -0.00000000000E+00 -0.00000000000E+00 -0.45593999997E+02  0.45594000000E+02  0.51100000000E-03 0. -1.
    9900012    2    1    2    0    0  0.26502980996E+02 -0.16360162633E+02 -0.26136228992E+02  0.50528863401E+02  0.30000010793E+02 0.  0.
        -12    1    1    2    0    0 -0.26502980996E+02  0.16360162633E+02  0.26136228992E+02  0.40659136599E+02  0.00000000000E+00 0.  1.
         11    1    3    3    0    0  0.10477387587E+02  0.27087954762E+01 -0.21428708132E+01  0.11032004313E+02  0.51100000000E-03 0.  1.
        -11    1    3    3    0    0  0.17585454334E+02 -0.20333200265E+02 -0.25448040773E+02  0.37017428552E+02  0.51100000000E-03 0. -1.
         12    1    3    3    0    0 -0.15598609249E+01  0.12642421551E+01  0.14546825942E+01  0.24794305358E+01  0.00000000000E+00 0. -1.
</event>
<event>
 7    1  0.5753610E-013  0.5052886E+02  0.7816164E-02  0.1300439E+00
        -11   -1    0    0    0    0  0.00000000000E+00  0.00000000000E+00  0.45593999997E+02  0.45594000000E+02  0.51100000000E-03 0.  1.
         11   -1    0    0    0    0 -0.00000000000E+00 -0.00000000000E+00 -0.45593999997E+02  0.45594000000E+02  0.51100000000E-03 0. -1.
    9900012    2    1    2    0    0  0.20997661869E+00 -0.32268386080E+02  0.24736059111E+02  0.50528862642E+02  0.30000008486E+02 0.  0.
        -12    1    1    2    0    0 -0.20997661869E+00  0.32268386080E+02 -0.24736059111E+02  0.40659137358E+02  0.00000000000E+00 0.  1.
         11    1    3    3    0    0 -0.40374043209E+00 -0.12102915152E+01 -0.23748638192E+01  0.26958839569E+01  0.51100000000E-03 0. -1.
        -11    1    3    3    0    0  0.71704997600E+01 -0.14333702610E+01  0.11712156863E+02  0.13807434076E+02  0.51100000000E-03 0.  1.
        -12    1    3    3    0    0 -0.65567827093E+01 -0.29624724304E+02  0.15398766067E+02  0.34025544609E+02  0.00000000000E+00 0.  1.
</event>
<event>
 7    1  0.5753610E-013  0.5052886E+02  0.7816164E-02  0.1300439E+00
        -11   -1    0    0    0    0  0.00000000000E+00  0.00000000000E+00  0.45593999997E+02  0.45594000000E+02  0.51100000000E-03 0.  1.
         11   -1    0    0    0    0 -0.00000000000E+00 -0.00000000000E+00 -0.45593999997E+02  0.45594000000E+02  0.51100000000E-03 0. -1.
    9900012    2    1    2    0    0 -0.14830933980E+02  0.16379234821E+01 -0.37822297558E+02  0.50528860945E+02  0.30000003330E+02 0.  0.
        -12    1    1    2    0    0  0.14830933980E+02 -0.16379234821E+01  0.37822297558E+02  0.40659139055E+02  0.00000000000E+00 0.  1.
         11    1    3    3    0    0  0.16504581318E+01  0.18299381657E+01 -0.10023545614E+02  0.10322022703E+02  0.51100000000E-03 0.  1.
        -11    1    3    3    0    0  0.12398971572E+00  0.77579736160E+01 -0.17426390674E+02  0.19075655173E+02  0.51100000000E-03 0. -1.
         12    1    3    3    0    0 -0.16605381828E+02 -0.79499882997E+01 -0.10372361270E+02  0.21131183070E+02  0.00000000000E+00 0. -1.
</event>
<event>
 7    1  0.5753610E-013  0.5052886E+02  0.7816164E-02  0.1300439E+00
        -11   -1    0    0    0    0  0.00000000000E+00  0.00000000000E+00  0.45593999997E+02  0.45594000000E+02  0.51100000000E-03 0.  1.
         11   -1    0    0    0    0 -0.00000000000E+00 -0.00000000000E+00 -0.45593999997E+02  0.45594000000E+02  0.51100000000E-03 0. -1.
    9900012    2    1    2    0    0  0.33592740257E+02 -0.48647806019E+01 -0.22383632278E+02  0.50528864714E+02  0.30000014784E+02 0.  0.
        -12    1    1    2    0    0 -0.33592740257E+02  0.48647806019E+01  0.22383632278E+02  0.40659135286E+02  0.00000000000E+00 0.  1.
         11    1    3    3    0    0  0.11120414673E+02  0.28786438654E+01  0.15070278811E+01  0.11585393662E+02  0.51100000000E-03 0.  1.
        -11    1    3    3    0    0  0.34822858753E+01  0.55402810491E+01 -0.99177833470E+01  0.11882064459E+02  0.51100000000E-03 0. -1.
         12    1    3    3    0    0  0.18990039708E+02 -0.13283705516E+02 -0.13972876812E+02  0.27061406593E+02  0.00000000000E+00 0. -1.
</event>
<event>
 7    1  0.5753610E-013  0.5052886E+02  0.7816164E-02  0.1300439E+00
        -11   -1    0    0    0    0  0.00000000000E+00  0.00000000000E+00  0.45593999997E+02  0.45594000000E+02  0.51100000000E-03 0.  1.
         11   -1    0    0    0    0 -0.00000000000E+00 -0.00000000000E+00 -0.45593999997E+02  0.45594000000E+02  0.51100000000E-03 0. -1.
    9900012    2    1    2    0    0 -0.21621492557E+01  0.36497894283E+02 -0.17787489125E+02  0.50528856553E+02  0.29999989977E+02 0.  0.
        -12    1    1    2    0    0  0.21621492557E+01 -0.36497894283E+02  0.17787489125E+02  0.40659143447E+02  0.00000000000E+00 0.  1.
         11    1    3    3    0    0 -0.74449621269E+01  0.23065278913E+02 -0.19447715471E+02  0.31074880366E+02  0.51100000000E-03 0. -1.
        -11    1    3    3    0    0 -0.37011152820E+01  0.81621290037E+01  0.54463376381E+00  0.89785984653E+01  0.51100000000E-03 0.  1.
         12    1    3    3    0    0  0.89839281532E+01  0.52704863662E+01  0.11155925828E+01  0.10475377722E+02  0.00000000000E+00 0. -1.
</event>
<event>
 7    1  0.5753610E-013  0.5052886E+02  0.7816164E-02  0.1300439E+00
        -11   -1    0    0    0    0  0.00000000000E+00  0.00000000000E+00  0.45593999997E+02  0.45594000000E+02  0.51100000000E-03 0. -1.
         11   -1    0    0    0    0 -0.00000000000E+00 -0.00000000000E+00 -0.45593999997E+02  0.45594000000E+02  0.51100000000E-03 0.  1.
    9900012    2    1    2    0    0 -0.21025189868E+02 -0.24411218369E+02 -0.24803221996E+02  0.50528855732E+02  0.29999987484E+02 0.  0.
        -12    1    1    2    0    0  0.21025189868E+02  0.24411218369E+02  0.24803221996E+02  0.40659144268E+02  0.00000000000E+00 0.  1.
         11    1    3    3    0    0 -0.18080332170E+02 -0.11360375798E+02 -0.30232128777E+01  0.21566092970E+02  0.51100000000E-03 0. -1.
        -11    1    3    3    0    0 -0.65376422963E+01 -0.11491228546E+01 -0.82374669322E+01  0.10579088422E+02  0.51100000000E-03 0.  1.
         12    1    3    3    0    0  0.35927845986E+01 -0.11901719716E+02 -0.13542542186E+02  0.18383674340E+02  0.00000000000E+00 0. -1.
</event>
<event>
 7    1  0.5753610E-013  0.5052885E+02  0.7816164E-02  0.1300439E+00
        -11   -1    0    0    0    0  0.00000000000E+00  0.00000000000E+00  0.45593999997E+02  0.45594000000E+02  0.51100000000E-03 0.  1.
         11   -1    0    0    0    0 -0.00000000000E+00 -0.00000000000E+00 -0.45593999997E+02  0.45594000000E+02  0.51100000000E-03 0. -1.
    9900012    2    1    2    0    0  0.27416433306E+02 -0.23818680321E+02 -0.18280482929E+02  0.50528850924E+02  0.29999972868E+02 0.  0.
        -12    1    1    2    0    0 -0.27416433306E+02  0.23818680321E+02  0.18280482929E+02  0.40659149076E+02  0.00000000000E+00 0.  1.
         11    1    3    3    0    0  0.67854623781E+01 -0.30190755368E+01 -0.16022868058E+02  0.17660396877E+02  0.51100000000E-03 0. -1.
        -11    1    3    3    0    0  0.13808518944E+02 -0.49066080848E+01 -0.47263682852E+01  0.15397680206E+02  0.51100000000E-03 0.  1.
        -12    1    3    3    0    0  0.68224519844E+01 -0.15892996700E+02  0.24687534138E+01  0.17470773841E+02  0.00000000000E+00 0.  1.
</event>
<event>
 7    1  0.5753610E-013  0.5052882E+02  0.7816164E-02  0.1300439E+00
        -11   -1    0    0    0    0  0.00000000000E+00  0.00000000000E+00  0.45593999997E+02  0.45594000000E+02  0.51100000000E-03 0.  1.
         11   -1    0    0    0    0 -0.00000000000E+00 -0.00000000000E+00 -0.45593999997E+02  0.45594000000E+02  0.51100000000E-03 0. -1.
    9900012    2    1    2    0    0 -0.19111647023E+02  0.35147372188E+02 -0.72509329815E+01  0.50528820806E+02  0.29999881321E+02 0.  0.
        -12    1    1    2    0    0  0.19111647023E+02 -0.35147372188E+02  0.72509329815E+01  0.40659179194E+02  0.00000000000E+00 0.  1.
         11    1    3    3    0    0  0.25620107526E+01  0.34691216575E+01 -0.66999099856E+01  0.79679042569E+01  0.51100000000E-03 0. -1.
        -11    1    3    3    0    0 -0.67275680622E+01  0.60382794165E+01  0.75708556514E+01  0.11791473441E+02  0.51100000000E-03 0.  1.
         12    1    3    3    0    0 -0.14946089713E+02  0.25639971114E+02 -0.81218786473E+01  0.30769443108E+02  0.00000000000E+00 0. -1.
</event>
<event>
 7    1  0.5753610E-013  0.5052886E+02  0.7816164E-02  0.1300439E+00
        -11   -1    0    0    0    0  0.00000000000E+00  0.00000000000E+00  0.45593999997E+02  0.45594000000E+02  0.51100000000E-03 0. -1.
         11   -1    0    0    0    0 -0.00000000000E+00 -0.00000000000E+00 -0.45593999997E+02  0.45594000000E+02  0.51100000000E-03 0.  1.
    9900012    2    1    2    0    0  0.12721725251E+02  0.41305743565E+01  0.38396116575E+02  0.50528859503E+02  0.29999998946E+02 0.  0.
        -12    1    1    2    0    0 -0.12721725251E+02 -0.41305743565E+01 -0.38396116575E+02  0.40659140497E+02  0.00000000000E+00 0.  1.
         11    1    3    3    0    0  0.12968176385E+01  0.43060868715E+00  0.19828467196E+02  0.19875494244E+02  0.51100000000E-03 0. -1.
        -11    1    3    3    0    0 -0.28710472549E+01 -0.57996323623E+01  0.19403477040E+01  0.67560045404E+01  0.51100000000E-03 0.  1.
         12    1    3    3    0    0  0.14295954867E+02  0.94995980316E+01  0.16627301675E+02  0.23897360718E+02  0.00000000000E+00 0. -1.
</event>
<event>
 7    1  0.5753610E-013  0.5052886E+02  0.7816164E-02  0.1300439E+00
        -11   -1    0    0    0    0  0.00000000000E+00  0.00000000000E+00  0.45593999997E+02  0.45594000000E+02  0.51100000000E-03 0. -1.
         11   -1    0    0    0    0 -0.00000000000E+00 -0.00000000000E+00 -0.45593999997E+02  0.45594000000E+02  0.51100000000E-03 0.  1.
    9900012    2    1    2    0    0 -0.17576037606E+02 -0.23759791841E+02  0.27923479009E+02  0.50528862205E+02  0.30000007159E+02 0.  0.
        -12    1    1    2    0    0  0.17576037606E+02  0.23759791841E+02 -0.27923479009E+02  0.40659137795E+02  0.00000000000E+00 0.  1.
         11    1    3    3    0    0  0.56459812812E+01 -0.13076481285E+02  0.10649006671E+02  0.17784060581E+02  0.51100000000E-03 0. -1.
        -11    1    3    3    0    0 -0.15952566426E+01 -0.96794602098E+00 -0.15862402100E+01  0.24490654381E+01  0.51100000000E-03 0.  1.
         12    1    3    3    0    0 -0.21626762245E+02 -0.97153645352E+01  0.18860712548E+02  0.30295736186E+02  0.00000000000E+00 0. -1.
</event>
<event>
 7    1  0.5753610E-013  0.5052895E+02  0.7816164E-02  0.1300438E+00
        -11   -1    0    0    0    0  0.00000000000E+00  0.00000000000E+00  0.45593999997E+02  0.45594000000E+02  0.51100000000E-03 0.  1.
         11   -1    0    0    0    0 -0.00000000000E+00 -0.00000000000E+00 -0.45593999997E+02  0.45594000000E+02  0.51100000000E-03 0. -1.
    9900012    2    1    2    0    0 -0.20632511924E+02 -0.30715984755E+02 -0.16851894152E+02  0.50528946835E+02  0.30000264399E+02 0.  0.
        -12    1    1    2    0    0  0.20632511924E+02  0.30715984755E+02  0.16851894152E+02  0.40659053165E+02  0.00000000000E+00 0.  1.
         11    1    3    3    0    0 -0.78089542099E+01 -0.13437617585E+01 -0.24285729312E+01  0.82875465766E+01  0.51100000000E-03 0.  1.
        -11    1    3    3    0    0 -0.18773891827E+02 -0.25992439613E+02 -0.14950896363E+02  0.35377891877E+02  0.51100000000E-03 0. -1.
        -12    1    3    3    0    0  0.59503341126E+01 -0.33797833837E+01  0.52757514202E+00  0.68635083815E+01  0.00000000000E+00 0.  1.
</event>
<event>
 7    1  0.5753610E-013  0.5052886E+02  0.7816164E-02  0.1300439E+00
        -11   -1    0    0    0    0  0.00000000000E+00  0.00000000000E+00  0.45593999997E+02  0.45594000000E+02  0.51100000000E-03 0.  1.
         11   -1    0    0    0    0 -0.00000000000E+00 -0.00000000000E+00 -0.45593999997E+02  0.45594000000E+02  0.51100000000E-03 0. -1.
    9900012    2    1    2    0    0 -0.35035092651E+02  0.85992291563E+01 -0.18755306831E+02  0.50528855968E+02  0.29999988199E+02 0.  0.
        -12    1    1    2    0    0  0.35035092651E+02 -0.85992291563E+01  0.18755306831E+02  0.40659144032E+02  0.00000000000E+00 0.  1.
         11    1    3    3    0    0 -0.91240728085E+01 -0.61873545906E+01 -0.15496121518E+02  0.19017408967E+02  0.51100000000E-03 0. -1.
        -11    1    3    3    0    0 -0.13390522847E+02  0.88800613837E+01  0.29550871484E+01  0.16336894828E+02  0.51100000000E-03 0.  1.
        -12    1    3    3    0    0 -0.12520496995E+02  0.59065223632E+01 -0.62142724607E+01  0.15174552173E+02  0.00000000000E+00 0.  1.
</event>
<event>
 7    1  0.8117088E-013  0.5052886E+02  0.7816164E-02  0.1300439E+00
        -11   -1    0    0    0    0  0.00000000000E+00  0.00000000000E+00  0.45593999997E+02  0.45594000000E+02  0.51100000000E-03 0. -1.
         11   -1    0    0    0    0 -0.00000000000E+00 -0.00000000000E+00 -0.45593999997E+02  0.45594000000E+02  0.51100000000E-03 0.  1.
    9900012    2    1    2    0    0  0.17758398434E+02 -0.31249002079E+02  0.19008017043E+02  0.50528861326E+02  0.30000004486E+02 0.  0.
        -12    1    1    2    0    0 -0.17758398434E+02  0.31249002079E+02 -0.19008017043E+02  0.40659138674E+02  0.00000000000E+00 0.  1.
         11    1    3    3    0    0  0.65947665529E+01 -0.10846081522E+02  0.15189142787E+02  0.19794910688E+02  0.51100000000E-03 0. -1.
        -11    1    3    3    0    0  0.14596539840E+02 -0.71001044802E+01  0.48934773715E+01  0.16953364857E+02  0.51100000000E-03 0.  1.
        -12    1    3    3    0    0 -0.34329079590E+01 -0.13302816077E+02 -0.10746031155E+01  0.13780585781E+02  0.00000000000E+00 0.  1.
</event>
<event>
 7    1  0.5753610E-013  0.5052885E+02  0.7816164E-02  0.1300439E+00
        -11   -1    0    0    0    0  0.00000000000E+00  0.00000000000E+00  0.45593999997E+02  0.45594000000E+02  0.51100000000E-03 0.  1.
         11   -1    0    0    0    0 -0.00000000000E+00 -0.00000000000E+00 -0.45593999997E+02  0.45594000000E+02  0.51100000000E-03 0. -1.
    9900012    2    1    2    0    0 -0.25978859301E+02  0.23320783409E+02 -0.20842420218E+02  0.50528849125E+02  0.29999967399E+02 0.  0.
        -12    1    1    2    0    0  0.25978859301E+02 -0.23320783409E+02  0.20842420218E+02  0.40659150875E+02  0.00000000000E+00 0.  1.
         11    1    3    3    0    0 -0.15706916204E+01  0.11232180512E+02 -0.61345364162E+01  0.12894242456E+02  0.51100000000E-03 0. -1.
        -11    1    3    3    0    0 -0.74056154316E+01 -0.47514929386E+01 -0.98649976774E+01  0.13218850347E+02  0.51100000000E-03 0.  1.
         12    1    3    3    0    0 -0.17002552249E+02  0.16840095835E+02 -0.48428861241E+01  0.24415756321E+02  0.00000000000E+00 0. -1.
</event>
<event>
 7    1  0.5753610E-013  0.5052886E+02  0.7816164E-02  0.1300439E+00
        -11   -1    0    0    0    0  0.00000000000E+00  0.00000000000E+00  0.45593999997E+02  0.45594000000E+02  0.51100000000E-03 0.  1.
         11   -1    0    0    0    0 -0.00000000000E+00 -0.00000000000E+00 -0.45593999997E+02  0.45594000000E+02  0.51100000000E-03 0. -1.
    9900012    2    1    2    0    0  0.25097558334E+02  0.69028766044E+01 -0.31235049195E+02  0.50528862799E+02  0.30000008963E+02 0.  0.
        -12    1    1    2    0    0 -0.25097558334E+02 -0.69028766044E+01  0.31235049195E+02  0.40659137201E+02  0.00000000000E+00 0.  1.
         11    1    3    3    0    0  0.19700546019E+01  0.63948547263E+01 -0.48984534209E+01  0.82927756682E+01  0.51100000000E-03 0. -1.
        -11    1    3    3    0    0  0.78852245326E+01  0.10700580051E+02 -0.52476690361E+01  0.14290458702E+02  0.51100000000E-03 0.  1.
        -12    1    3    3    0    0  0.15242279200E+02 -0.10192558173E+02 -0.21088926738E+02  0.27945628428E+02  0.00000000000E+00 0.  1.
</event>
<event>
 7    1  0.5753610E-013  0.5052886E+02  0.7816164E-02  0.1300439E+00
        -11   -1    0    0    0    0  0.00000000000E+00  0.00000000000E+00  0.45593999997E+02  0.45594000000E+02  0.51100000000E-03 0.  1.
         11   -1    0    0    0    0 -0.00000000000E+00 -0.00000000000E+00 -0.45593999997E+02  0.45594000000E+02  0.51100000000E-03 0. -1.
    9900012    2    1    2    0    0  0.90091817123E+01 -0.30249837510E+02 -0.25630993955E+02  0.50528857417E+02  0.29999992603E+02 0.  0.
        -12    1    1    2    0    0 -0.90091817123E+01  0.30249837510E+02  0.25630993955E+02  0.40659142583E+02  0.00000000000E+00 0.  1.
         11    1    3    3    0    0 -0.13294324837E+01 -0.12304239708E+02 -0.88074480552E+01  0.15189892923E+02  0.51100000000E-03 0. -1.
        -11    1    3    3    0    0 -0.37059628194E+01 -0.33328003218E+01 -0.14018247238E+02  0.14877935821E+02  0.51100000000E-03 0.  1.
         12    1    3    3    0    0  0.14044577015E+02 -0.14612797481E+02 -0.28052986615E+01  0.20461028673E+02  0.00000000000E+00 0. -1.
</event>
<event>
 7    1  0.5753610E-013  0.5052886E+02  0.7816164E-02  0.1300439E+00
        -11   -1    0    0    0    0  0.00000000000E+00  0.00000000000E+00  0.45593999997E+02  0.45594000000E+02  0.51100000000E-03 0. -1.
         11   -1    0    0    0    0 -0.00000000000E+00 -0.00000000000E+00 -0.45593999997E+02  0.45594000000E+02  0.51100000000E-03 0.  1.
    9900012    2    1    2    0    0  0.39839840592E+02 -0.24739294378E+01  0.77351536797E+01  0.50528858006E+02  0.29999994395E+02 0.  0.
        -12    1    1    2    0    0 -0.39839840592E+02  0.24739294378E+01 -0.77351536797E+01  0.40659141994E+02  0.00000000000E+00 0.  1.
         11    1    3    3    0    0  0.34671590567E+02  0.49670606023E+01  0.40267337003E+01  0.35256282674E+02  0.51100000000E-03 0. -1.
        -11    1    3    3    0    0  0.88854043223E+01 -0.53194977617E+01  0.36863409405E+01  0.10992569136E+02  0.51100000000E-03 0.  1.
        -12    1    3    3    0    0 -0.37171542970E+01 -0.21214922784E+01  0.22079038905E-01  0.42800061962E+01  0.00000000000E+00 0.  1.
</event>
<event>
 7    1  0.5753610E-013  0.5052885E+02  0.7816164E-02  0.1300439E+00
        -11   -1    0    0    0    0  0.00000000000E+00  0.00000000000E+00  0.45593999997E+02  0.45594000000E+02  0.51100000000E-03 0. -1.
         11   -1    0    0    0    0 -0.00000000000E+00 -0.00000000000E+00 -0.45593999997E+02  0.45594000000E+02  0.51100000000E-03 0.  1.
    9900012    2    1    2    0    0  0.24494614943E+02  0.75714125099E+01  0.31557151482E+02  0.50528852711E+02  0.29999978300E+02 0.  0.
        -12    1    1    2    0    0 -0.24494614943E+02 -0.75714125099E+01 -0.31557151482E+02  0.40659147289E+02  0.00000000000E+00 0.  1.
         11    1    3    3    0    0  0.11545934199E+02 -0.58656216122E+00  0.17139272045E+02  0.20673831241E+02  0.51100000000E-03 0. -1.
        -11    1    3    3    0    0  0.16677810525E+02  0.11955842791E+02  0.95179244688E+01  0.22620398476E+02  0.51100000000E-03 0.  1.
         12    1    3    3    0    0 -0.37291297802E+01 -0.37978681202E+01  0.48999549679E+01  0.72346229939E+01  0.00000000000E+00 0. -1.
</event>
<event>
 7    1  0.5753610E-013  0.5052886E+02  0.7816164E-02  0.1300439E+00
        -11   -1    0    0    0    0  0.00000000000E+00  0.00000000000E+00  0.45593999997E+02  0.45594000000E+02  0.51100000000E-03 0. -1.
         11   -1    0    0    0    0 -0.00000000000E+00 -0.00000000000E+00 -0.45593999997E+02  0.45594000000E+02  0.51100000000E-03 0.  1.
    9900012    2    1    2    0    0 -0.39241944873E+02 -0.22501639168E+01  0.10400581910E+02  0.50528861062E+02  0.30000003685E+02 0.  0.
        -12    1    1    2    0    0  0.39241944873E+02  0.22501639168E+01 -0.10400581910E+02  0.40659138938E+02  0.00000000000E+00 0.  1.
         11    1    3    3    0    0 -0.22836921733E+02  0.66318892873E+01  0.53139704110E+01  0.24366888015E+02  0.51100000000E-03 0. -1.
        -11    1    3    3    0    0 -0.17313631030E+02 -0.62301032758E+01 -0.20310293905E+01  0.18512187524E+02  0.51100000000E-03 0.  1.
         12    1    3    3    0    0  0.90860788978E+00 -0.26519499284E+01  0.71176408899E+01  0.76497855236E+01  0.00000000000E+00 0. -1.
</event>
<event>
 7    1  0.5753610E-013  0.5052886E+02  0.7816164E-02  0.1300439E+00
        -11   -1    0    0    0    0  0.00000000000E+00  0.00000000000E+00  0.45593999997E+02  0.45594000000E+02  0.51100000000E-03 0.  1.
         11   -1    0    0    0    0 -0.00000000000E+00 -0.00000000000E+00 -0.45593999997E+02  0.45594000000E+02  0.51100000000E-03 0. -1.
    9900012    2    1    2    0    0 -0.56213875174E+01  0.16996455371E+02 -0.36505969422E+02  0.50528864541E+02  0.30000014260E+02 0.  0.
        -12    1    1    2    0    0  0.56213875174E+01 -0.16996455371E+02  0.36505969422E+02  0.40659135459E+02  0.00000000000E+00 0.  1.
         11    1    3    3    0    0  0.56277134864E+01  0.26542347038E+01  0.75916838201E+00  0.62683696319E+01  0.51100000000E-03 0. -1.
        -11    1    3    3    0    0  0.33125228779E+01  0.18924987806E+01 -0.11747641005E+02  0.12351575968E+02  0.51100000000E-03 0.  1.
        -12    1    3    3    0    0 -0.14561623882E+02  0.12449721886E+02 -0.25517496800E+02  0.31908918942E+02  0.00000000000E+00 0.  1.
</event>
<event>
 7    1  0.5753610E-013  0.5052886E+02  0.7816164E-02  0.1300439E+00
        -11   -1    0    0    0    0  0.00000000000E+00  0.00000000000E+00  0.45593999997E+02  0.45594000000E+02  0.51100000000E-03 0.  1.
         11   -1    0    0    0    0 -0.00000000000E+00 -0.00000000000E+00 -0.45593999997E+02  0.45594000000E+02  0.51100000000E-03 0. -1.
    9900012    2    1    2    0    0 -0.29729137856E+02  0.11087781165E+02 -0.25424496215E+02  0.50528861585E+02  0.30000005274E+02 0.  0.
        -12    1    1    2    0    0  0.29729137856E+02 -0.11087781165E+02  0.25424496215E+02  0.40659138415E+02  0.00000000000E+00 0.  1.
         11    1    3    3    0    0 -0.11579551561E+02  0.13730320035E+02 -0.88264696366E+01  0.20012852598E+02  0.51100000000E-03 0. -1.
        -11    1    3    3    0    0  0.23232282620E+01  0.90079563155E-01 -0.76699503865E+01  0.80145893892E+01  0.51100000000E-03 0.  1.
        -12    1    3    3    0    0 -0.20472814558E+02 -0.27326184327E+01 -0.89280761921E+01  0.22501419598E+02  0.00000000000E+00 0.  1.
</event>
