<event>
 7    1  0.1113211E-011  0.5930193E+02  0.7816164E-02  0.1266605E+00
        -11   -1    0    0    0    0  0.00000000000E+00  0.00000000000E+00  0.45593999997E+02  0.45594000000E+02  0.51100000000E-03 0. -1.
         11   -1    0    0    0    0 -0.00000000000E+00 -0.00000000000E+00 -0.45593999997E+02  0.45594000000E+02  0.51100000000E-03 0.  1.
    9900012    2    1    2    0    0 -0.29819898489E+02 -0.10456320952E+02 -0.42615051393E+01  0.59301930632E+02  0.49999975569E+02 0.  0.
        -12    1    1    2    0    0  0.29819898489E+02  0.10456320952E+02  0.42615051393E+01  0.31886069368E+02  0.00000000000E+00 0.  1.
         11    1    3    3    0    0 -0.10413550785E+02 -0.20705047527E+02  0.39886610358E+01  0.23517024688E+02  0.51100000000E-03 0. -1.
        -11    1    3    3    0    0 -0.24793632007E+01  0.75275244990E+01  0.86357351878E+01  0.11721211092E+02  0.51100000000E-03 0.  1.
         12    1    3    3    0    0 -0.16926984503E+02  0.27212020759E+01 -0.16885901363E+02  0.24063694852E+02  0.00000000000E+00 0. -1.
</event>
<event>
 7    1  0.1113211E-011  0.5930193E+02  0.7816164E-02  0.1266605E+00
        -11   -1    0    0    0    0  0.00000000000E+00  0.00000000000E+00  0.45593999997E+02  0.45594000000E+02  0.51100000000E-03 0.  1.
         11   -1    0    0    0    0 -0.00000000000E+00 -0.00000000000E+00 -0.45593999997E+02  0.45594000000E+02  0.51100000000E-03 0. -1.
    9900012    2    1    2    0    0 -0.10321850314E+02  0.21898909936E+02 -0.20751349563E+02  0.59301931585E+02  0.49999977307E+02 0.  0.
        -12    1    1    2    0    0  0.10321850314E+02 -0.21898909936E+02  0.20751349563E+02  0.31886068415E+02  0.00000000000E+00 0.  1.
         11    1    3    3    0    0  0.73818319182E-01 -0.29330739268E+01 -0.16840033215E+02  0.17093714948E+02  0.51100000000E-03 0. -1.
        -11    1    3    3    0    0  0.30715214578E+01  0.27536843478E+02 -0.59001371154E+01  0.28328847683E+02  0.51100000000E-03 0.  1.
        -12    1    3    3    0    0 -0.13467190091E+02 -0.27048596155E+01  0.19888207670E+01  0.13879368953E+02  0.00000000000E+00 0.  1.
</event>
<event>
 7    1  0.1113211E-011  0.5930193E+02  0.7816164E-02  0.1266605E+00
        -11   -1    0    0    0    0  0.00000000000E+00  0.00000000000E+00  0.45593999997E+02  0.45594000000E+02  0.51100000000E-03 0.  1.
         11   -1    0    0    0    0 -0.00000000000E+00 -0.00000000000E+00 -0.45593999997E+02  0.45594000000E+02  0.51100000000E-03 0. -1.
    9900012    2    1    2    0    0  0.13490263864E+02 -0.21486889696E+02 -0.19314438755E+02  0.59301934198E+02  0.49999982073E+02 0.  0.
        -12    1    1    2    0    0 -0.13490263864E+02  0.21486889696E+02  0.19314438755E+02  0.31886065802E+02  0.00000000000E+00 0.  1.
         11    1    3    3    0    0 -0.82407331623E+00 -0.26055018271E+01  0.13797752725E+02  0.14065764008E+02  0.51100000000E-03 0. -1.
        -11    1    3    3    0    0  0.13575813395E+02 -0.16247688110E+02 -0.12801322611E+02  0.24741946954E+02  0.51100000000E-03 0.  1.
         12    1    3    3    0    0  0.73852378504E+00 -0.26336997585E+01 -0.20310868870E+02  0.20494223236E+02  0.00000000000E+00 0. -1.
</event>
<event>
 7    1  0.1113211E-011  0.5930198E+02  0.7816164E-02  0.1266605E+00
        -11   -1    0    0    0    0  0.00000000000E+00  0.00000000000E+00  0.45593999997E+02  0.45594000000E+02  0.51100000000E-03 0. -1.
         11   -1    0    0    0    0 -0.00000000000E+00 -0.00000000000E+00 -0.45593999997E+02  0.45594000000E+02  0.51100000000E-03 0.  1.
    9900012    2    1    2    0    0 -0.28431348374E+02 -0.54102260729E+01 -0.13383048362E+02  0.59301982689E+02  0.50000070509E+02 0.  0.
        -12    1    1    2    0    0  0.28431348374E+02  0.54102260729E+01  0.13383048362E+02  0.31886017311E+02  0.00000000000E+00 0.  1.
         11    1    3    3    0    0 -0.13099464511E+02 -0.66797321438E+01  0.15927028030E+02  0.21676831274E+02  0.51100000000E-03 0. -1.
        -11    1    3    3    0    0 -0.94612292900E+01  0.90629834946E+01 -0.21273894517E+02  0.24984617621E+02  0.51100000000E-03 0.  1.
         12    1    3    3    0    0 -0.58706545728E+01 -0.77934774238E+01 -0.80361818747E+01  0.12640533794E+02  0.00000000000E+00 0. -1.
</event>
<event>
 7    1  0.1113211E-011  0.5930194E+02  0.7816164E-02  0.1266605E+00
        -11   -1    0    0    0    0  0.00000000000E+00  0.00000000000E+00  0.45593999997E+02  0.45594000000E+02  0.51100000000E-03 0.  1.
         11   -1    0    0    0    0 -0.00000000000E+00 -0.00000000000E+00 -0.45593999997E+02  0.45594000000E+02  0.51100000000E-03 0. -1.
    9900012    2    1    2    0    0  0.16574362363E+02 -0.18069330972E+02 -0.20384074850E+02  0.59301941651E+02  0.49999995666E+02 0.  0.
        -12    1    1    2    0    0 -0.16574362363E+02  0.18069330972E+02  0.20384074850E+02  0.31886058349E+02  0.00000000000E+00 0.  1.
         11    1    3    3    0    0 -0.63053700011E+01 -0.21799166335E+02 -0.15416925051E+00  0.22693283415E+02  0.51100000000E-03 0.  1.
        -11    1    3    3    0    0  0.21096530427E+02 -0.49227832796E+01 -0.13869107264E+02  0.25722549015E+02  0.51100000000E-03 0. -1.
        -12    1    3    3    0    0  0.17832019376E+01  0.86526186421E+01 -0.63607983351E+01  0.10886109221E+02  0.00000000000E+00 0.  1.
</event>
<event>
 7    1  0.1113211E-011  0.5930196E+02  0.7816164E-02  0.1266605E+00
        -11   -1    0    0    0    0  0.00000000000E+00  0.00000000000E+00  0.45593999997E+02  0.45594000000E+02  0.51100000000E-03 0. -1.
         11   -1    0    0    0    0 -0.00000000000E+00 -0.00000000000E+00 -0.45593999997E+02  0.45594000000E+02  0.51100000000E-03 0.  1.
    9900012    2    1    2    0    0  0.31347733324E+02  0.56750973981E+01 -0.13537902558E+01  0.59301955042E+02  0.50000020087E+02 0.  0.
        -12    1    1    2    0    0 -0.31347733324E+02 -0.56750973981E+01  0.13537902558E+01  0.31886044958E+02  0.00000000000E+00 0.  1.
         11    1    3    3    0    0  0.80433924718E+01  0.67127168352E+01  0.13225067729E+02  0.16871844785E+02  0.51100000000E-03 0. -1.
        -11    1    3    3    0    0  0.42569847656E+01 -0.84359180579E+01 -0.19272470376E+02  0.21464266757E+02  0.51100000000E-03 0.  1.
        -12    1    3    3    0    0  0.19047356087E+02  0.73982986207E+01  0.46936123909E+01  0.20965843500E+02  0.00000000000E+00 0.  1.
</event>
<event>
 7    1  0.1113211E-011  0.5930204E+02  0.7816164E-02  0.1266604E+00
        -11   -1    0    0    0    0  0.00000000000E+00  0.00000000000E+00  0.45593999997E+02  0.45594000000E+02  0.51100000000E-03 0. -1.
         11   -1    0    0    0    0 -0.00000000000E+00 -0.00000000000E+00 -0.45593999997E+02  0.45594000000E+02  0.51100000000E-03 0.  1.
    9900012    2    1    2    0    0  0.19375958269E+02 -0.62787804883E+01  0.24532902582E+02  0.59302044591E+02  0.50000183403E+02 0.  0.
        -12    1    1    2    0    0 -0.19375958269E+02  0.62787804883E+01 -0.24532902582E+02  0.31885955409E+02  0.00000000000E+00 0.  1.
         11    1    3    3    0    0  0.72920337938E+01  0.70984072953E+01  0.17272799583E+02  0.20047711807E+02  0.51100000000E-03 0. -1.
        -11    1    3    3    0    0  0.17556448870E+02 -0.42780126393E+01 -0.87232330827E+01  0.20065519797E+02  0.51100000000E-03 0.  1.
         12    1    3    3    0    0 -0.54725243949E+01 -0.90991751442E+01  0.15983336081E+02  0.19188812987E+02  0.00000000000E+00 0. -1.
</event>
<event>
 7    1  0.1113211E-011  0.5930196E+02  0.7816164E-02  0.1266605E+00
        -11   -1    0    0    0    0  0.00000000000E+00  0.00000000000E+00  0.45593999997E+02  0.45594000000E+02  0.51100000000E-03 0.  1.
         11   -1    0    0    0    0 -0.00000000000E+00 -0.00000000000E+00 -0.45593999997E+02  0.45594000000E+02  0.51100000000E-03 0. -1.
    9900012    2    1    2    0    0 -0.21572447539E+02 -0.26855925757E+00 -0.23479281199E+02  0.59301964459E+02  0.50000037262E+02 0.  0.
        -12    1    1    2    0    0  0.21572447539E+02  0.26855925757E+00  0.23479281199E+02  0.31886035541E+02  0.00000000000E+00 0.  1.
         11    1    3    3    0    0 -0.27732401896E+02 -0.16439287191E+02 -0.54529536422E+01  0.32696650929E+02  0.51100000000E-03 0. -1.
        -11    1    3    3    0    0  0.11133131688E+01  0.13148013008E+02 -0.95530850748E+01  0.16290216296E+02  0.51100000000E-03 0.  1.
        -12    1    3    3    0    0  0.50466411884E+01  0.30227149251E+01 -0.84732424819E+01  0.10315097235E+02  0.00000000000E+00 0.  1.
</event>
<event>
 7    1  0.1113211E-011  0.5930197E+02  0.7816164E-02  0.1266605E+00
        -11   -1    0    0    0    0  0.00000000000E+00  0.00000000000E+00  0.45593999997E+02  0.45594000000E+02  0.51100000000E-03 0.  1.
         11   -1    0    0    0    0 -0.00000000000E+00 -0.00000000000E+00 -0.45593999997E+02  0.45594000000E+02  0.51100000000E-03 0. -1.
    9900012    2    1    2    0    0  0.65929377727E-01  0.20006248503E+02 -0.24828704155E+02  0.59301970522E+02  0.50000048320E+02 0.  0.
        -12    1    1    2    0    0 -0.65929377727E-01 -0.20006248503E+02  0.24828704155E+02  0.31886029478E+02  0.00000000000E+00 0.  1.
         11    1    3    3    0    0  0.14099096766E+02  0.81756613141E+01  0.19942615815E+01  0.16419593388E+02  0.51100000000E-03 0. -1.
        -11    1    3    3    0    0 -0.16145919561E+02  0.11742226924E+02 -0.45072566836E+01  0.20466704050E+02  0.51100000000E-03 0.  1.
         12    1    3    3    0    0  0.21127521731E+01  0.88360265049E-01 -0.22315709053E+02  0.22415673084E+02  0.00000000000E+00 0. -1.
</event>
<event>
 7    1  0.1113211E-011  0.5930199E+02  0.7816164E-02  0.1266605E+00
        -11   -1    0    0    0    0  0.00000000000E+00  0.00000000000E+00  0.45593999997E+02  0.45594000000E+02  0.51100000000E-03 0. -1.
         11   -1    0    0    0    0 -0.00000000000E+00 -0.00000000000E+00 -0.45593999997E+02  0.45594000000E+02  0.51100000000E-03 0.  1.
    9900012    2    1    2    0    0  0.18050442748E+02  0.22450009962E+02  0.13671001283E+02  0.59301988854E+02  0.50000081753E+02 0.  0.
        -12    1    1    2    0    0 -0.18050442748E+02 -0.22450009962E+02 -0.13671001283E+02  0.31886011146E+02  0.00000000000E+00 0.  1.
         11    1    3    3    0    0 -0.15126510805E+01  0.26294890611E+02  0.11629015977E+02  0.28791377153E+02  0.51100000000E-03 0. -1.
        -11    1    3    3    0    0  0.13686457434E+02 -0.53431685861E+01 -0.94832405112E+01  0.17487150096E+02  0.51100000000E-03 0.  1.
         12    1    3    3    0    0  0.58766363941E+01  0.14982879380E+01  0.11525225817E+02  0.13023461605E+02  0.00000000000E+00 0. -1.
</event>
<event>
 7    1  0.1113211E-011  0.5930218E+02  0.7816164E-02  0.1266604E+00
        -11   -1    0    0    0    0  0.00000000000E+00  0.00000000000E+00  0.45593999997E+02  0.45594000000E+02  0.51100000000E-03 0.  1.
         11   -1    0    0    0    0 -0.00000000000E+00 -0.00000000000E+00 -0.45593999997E+02  0.45594000000E+02  0.51100000000E-03 0. -1.
    9900012    2    1    2    0    0 -0.12316633801E+02  0.29026244089E+02 -0.47416263746E+01  0.59302182859E+02  0.50000435568E+02 0.  0.
        -12    1    1    2    0    0  0.12316633801E+02 -0.29026244089E+02  0.47416263746E+01  0.31885817141E+02  0.00000000000E+00 0.  1.
         11    1    3    3    0    0 -0.71077764241E+01  0.27264213910E+02 -0.14189749518E+02  0.31546899016E+02  0.51100000000E-03 0. -1.
        -11    1    3    3    0    0  0.94967889272E+01  0.41369255183E+00 -0.11548726948E+01  0.95756917587E+01  0.51100000000E-03 0.  1.
        -12    1    3    3    0    0 -0.14705646305E+02  0.13483376265E+01  0.10602995839E+02  0.18179592084E+02  0.00000000000E+00 0.  1.
</event>
<event>
 7    1  0.1113211E-011  0.5930191E+02  0.7816164E-02  0.1266605E+00
        -11   -1    0    0    0    0  0.00000000000E+00  0.00000000000E+00  0.45593999997E+02  0.45594000000E+02  0.51100000000E-03 0.  1.
         11   -1    0    0    0    0 -0.00000000000E+00 -0.00000000000E+00 -0.45593999997E+02  0.45594000000E+02  0.51100000000E-03 0. -1.
    9900012    2    1    2    0    0  0.20010481194E+02  0.23741572265E+02 -0.72554192743E+01  0.59301910242E+02  0.49999938383E+02 0.  0.
        -12    1    1    2    0    0 -0.20010481194E+02 -0.23741572265E+02  0.72554192743E+01  0.31886089758E+02  0.00000000000E+00 0.  1.
         11    1    3    3    0    0 -0.58453704754E+01  0.17139170845E+02  0.98627655822E+01  0.20620224985E+02  0.51100000000E-03 0. -1.
        -11    1    3    3    0    0  0.17795887562E+02  0.67484095556E+01  0.78360796123E+00  0.19048587542E+02  0.51100000000E-03 0.  1.
         12    1    3    3    0    0  0.80599641077E+01 -0.14600813627E+00 -0.17901792818E+02  0.19633097715E+02  0.00000000000E+00 0. -1.
</event>
<event>
 7    1  0.1113211E-011  0.5930195E+02  0.7816164E-02  0.1266605E+00
        -11   -1    0    0    0    0  0.00000000000E+00  0.00000000000E+00  0.45593999997E+02  0.45594000000E+02  0.51100000000E-03 0. -1.
         11   -1    0    0    0    0 -0.00000000000E+00 -0.00000000000E+00 -0.45593999997E+02  0.45594000000E+02  0.51100000000E-03 0.  1.
    9900012    2    1    2    0    0  0.14898909526E+02 -0.66210555845E+01  0.27402630385E+02  0.59301952360E+02  0.50000015195E+02 0.  0.
        -12    1    1    2    0    0 -0.14898909526E+02  0.66210555845E+01 -0.27402630385E+02  0.31886047640E+02  0.00000000000E+00 0.  1.
         11    1    3    3    0    0  0.19462551510E+02 -0.25364089171E+01 -0.60787629805E+01  0.20546913177E+02  0.51100000000E-03 0. -1.
        -11    1    3    3    0    0 -0.29746522375E+01 -0.99331267786E+01  0.30054209353E+02  0.31792625932E+02  0.51100000000E-03 0.  1.
         12    1    3    3    0    0 -0.15889897459E+01  0.58484801112E+01  0.34271840116E+01  0.69624132507E+01  0.00000000000E+00 0. -1.
</event>
<event>
 7    1  0.1113211E-011  0.5930179E+02  0.7816164E-02  0.1266605E+00
        -11   -1    0    0    0    0  0.00000000000E+00  0.00000000000E+00  0.45593999997E+02  0.45594000000E+02  0.51100000000E-03 0.  1.
         11   -1    0    0    0    0 -0.00000000000E+00 -0.00000000000E+00 -0.45593999997E+02  0.45594000000E+02  0.51100000000E-03 0. -1.
    9900012    2    1    2    0    0  0.36010850332E+01 -0.26876105711E+02  0.16776095063E+02  0.59301792368E+02  0.49999723409E+02 0.  0.
        -12    1    1    2    0    0 -0.36010850332E+01  0.26876105711E+02 -0.16776095063E+02  0.31886207632E+02  0.00000000000E+00 0.  1.
         11    1    3    3    0    0 -0.73762927972E+01  0.26773566227E+01 -0.11034392553E+02  0.13540153367E+02  0.51100000000E-03 0. -1.
        -11    1    3    3    0    0  0.64753395629E+01 -0.66023681807E+01  0.18318457489E+02  0.20520408697E+02  0.51100000000E-03 0.  1.
         12    1    3    3    0    0  0.45020382674E+01 -0.22951094152E+02  0.94920301264E+01  0.25241230304E+02  0.00000000000E+00 0. -1.
</event>
<event>
 7    1  0.1113211E-011  0.5930193E+02  0.7816164E-02  0.1266605E+00
        -11   -1    0    0    0    0  0.00000000000E+00  0.00000000000E+00  0.45593999997E+02  0.45594000000E+02  0.51100000000E-03 0.  1.
         11   -1    0    0    0    0 -0.00000000000E+00 -0.00000000000E+00 -0.45593999997E+02  0.45594000000E+02  0.51100000000E-03 0. -1.
    9900012    2    1    2    0    0 -0.88090387001E+01 -0.46117123806E+01 -0.30296113689E+02  0.59301928456E+02  0.49999971600E+02 0.  0.
        -12    1    1    2    0    0  0.88090387001E+01  0.46117123806E+01  0.30296113689E+02  0.31886071544E+02  0.00000000000E+00 0.  1.
         11    1    3    3    0    0  0.57685250487E+01 -0.98004729623E+00 -0.15677168142E+02  0.16733498593E+02  0.51100000000E-03 0. -1.
        -11    1    3    3    0    0 -0.26204416328E+02  0.31222310410E+01 -0.79624543955E+01  0.27564840685E+02  0.51100000000E-03 0.  1.
        -12    1    3    3    0    0  0.11626852579E+02 -0.67538961254E+01 -0.66564911510E+01  0.15003589177E+02  0.00000000000E+00 0.  1.
</event>
<event>
 7    1  0.1113211E-011  0.5930194E+02  0.7816164E-02  0.1266605E+00
        -11   -1    0    0    0    0  0.00000000000E+00  0.00000000000E+00  0.45593999997E+02  0.45594000000E+02  0.51100000000E-03 0.  1.
         11   -1    0    0    0    0 -0.00000000000E+00 -0.00000000000E+00 -0.45593999997E+02  0.45594000000E+02  0.51100000000E-03 0. -1.
    9900012    2    1    2    0    0  0.26268341622E+01 -0.16800002601E+02 -0.26973700380E+02  0.59301939452E+02  0.49999991654E+02 0.  0.
        -12    1    1    2    0    0 -0.26268341622E+01  0.16800002601E+02  0.26973700380E+02  0.31886060548E+02  0.00000000000E+00 0.  1.
         11    1    3    3    0    0 -0.59353525968E+01  0.10561156493E+02 -0.13416419255E+02  0.18076690593E+02  0.51100000000E-03 0. -1.
        -11    1    3    3    0    0  0.92098666591E+01 -0.26606839414E+02 -0.20108450457E+02  0.34599065414E+02  0.51100000000E-03 0.  1.
         12    1    3    3    0    0 -0.64767990011E+00 -0.75431967961E+00  0.65511693317E+01  0.66261834448E+01  0.00000000000E+00 0. -1.
</event>
<event>
 7    1  0.1113211E-011  0.5930195E+02  0.7816164E-02  0.1266605E+00
        -11   -1    0    0    0    0  0.00000000000E+00  0.00000000000E+00  0.45593999997E+02  0.45594000000E+02  0.51100000000E-03 0.  1.
         11   -1    0    0    0    0 -0.00000000000E+00 -0.00000000000E+00 -0.45593999997E+02  0.45594000000E+02  0.51100000000E-03 0. -1.
    9900012    2    1    2    0    0 -0.23046919424E+02  0.39926991760E+01 -0.21670679712E+02  0.59301945042E+02  0.50000001849E+02 0.  0.
        -12    1    1    2    0    0  0.23046919424E+02 -0.39926991760E+01  0.21670679712E+02  0.31886054958E+02  0.00000000000E+00 0.  1.
         11    1    3    3    0    0 -0.51986838808E+01 -0.13445266224E+02 -0.54587372004E+01  0.15414256713E+02  0.51100000000E-03 0. -1.
        -11    1    3    3    0    0 -0.17869279774E+02  0.97480238345E+01 -0.24981276806E+02  0.32224203938E+02  0.51100000000E-03 0.  1.
        -12    1    3    3    0    0  0.21044230451E-01  0.76899415658E+01  0.87693342951E+01  0.11663484390E+02  0.00000000000E+00 0.  1.
</event>
<event>
 7    1  0.1113211E-011  0.5930196E+02  0.7816164E-02  0.1266605E+00
        -11   -1    0    0    0    0  0.00000000000E+00  0.00000000000E+00  0.45593999997E+02  0.45594000000E+02  0.51100000000E-03 0.  1.
         11   -1    0    0    0    0 -0.00000000000E+00 -0.00000000000E+00 -0.45593999997E+02  0.45594000000E+02  0.51100000000E-03 0. -1.
    9900012    2    1    2    0    0  0.22198210042E+02  0.20967662816E+02 -0.91823868550E+01  0.59301958518E+02  0.50000026427E+02 0.  0.
        -12    1    1    2    0    0 -0.22198210042E+02 -0.20967662816E+02  0.91823868550E+01  0.31886041482E+02  0.00000000000E+00 0.  1.
         11    1    3    3    0    0  0.19897176497E+02 -0.39082509844E+01 -0.22062681889E+01  0.20397050715E+02  0.51100000000E-03 0. -1.
        -11    1    3    3    0    0  0.39980200983E+00  0.30751622995E+02 -0.17317668537E+01  0.30802941015E+02  0.51100000000E-03 0.  1.
        -12    1    3    3    0    0  0.19012315349E+01 -0.58757091948E+01 -0.52443518124E+01  0.81019667874E+01  0.00000000000E+00 0.  1.
</event>
<event>
 7    1  0.1113211E-011  0.5930198E+02  0.7816164E-02  0.1266605E+00
        -11   -1    0    0    0    0  0.00000000000E+00  0.00000000000E+00  0.45593999997E+02  0.45594000000E+02  0.51100000000E-03 0. -1.
         11   -1    0    0    0    0 -0.00000000000E+00 -0.00000000000E+00 -0.45593999997E+02  0.45594000000E+02  0.51100000000E-03 0.  1.
    9900012    2    1    2    0    0  0.83314627084E+00 -0.25321443137E+02  0.19361002230E+02  0.59301983902E+02  0.50000072722E+02 0.  0.
        -12    1    1    2    0    0 -0.83314627084E+00  0.25321443137E+02 -0.19361002230E+02  0.31886016098E+02  0.00000000000E+00 0.  1.
         11    1    3    3    0    0 -0.82537172010E+00 -0.20370822683E+02  0.17234729211E+02  0.26696208466E+02  0.51100000000E-03 0. -1.
        -11    1    3    3    0    0 -0.40628723038E+01 -0.26017742306E+00 -0.14151570715E+02  0.14725541675E+02  0.51100000000E-03 0.  1.
        -12    1    3    3    0    0  0.57213902947E+01 -0.46904430311E+01  0.16277843734E+02  0.17880233761E+02  0.00000000000E+00 0.  1.
</event>
<event>
 7    1  0.1113211E-011  0.5930198E+02  0.7816164E-02  0.1266605E+00
        -11   -1    0    0    0    0  0.00000000000E+00  0.00000000000E+00  0.45593999997E+02  0.45594000000E+02  0.51100000000E-03 0. -1.
         11   -1    0    0    0    0 -0.00000000000E+00 -0.00000000000E+00 -0.45593999997E+02  0.45594000000E+02  0.51100000000E-03 0.  1.
    9900012    2    1    2    0    0 -0.21383892726E+02 -0.17499632053E+02  0.15912586437E+02  0.59301978028E+02  0.50000062008E+02 0.  0.
        -12    1    1    2    0    0  0.21383892726E+02  0.17499632053E+02 -0.15912586437E+02  0.31886021972E+02  0.00000000000E+00 0.  1.
         11    1    3    3    0    0  0.51270697997E+01 -0.77964078629E+01  0.15934477539E+02  0.18465600315E+02  0.51100000000E-03 0. -1.
        -11    1    3    3    0    0 -0.29204469513E+02 -0.47483529536E+01 -0.83815887064E+01  0.30752218209E+02  0.51100000000E-03 0.  1.
        -12    1    3    3    0    0  0.26935069868E+01 -0.49548712366E+01  0.83596976040E+01  0.10084159503E+02  0.00000000000E+00 0.  1.
</event>
<event>
 7    1  0.1113211E-011  0.5930201E+02  0.7816164E-02  0.1266605E+00
        -11   -1    0    0    0    0  0.00000000000E+00  0.00000000000E+00  0.45593999997E+02  0.45594000000E+02  0.51100000000E-03 0.  1.
         11   -1    0    0    0    0 -0.00000000000E+00 -0.00000000000E+00 -0.45593999997E+02  0.45594000000E+02  0.51100000000E-03 0. -1.
    9900012    2    1    2    0    0  0.22893708696E+02 -0.40273481356E+01 -0.21826015033E+02  0.59302009925E+02  0.50000120180E+02 0.  0.
        -12    1    1    2    0    0 -0.22893708696E+02  0.40273481356E+01  0.21826015033E+02  0.31885990075E+02  0.00000000000E+00 0.  1.
         11    1    3    3    0    0  0.18442718162E+02 -0.97120662515E+01 -0.17647386216E+02  0.27310956127E+02  0.51100000000E-03 0. -1.
        -11    1    3    3    0    0 -0.11747985402E+02 -0.23830092199E+01  0.32637900895E+01  0.12423615414E+02  0.51100000000E-03 0.  1.
        -12    1    3    3    0    0  0.16198975935E+02  0.80677273359E+01 -0.74424189074E+01  0.19567438384E+02  0.00000000000E+00 0.  1.
</event>
<event>
 7    1  0.1113211E-011  0.5930194E+02  0.7816164E-02  0.1266605E+00
        -11   -1    0    0    0    0  0.00000000000E+00  0.00000000000E+00  0.45593999997E+02  0.45594000000E+02  0.51100000000E-03 0.  1.
         11   -1    0    0    0    0 -0.00000000000E+00 -0.00000000000E+00 -0.45593999997E+02  0.45594000000E+02  0.51100000000E-03 0. -1.
    9900012    2    1    2    0    0  0.20336914092E+02 -0.22642266210E+02 -0.95109692876E+01  0.59301939869E+02  0.49999992415E+02 0.  0.
        -12    1    1    2    0    0 -0.20336914092E+02  0.22642266210E+02  0.95109692876E+01  0.31886060131E+02  0.00000000000E+00 0.  1.
         11    1    3    3    0    0  0.19447626825E+02 -0.33200446769E+01  0.12651839265E+02  0.23437191018E+02  0.51100000000E-03 0. -1.
        -11    1    3    3    0    0 -0.48689119510E+01 -0.98896467905E+01 -0.22230331224E+02  0.24813283617E+02  0.51100000000E-03 0.  1.
        -12    1    3    3    0    0  0.57581992184E+01 -0.94325747423E+01  0.67522671562E-01  0.11051465234E+02  0.00000000000E+00 0.  1.
</event>
<event>
 7    1  0.1113211E-011  0.5930192E+02  0.7816164E-02  0.1266605E+00
        -11   -1    0    0    0    0  0.00000000000E+00  0.00000000000E+00  0.45593999997E+02  0.45594000000E+02  0.51100000000E-03 0.  1.
         11   -1    0    0    0    0 -0.00000000000E+00 -0.00000000000E+00 -0.45593999997E+02  0.45594000000E+02  0.51100000000E-03 0. -1.
    9900012    2    1    2    0    0  0.16688174250E+02  0.22863803049E+02 -0.14679018539E+02  0.59301917849E+02  0.49999952257E+02 0.  0.
        -12    1    1    2    0    0 -0.16688174250E+02 -0.22863803049E+02  0.14679018539E+02  0.31886082151E+02  0.00000000000E+00 0.  1.
         11    1    3    3    0    0  0.23561373495E+02  0.18670255796E+02 -0.18258045407E+02  0.35172048487E+02  0.51100000000E-03 0. -1.
        -11    1    3    3    0    0  0.91617975968E+00 -0.35018053408E+01  0.10547251344E+02  0.11151077848E+02  0.51100000000E-03 0.  1.
         12    1    3    3    0    0 -0.77893790050E+01  0.76953525941E+01 -0.69682244759E+01  0.12978791515E+02  0.00000000000E+00 0. -1.
</event>
<event>
 7    1  0.1113211E-011  0.5930197E+02  0.7816164E-02  0.1266605E+00
        -11   -1    0    0    0    0  0.00000000000E+00  0.00000000000E+00  0.45593999997E+02  0.45594000000E+02  0.51100000000E-03 0.  1.
         11   -1    0    0    0    0 -0.00000000000E+00 -0.00000000000E+00 -0.45593999997E+02  0.45594000000E+02  0.51100000000E-03 0. -1.
    9900012    2    1    2    0    0  0.17267206715E+02 -0.70740270786E+01 -0.25855769269E+02  0.59301967144E+02  0.50000042158E+02 0.  0.
        -12    1    1    2    0    0 -0.17267206715E+02  0.70740270786E+01  0.25855769269E+02  0.31886032856E+02  0.00000000000E+00 0.  1.
         11    1    3    3    0    0 -0.15503992730E+00 -0.23049113593E+02 -0.34078753949E+01  0.23300199351E+02  0.51100000000E-03 0. -1.
        -11    1    3    3    0    0  0.20119786078E+01  0.74747814372E+01 -0.15023830346E+02  0.16900766077E+02  0.51100000000E-03 0.  1.
         12    1    3    3    0    0  0.15410268034E+02  0.85003050775E+01 -0.74240635274E+01  0.19101001716E+02  0.00000000000E+00 0. -1.
</event>
<event>
 7    1  0.1113211E-011  0.5930180E+02  0.7816164E-02  0.1266605E+00
        -11   -1    0    0    0    0  0.00000000000E+00  0.00000000000E+00  0.45593999997E+02  0.45594000000E+02  0.51100000000E-03 0.  1.
         11   -1    0    0    0    0 -0.00000000000E+00 -0.00000000000E+00 -0.45593999997E+02  0.45594000000E+02  0.51100000000E-03 0. -1.
    9900012    2    1    2    0    0 -0.81749959436E+00 -0.25370498678E+02 -0.19297655791E+02  0.59301795651E+02  0.49999729395E+02 0.  0.
        -12    1    1    2    0    0  0.81749959436E+00  0.25370498678E+02  0.19297655791E+02  0.31886204349E+02  0.00000000000E+00 0.  1.
         11    1    3    3    0    0  0.40748587752E+01  0.53440811028E+01 -0.81649624054E+01  0.10574984076E+02  0.51100000000E-03 0. -1.
        -11    1    3    3    0    0 -0.16397586725E+02 -0.31087857343E+02 -0.12107612285E+02  0.37174319094E+02  0.51100000000E-03 0.  1.
        -12    1    3    3    0    0  0.11505228356E+02  0.37327756227E+00  0.97491889870E+00  0.11552492481E+02  0.00000000000E+00 0.  1.
</event>
<event>
 7    1  0.1113211E-011  0.5930186E+02  0.7816164E-02  0.1266605E+00
        -11   -1    0    0    0    0  0.00000000000E+00  0.00000000000E+00  0.45593999997E+02  0.45594000000E+02  0.51100000000E-03 0.  1.
         11   -1    0    0    0    0 -0.00000000000E+00 -0.00000000000E+00 -0.45593999997E+02  0.45594000000E+02  0.51100000000E-03 0. -1.
    9900012    2    1    2    0    0 -0.25708141539E+02  0.16142766611E+02 -0.97585093045E+01  0.59301859451E+02  0.49999845753E+02 0.  0.
        -12    1    1    2    0    0  0.25708141539E+02 -0.16142766611E+02  0.97585093045E+01  0.31886140549E+02  0.00000000000E+00 0.  1.
         11    1    3    3    0    0 -0.53179479623E+01  0.14584949676E+02 -0.19816925249E+02  0.25173634107E+02  0.51100000000E-03 0. -1.
        -11    1    3    3    0    0 -0.61104868104E+01 -0.23692286634E+01  0.16668175403E+02  0.17910314488E+02  0.51100000000E-03 0.  1.
        -12    1    3    3    0    0 -0.14279706766E+02  0.39270455989E+01 -0.66097594588E+01  0.16217910857E+02  0.00000000000E+00 0.  1.
</event>
<event>
 7    1  0.1113211E-011  0.5930195E+02  0.7816164E-02  0.1266605E+00
        -11   -1    0    0    0    0  0.00000000000E+00  0.00000000000E+00  0.45593999997E+02  0.45594000000E+02  0.51100000000E-03 0.  1.
         11   -1    0    0    0    0 -0.00000000000E+00 -0.00000000000E+00 -0.45593999997E+02  0.45594000000E+02  0.51100000000E-03 0. -1.
    9900012    2    1    2    0    0  0.16761070611E+02 -0.53453997630E+01 -0.26593487979E+02  0.59301946786E+02  0.50000005030E+02 0.  0.
        -12    1    1    2    0    0 -0.16761070611E+02  0.53453997630E+01  0.26593487979E+02  0.31886053214E+02  0.00000000000E+00 0.  1.
         11    1    3    3    0    0  0.12255814113E+02  0.14160073369E+02 -0.68163014105E+01  0.19929240391E+02  0.51100000000E-03 0. -1.
        -11    1    3    3    0    0  0.51457867798E+01 -0.15969977691E+02  0.23618875473E+01  0.16943961227E+02  0.51100000000E-03 0.  1.
         12    1    3    3    0    0 -0.64053028159E+00 -0.35354954419E+01 -0.22139074116E+02  0.22428745167E+02  0.00000000000E+00 0. -1.
</event>
<event>
 7    1  0.1113211E-011  0.5930195E+02  0.7816164E-02  0.1266605E+00
        -11   -1    0    0    0    0  0.00000000000E+00  0.00000000000E+00  0.45593999997E+02  0.45594000000E+02  0.51100000000E-03 0. -1.
         11   -1    0    0    0    0 -0.00000000000E+00 -0.00000000000E+00 -0.45593999997E+02  0.45594000000E+02  0.51100000000E-03 0.  1.
    9900012    2    1    2    0    0 -0.26494654959E+02 -0.16340755694E+02  0.69088983736E+01  0.59301954231E+02  0.50000018609E+02 0.  0.
        -12    1    1    2    0    0  0.26494654959E+02  0.16340755694E+02 -0.69088983736E+01  0.31886045769E+02  0.00000000000E+00 0.  1.
         11    1    3    3    0    0  0.40078428063E+00 -0.23822453053E+02  0.58983464769E+01  0.24545068525E+02  0.51100000000E-03 0. -1.
        -11    1    3    3    0    0 -0.25275743659E+02  0.20363282510E+01  0.71954531441E+01  0.26358763182E+02  0.51100000000E-03 0.  1.
        -12    1    3    3    0    0 -0.16196955801E+01  0.54453691080E+01 -0.61849012474E+01  0.83981225243E+01  0.00000000000E+00 0.  1.
</event>
<event>
 7    1  0.1113211E-011  0.5930194E+02  0.7816164E-02  0.1266605E+00
        -11   -1    0    0    0    0  0.00000000000E+00  0.00000000000E+00  0.45593999997E+02  0.45594000000E+02  0.51100000000E-03 0. -1.
         11   -1    0    0    0    0 -0.00000000000E+00 -0.00000000000E+00 -0.45593999997E+02  0.45594000000E+02  0.51100000000E-03 0.  1.
    9900012    2    1    2    0    0  0.87011155004E+01 -0.22641148334E+02 -0.20697580735E+02  0.59301939454E+02  0.49999991659E+02 0.  0.
        -12    1    1    2    0    0 -0.87011155004E+01  0.22641148334E+02  0.20697580735E+02  0.31886060546E+02  0.00000000000E+00 0.  1.
         11    1    3    3    0    0 -0.62474039394E+01 -0.77739451899E+01  0.38078257145E+01  0.10675383681E+02  0.51100000000E-03 0. -1.
        -11    1    3    3    0    0  0.11070519048E+02 -0.27014759412E+02 -0.18174345047E+02  0.34389830419E+02  0.51100000000E-03 0.  1.
        -12    1    3    3    0    0  0.38780003917E+01  0.12147556268E+02 -0.63310614032E+01  0.14236725355E+02  0.00000000000E+00 0.  1.
</event>
<event>
 7    1  0.1113211E-011  0.5930206E+02  0.7816164E-02  0.1266604E+00
        -11   -1    0    0    0    0  0.00000000000E+00  0.00000000000E+00  0.45593999997E+02  0.45594000000E+02  0.51100000000E-03 0.  1.
         11   -1    0    0    0    0 -0.00000000000E+00 -0.00000000000E+00 -0.45593999997E+02  0.45594000000E+02  0.51100000000E-03 0. -1.
    9900012    2    1    2    0    0  0.56776945049E+01 -0.16871283121E+02 -0.26454425437E+02  0.59302062124E+02  0.50000215380E+02 0.  0.
        -12    1    1    2    0    0 -0.56776945049E+01  0.16871283121E+02  0.26454425437E+02  0.31885937876E+02  0.00000000000E+00 0.  1.
         11    1    3    3    0    0  0.11906976615E+01  0.72723446550E+01 -0.29170226103E+02  0.30086655661E+02  0.51100000000E-03 0. -1.
        -11    1    3    3    0    0  0.95589045222E+01 -0.20173080982E+02  0.26822471062E+00  0.22324824674E+02  0.51100000000E-03 0.  1.
        -12    1    3    3    0    0 -0.50719076788E+01 -0.39705467935E+01  0.24475759556E+01  0.68905817897E+01  0.00000000000E+00 0.  1.
</event>
<event>
 7    1  0.1113211E-011  0.5930197E+02  0.7816164E-02  0.1266605E+00
        -11   -1    0    0    0    0  0.00000000000E+00  0.00000000000E+00  0.45593999997E+02  0.45594000000E+02  0.51100000000E-03 0.  1.
         11   -1    0    0    0    0 -0.00000000000E+00 -0.00000000000E+00 -0.45593999997E+02  0.45594000000E+02  0.51100000000E-03 0. -1.
    9900012    2    1    2    0    0  0.30387621354E+02 -0.75284101174E+01 -0.60526142971E+01  0.59301974373E+02  0.50000055343E+02 0.  0.
        -12    1    1    2    0    0 -0.30387621354E+02  0.75284101174E+01  0.60526142971E+01  0.31886025627E+02  0.00000000000E+00 0.  1.
         11    1    3    3    0    0 -0.33013111167E+01  0.13347809419E+02 -0.21268773260E+01  0.13913528625E+02  0.51100000000E-03 0. -1.
        -11    1    3    3    0    0  0.14721443908E+02 -0.14285820320E+02  0.80181441821E+01  0.22024899758E+02  0.51100000000E-03 0.  1.
         12    1    3    3    0    0  0.18967488563E+02 -0.65903992166E+01 -0.11943881153E+02  0.23363545990E+02  0.00000000000E+00 0. -1.
</event>
<event>
 7    1  0.1113211E-011  0.5930195E+02  0.7816164E-02  0.1266605E+00
        -11   -1    0    0    0    0  0.00000000000E+00  0.00000000000E+00  0.45593999997E+02  0.45594000000E+02  0.51100000000E-03 0.  1.
         11   -1    0    0    0    0 -0.00000000000E+00 -0.00000000000E+00 -0.45593999997E+02  0.45594000000E+02  0.51100000000E-03 0. -1.
    9900012    2    1    2    0    0  0.30962921009E+02  0.10737706149E+01 -0.75408553320E+01  0.59301953524E+02  0.50000017318E+02 0.  0.
        -12    1    1    2    0    0 -0.30962921009E+02 -0.10737706149E+01  0.75408553320E+01  0.31886046476E+02  0.00000000000E+00 0.  1.
         11    1    3    3    0    0  0.72660034483E+01  0.13335288067E+02  0.38116857398E+01  0.15657383637E+02  0.51100000000E-03 0. -1.
        -11    1    3    3    0    0  0.29374713903E+02 -0.15832796485E+02 -0.38666248581E+01  0.33593184569E+02  0.51100000000E-03 0.  1.
        -12    1    3    3    0    0 -0.56777963421E+01  0.35712790337E+01 -0.74859162137E+01  0.10051385317E+02  0.00000000000E+00 0.  1.
</event>
<event>
 7    1  0.1113211E-011  0.5930194E+02  0.7816164E-02  0.1266605E+00
        -11   -1    0    0    0    0  0.00000000000E+00  0.00000000000E+00  0.45593999997E+02  0.45594000000E+02  0.51100000000E-03 0.  1.
         11   -1    0    0    0    0 -0.00000000000E+00 -0.00000000000E+00 -0.45593999997E+02  0.45594000000E+02  0.51100000000E-03 0. -1.
    9900012    2    1    2    0    0  0.62328425956E+01  0.24726198856E+02  0.19143859319E+02  0.59301943701E+02  0.49999999404E+02 0.  0.
        -12    1    1    2    0    0 -0.62328425956E+01 -0.24726198856E+02 -0.19143859319E+02  0.31886056299E+02  0.00000000000E+00 0.  1.
         11    1    3    3    0    0 -0.56465243619E+01  0.15703549471E+02 -0.46874008469E+01  0.17333679076E+02  0.51100000000E-03 0. -1.
        -11    1    3    3    0    0  0.17063630508E+02 -0.57978421239E-01  0.12810493939E+01  0.17111748462E+02  0.51100000000E-03 0.  1.
        -12    1    3    3    0    0 -0.51842635503E+01  0.90806278065E+01  0.22550210772E+02  0.24856516163E+02  0.00000000000E+00 0.  1.
</event>
<event>
 7    1  0.1113211E-011  0.5930194E+02  0.7816164E-02  0.1266605E+00
        -11   -1    0    0    0    0  0.00000000000E+00  0.00000000000E+00  0.45593999997E+02  0.45594000000E+02  0.51100000000E-03 0.  1.
         11   -1    0    0    0    0 -0.00000000000E+00 -0.00000000000E+00 -0.45593999997E+02  0.45594000000E+02  0.51100000000E-03 0. -1.
    9900012    2    1    2    0    0 -0.10491559478E+02  0.20530553430E+02 -0.22025996001E+02  0.59301938087E+02  0.49999989166E+02 0.  0.
        -12    1    1    2    0    0  0.10491559478E+02 -0.20530553430E+02  0.22025996001E+02  0.31886061913E+02  0.00000000000E+00 0.  1.
         11    1    3    3    0    0 -0.73982897588E+01  0.18040234769E+02 -0.25433037887E+02  0.32047217949E+02  0.51100000000E-03 0. -1.
        -11    1    3    3    0    0  0.24017427111E+01 -0.11600620841E+02  0.24689763940E+01  0.12101182448E+02  0.51100000000E-03 0.  1.
        -12    1    3    3    0    0 -0.54950124301E+01  0.14090939502E+02  0.93806549135E+00  0.15153537690E+02  0.00000000000E+00 0.  1.
</event>
<event>
 7    1  0.1643975E-011  0.5930193E+02  0.7816164E-02  0.1266605E+00
        -11   -1    0    0    0    0  0.00000000000E+00  0.00000000000E+00  0.45593999997E+02  0.45594000000E+02  0.51100000000E-03 0. -1.
         11   -1    0    0    0    0 -0.00000000000E+00 -0.00000000000E+00 -0.45593999997E+02  0.45594000000E+02  0.51100000000E-03 0.  1.
    9900012    2    1    2    0    0 -0.13730632410E+02  0.20807553097E+02  0.19880561725E+02  0.59301933031E+02  0.49999979945E+02 0.  0.
        -12    1    1    2    0    0  0.13730632410E+02 -0.20807553097E+02 -0.19880561725E+02  0.31886066969E+02  0.00000000000E+00 0.  1.
         11    1    3    3    0    0 -0.14123814154E+02  0.17541439348E+02  0.15457757329E+02  0.27315315897E+02  0.51100000000E-03 0. -1.
        -11    1    3    3    0    0 -0.82069631633E+00 -0.12733790495E+02  0.86223781430E+01  0.15400271683E+02  0.51100000000E-03 0.  1.
        -12    1    3    3    0    0  0.12138780600E+01  0.15999904244E+02 -0.41995737475E+01  0.16586345451E+02  0.00000000000E+00 0.  1.
</event>
<event>
 7    1  0.1113211E-011  0.5930199E+02  0.7816164E-02  0.1266605E+00
        -11   -1    0    0    0    0  0.00000000000E+00  0.00000000000E+00  0.45593999997E+02  0.45594000000E+02  0.51100000000E-03 0.  1.
         11   -1    0    0    0    0 -0.00000000000E+00 -0.00000000000E+00 -0.45593999997E+02  0.45594000000E+02  0.51100000000E-03 0. -1.
    9900012    2    1    2    0    0 -0.20284192009E+02 -0.66756936657E+00 -0.24593164191E+02  0.59301987091E+02  0.50000078537E+02 0.  0.
        -12    1    1    2    0    0  0.20284192009E+02  0.66756936657E+00  0.24593164191E+02  0.31886012909E+02  0.00000000000E+00 0.  1.
         11    1    3    3    0    0  0.34107511506E+01 -0.10908847643E+02  0.16314479966E+01  0.11545466779E+02  0.51100000000E-03 0.  1.
        -11    1    3    3    0    0 -0.19232375202E+02  0.54535982972E+00 -0.30660923083E+02  0.36197705422E+02  0.51100000000E-03 0. -1.
         12    1    3    3    0    0 -0.44625679574E+01  0.96959184467E+01  0.44363108962E+01  0.11558814890E+02  0.00000000000E+00 0. -1.
</event>
<event>
 7    1  0.1113211E-011  0.5930196E+02  0.7816164E-02  0.1266605E+00
        -11   -1    0    0    0    0  0.00000000000E+00  0.00000000000E+00  0.45593999997E+02  0.45594000000E+02  0.51100000000E-03 0. -1.
         11   -1    0    0    0    0 -0.00000000000E+00 -0.00000000000E+00 -0.45593999997E+02  0.45594000000E+02  0.51100000000E-03 0.  1.
    9900012    2    1    2    0    0 -0.31429393972E+02 -0.38484857373E+01 -0.37552453600E+01  0.59301960490E+02  0.50000030024E+02 0.  0.
        -12    1    1    2    0    0  0.31429393972E+02  0.38484857373E+01  0.37552453600E+01  0.31886039510E+02  0.00000000000E+00 0.  1.
         11    1    3    3    0    0 -0.11109272841E+02  0.12072010512E+02  0.13394510602E+02  0.21179289303E+02  0.51100000000E-03 0. -1.
        -11    1    3    3    0    0 -0.22715596794E+02 -0.71709312400E+01 -0.16600666355E+02  0.29034509058E+02  0.51100000000E-03 0.  1.
         12    1    3    3    0    0  0.23954756628E+01 -0.87495650089E+01 -0.54908960655E+00  0.90881621295E+01  0.00000000000E+00 0. -1.
</event>
<event>
 7    1  0.1113211E-011  0.5930201E+02  0.7816164E-02  0.1266605E+00
        -11   -1    0    0    0    0  0.00000000000E+00  0.00000000000E+00  0.45593999997E+02  0.45594000000E+02  0.51100000000E-03 0.  1.
         11   -1    0    0    0    0 -0.00000000000E+00 -0.00000000000E+00 -0.45593999997E+02  0.45594000000E+02  0.51100000000E-03 0. -1.
    9900012    2    1    2    0    0 -0.16921978656E+02  0.18052281920E+01 -0.26964867227E+02  0.59302011305E+02  0.50000122698E+02 0.  0.
        -12    1    1    2    0    0  0.16921978656E+02 -0.18052281920E+01  0.26964867227E+02  0.31885988695E+02  0.00000000000E+00 0.  1.
         11    1    3    3    0    0  0.14373340431E+02 -0.13253359988E+01 -0.75167998613E+01  0.16274265301E+02  0.51100000000E-03 0. -1.
        -11    1    3    3    0    0 -0.13002865059E+02 -0.83376680170E+01 -0.26490208269E+01  0.15671902224E+02  0.51100000000E-03 0.  1.
         12    1    3    3    0    0 -0.18292454028E+02  0.11468232208E+02 -0.16799046539E+02  0.27355843781E+02  0.00000000000E+00 0. -1.
</event>
<event>
 7    1  0.1113211E-011  0.5930194E+02  0.7816164E-02  0.1266605E+00
        -11   -1    0    0    0    0  0.00000000000E+00  0.00000000000E+00  0.45593999997E+02  0.45594000000E+02  0.51100000000E-03 0. -1.
         11   -1    0    0    0    0 -0.00000000000E+00 -0.00000000000E+00 -0.45593999997E+02  0.45594000000E+02  0.51100000000E-03 0.  1.
    9900012    2    1    2    0    0  0.10698764683E+02 -0.29181878148E+02 -0.71186696990E+01  0.59301936645E+02  0.49999986536E+02 0.  0.
        -12    1    1    2    0    0 -0.10698764683E+02  0.29181878148E+02  0.71186696990E+01  0.31886063355E+02  0.00000000000E+00 0.  1.
         11    1    3    3    0    0  0.50279820337E+01 -0.11710005301E+02  0.20663825462E+02  0.24277530979E+02  0.51100000000E-03 0. -1.
        -11    1    3    3    0    0  0.65521104451E+00 -0.70047953225E+01 -0.19597173223E+02  0.20821759235E+02  0.51100000000E-03 0.  1.
         12    1    3    3    0    0  0.50155716051E+01 -0.10467077524E+02 -0.81853219376E+01  0.14202646431E+02  0.00000000000E+00 0. -1.
</event>
<event>
 7    1  0.1113211E-011  0.5930194E+02  0.7816164E-02  0.1266605E+00
        -11   -1    0    0    0    0  0.00000000000E+00  0.00000000000E+00  0.45593999997E+02  0.45594000000E+02  0.51100000000E-03 0.  1.
         11   -1    0    0    0    0 -0.00000000000E+00 -0.00000000000E+00 -0.45593999997E+02  0.45594000000E+02  0.51100000000E-03 0. -1.
    9900012    2    1    2    0    0  0.82853682271E+01 -0.11178640532E+02 -0.28689919142E+02  0.59301940488E+02  0.49999993545E+02 0.  0.
        -12    1    1    2    0    0 -0.82853682271E+01  0.11178640532E+02  0.28689919142E+02  0.31886059512E+02  0.00000000000E+00 0.  1.
         11    1    3    3    0    0 -0.56507676728E+01  0.15465105499E+00 -0.36968780168E+02  0.37398473226E+02  0.51100000000E-03 0.  1.
        -11    1    3    3    0    0  0.11184261580E+02 -0.12911556045E+02  0.65858368994E+01  0.18307627769E+02  0.51100000000E-03 0. -1.
         12    1    3    3    0    0  0.27518743199E+01  0.15782644576E+01  0.16930241265E+01  0.35958394935E+01  0.00000000000E+00 0. -1.
</event>
<event>
 7    1  0.1113211E-011  0.5930192E+02  0.7816164E-02  0.1266605E+00
        -11   -1    0    0    0    0  0.00000000000E+00  0.00000000000E+00  0.45593999997E+02  0.45594000000E+02  0.51100000000E-03 0.  1.
         11   -1    0    0    0    0 -0.00000000000E+00 -0.00000000000E+00 -0.45593999997E+02  0.45594000000E+02  0.51100000000E-03 0. -1.
    9900012    2    1    2    0    0  0.13952017093E+02  0.21176456209E+02 -0.19329274783E+02  0.59301922439E+02  0.49999960628E+02 0.  0.
        -12    1    1    2    0    0 -0.13952017093E+02 -0.21176456209E+02  0.19329274783E+02  0.31886077561E+02  0.00000000000E+00 0.  1.
         11    1    3    3    0    0  0.22399575921E+02 -0.34865188978E+01 -0.22487850895E+02  0.31931179959E+02  0.51100000000E-03 0.  1.
        -11    1    3    3    0    0 -0.26593808076E+01  0.16920941456E+02 -0.22209365581E+00  0.17130087329E+02  0.51100000000E-03 0. -1.
        -12    1    3    3    0    0 -0.57881780205E+01  0.77420336509E+01  0.33806697670E+01  0.10240655151E+02  0.00000000000E+00 0.  1.
</event>
<event>
 7    1  0.1113211E-011  0.5930182E+02  0.7816164E-02  0.1266605E+00
        -11   -1    0    0    0    0  0.00000000000E+00  0.00000000000E+00  0.45593999997E+02  0.45594000000E+02  0.51100000000E-03 0. -1.
         11   -1    0    0    0    0 -0.00000000000E+00 -0.00000000000E+00 -0.45593999997E+02  0.45594000000E+02  0.51100000000E-03 0.  1.
    9900012    2    1    2    0    0  0.98201722286E+01  0.27085936823E+02  0.13661800060E+02  0.59301819027E+02  0.49999772028E+02 0.  0.
        -12    1    1    2    0    0 -0.98201722286E+01 -0.27085936823E+02 -0.13661800060E+02  0.31886180973E+02  0.00000000000E+00 0.  1.
         11    1    3    3    0    0  0.20150241116E+02  0.54154736159E+01 -0.38873069035E+01  0.21224295671E+02  0.51100000000E-03 0. -1.
        -11    1    3    3    0    0 -0.61185335303E+01  0.16989425323E+02 -0.13978675220E+01  0.18111627736E+02  0.51100000000E-03 0.  1.
         12    1    3    3    0    0 -0.42115353568E+01  0.46810378835E+01  0.18946974486E+02  0.19965895620E+02  0.00000000000E+00 0. -1.
</event>
<event>
 7    1  0.1113211E-011  0.5930193E+02  0.7816164E-02  0.1266605E+00
        -11   -1    0    0    0    0  0.00000000000E+00  0.00000000000E+00  0.45593999997E+02  0.45594000000E+02  0.51100000000E-03 0.  1.
         11   -1    0    0    0    0 -0.00000000000E+00 -0.00000000000E+00 -0.45593999997E+02  0.45594000000E+02  0.51100000000E-03 0. -1.
    9900012    2    1    2    0    0  0.11739117694E+01  0.28267804650E+02 -0.14706280885E+02  0.59301928652E+02  0.49999971958E+02 0.  0.
        -12    1    1    2    0    0 -0.11739117694E+01 -0.28267804650E+02  0.14706280885E+02  0.31886071348E+02  0.00000000000E+00 0.  1.
         11    1    3    3    0    0  0.32571810789E+01  0.16974068809E+02  0.36197551111E+01  0.17658733472E+02  0.51100000000E-03 0. -1.
        -11    1    3    3    0    0 -0.11081502802E+02 -0.40815950004E+01  0.45440608291E+01  0.12653363631E+02  0.51100000000E-03 0.  1.
        -12    1    3    3    0    0  0.89982334925E+01  0.15375330841E+02 -0.22870096825E+02  0.28989831549E+02  0.00000000000E+00 0.  1.
</event>
<event>
 7    1  0.1113211E-011  0.5930195E+02  0.7816164E-02  0.1266605E+00
        -11   -1    0    0    0    0  0.00000000000E+00  0.00000000000E+00  0.45593999997E+02  0.45594000000E+02  0.51100000000E-03 0. -1.
         11   -1    0    0    0    0 -0.00000000000E+00 -0.00000000000E+00 -0.45593999997E+02  0.45594000000E+02  0.51100000000E-03 0.  1.
    9900012    2    1    2    0    0  0.90631338017E+01 -0.13897824209E+02  0.27229211978E+02  0.59301954510E+02  0.50000019117E+02 0.  0.
        -12    1    1    2    0    0 -0.90631338017E+01  0.13897824209E+02 -0.27229211978E+02  0.31886045490E+02  0.00000000000E+00 0.  1.
         11    1    3    3    0    0 -0.20406312803E+01  0.48522868945E+01 -0.83355892228E+01  0.98585451301E+01  0.51100000000E-03 0. -1.
        -11    1    3    3    0    0  0.18430877376E+02 -0.17501576361E+02  0.20532521507E+02  0.32673947660E+02  0.51100000000E-03 0.  1.
         12    1    3    3    0    0 -0.73271122941E+01 -0.12485347420E+01  0.15032279694E+02  0.16769461719E+02  0.00000000000E+00 0. -1.
</event>
<event>
 7    1  0.1113211E-011  0.5930193E+02  0.7816164E-02  0.1266605E+00
        -11   -1    0    0    0    0  0.00000000000E+00  0.00000000000E+00  0.45593999997E+02  0.45594000000E+02  0.51100000000E-03 0.  1.
         11   -1    0    0    0    0 -0.00000000000E+00 -0.00000000000E+00 -0.45593999997E+02  0.45594000000E+02  0.51100000000E-03 0. -1.
    9900012    2    1    2    0    0 -0.13559621262E+02 -0.25489227357E+02  0.13533564707E+02  0.59301930727E+02  0.49999975742E+02 0.  0.
        -12    1    1    2    0    0  0.13559621262E+02  0.25489227357E+02 -0.13533564707E+02  0.31886069273E+02  0.00000000000E+00 0.  1.
         11    1    3    3    0    0 -0.17514799846E+02 -0.14250158049E+02  0.39297541153E+01  0.22918948181E+02  0.51100000000E-03 0.  1.
        -11    1    3    3    0    0  0.18132199294E+02 -0.10210649478E+02  0.68210627268E+01  0.21898879217E+02  0.51100000000E-03 0. -1.
         12    1    3    3    0    0 -0.14177020710E+02 -0.10284198297E+01  0.27827478646E+01  0.14484103328E+02  0.00000000000E+00 0. -1.
</event>
<event>
 7    1  0.1113211E-011  0.5930195E+02  0.7816164E-02  0.1266605E+00
        -11   -1    0    0    0    0  0.00000000000E+00  0.00000000000E+00  0.45593999997E+02  0.45594000000E+02  0.51100000000E-03 0.  1.
         11   -1    0    0    0    0 -0.00000000000E+00 -0.00000000000E+00 -0.45593999997E+02  0.45594000000E+02  0.51100000000E-03 0. -1.
    9900012    2    1    2    0    0 -0.27539713171E+02  0.67768347128E+01 -0.14572542601E+02  0.59301948377E+02  0.50000007931E+02 0.  0.
        -12    1    1    2    0    0  0.27539713171E+02 -0.67768347128E+01  0.14572542601E+02  0.31886051623E+02  0.00000000000E+00 0.  1.
         11    1    3    3    0    0 -0.58309871259E+01  0.18694940326E+02 -0.10565813237E+02  0.22251687897E+02  0.51100000000E-03 0. -1.
        -11    1    3    3    0    0 -0.16420841875E+02 -0.14817696808E+02 -0.13419954135E+02  0.25870897855E+02  0.51100000000E-03 0.  1.
        -12    1    3    3    0    0 -0.52878841700E+01  0.28995911948E+01  0.94132247710E+01  0.11179362624E+02  0.00000000000E+00 0.  1.
</event>
<event>
 7    1  0.1113211E-011  0.5930194E+02  0.7816164E-02  0.1266605E+00
        -11   -1    0    0    0    0  0.00000000000E+00  0.00000000000E+00  0.45593999997E+02  0.45594000000E+02  0.51100000000E-03 0. -1.
         11   -1    0    0    0    0 -0.00000000000E+00 -0.00000000000E+00 -0.45593999997E+02  0.45594000000E+02  0.51100000000E-03 0.  1.
    9900012    2    1    2    0    0 -0.98536854667E+01  0.25473521720E+02  0.16453740643E+02  0.59301937100E+02  0.49999987366E+02 0.  0.
        -12    1    1    2    0    0  0.98536854667E+01 -0.25473521720E+02 -0.16453740643E+02  0.31886062900E+02  0.00000000000E+00 0.  1.
         11    1    3    3    0    0 -0.37687949051E+01  0.27448739524E+02  0.12047014600E+02  0.30212045239E+02  0.51100000000E-03 0. -1.
        -11    1    3    3    0    0 -0.15427158008E+02 -0.75552426303E+01  0.57743975047E+01  0.18122432569E+02  0.51100000000E-03 0.  1.
         12    1    3    3    0    0  0.93422674465E+01  0.55800248265E+01 -0.13676714618E+01  0.10967459293E+02  0.00000000000E+00 0. -1.
</event>
<event>
 7    1  0.1113211E-011  0.5930191E+02  0.7816164E-02  0.1266605E+00
        -11   -1    0    0    0    0  0.00000000000E+00  0.00000000000E+00  0.45593999997E+02  0.45594000000E+02  0.51100000000E-03 0.  1.
         11   -1    0    0    0    0 -0.00000000000E+00 -0.00000000000E+00 -0.45593999997E+02  0.45594000000E+02  0.51100000000E-03 0. -1.
    9900012    2    1    2    0    0  0.26070796285E+02  0.14401027707E+02 -0.11386246289E+02  0.59301911772E+02  0.49999941173E+02 0.  0.
        -12    1    1    2    0    0 -0.26070796285E+02 -0.14401027707E+02  0.11386246289E+02  0.31886088228E+02  0.00000000000E+00 0.  1.
         11    1    3    3    0    0  0.25065356691E+02 -0.36697027114E+01 -0.17256194743E+02  0.30651510261E+02  0.51100000000E-03 0. -1.
        -11    1    3    3    0    0 -0.31446943430E+01  0.21806614510E+02  0.26144932879E+01  0.22186777916E+02  0.51100000000E-03 0.  1.
        -12    1    3    3    0    0  0.41501339368E+01 -0.37358840915E+01  0.32554551658E+01  0.64636235948E+01  0.00000000000E+00 0.  1.
</event>
<event>
 7    1  0.1113211E-011  0.5930193E+02  0.7816164E-02  0.1266605E+00
        -11   -1    0    0    0    0  0.00000000000E+00  0.00000000000E+00  0.45593999997E+02  0.45594000000E+02  0.51100000000E-03 0.  1.
         11   -1    0    0    0    0 -0.00000000000E+00 -0.00000000000E+00 -0.45593999997E+02  0.45594000000E+02  0.51100000000E-03 0. -1.
    9900012    2    1    2    0    0 -0.10164109317E+02 -0.16010504855E+02 -0.25633489840E+02  0.59301934308E+02  0.49999982273E+02 0.  0.
        -12    1    1    2    0    0  0.10164109317E+02  0.16010504855E+02  0.25633489840E+02  0.31886065692E+02  0.00000000000E+00 0.  1.
         11    1    3    3    0    0  0.24834545370E+01 -0.31748289946E+02 -0.14525584077E+02  0.35001629304E+02  0.51100000000E-03 0. -1.
        -11    1    3    3    0    0 -0.72464806517E+01  0.46500330736E+01 -0.16709149140E+01  0.87707608753E+01  0.51100000000E-03 0.  1.
         12    1    3    3    0    0 -0.54010832024E+01  0.11087752017E+02 -0.94369908492E+01  0.15529544128E+02  0.00000000000E+00 0. -1.
</event>
<event>
 7    1  0.1113211E-011  0.5930194E+02  0.7816164E-02  0.1266605E+00
        -11   -1    0    0    0    0  0.00000000000E+00  0.00000000000E+00  0.45593999997E+02  0.45594000000E+02  0.51100000000E-03 0.  1.
         11   -1    0    0    0    0 -0.00000000000E+00 -0.00000000000E+00 -0.45593999997E+02  0.45594000000E+02  0.51100000000E-03 0. -1.
    9900012    2    1    2    0    0  0.30074901534E+01  0.13723043399E+02 -0.28624354452E+02  0.59301943722E+02  0.49999999442E+02 0.  0.
        -12    1    1    2    0    0 -0.30074901534E+01 -0.13723043399E+02  0.28624354452E+02  0.31886056278E+02  0.00000000000E+00 0.  1.
         11    1    3    3    0    0 -0.11139224695E+02  0.24556073751E+02 -0.15767444000E+02  0.31236122926E+02  0.51100000000E-03 0. -1.
        -11    1    3    3    0    0  0.14572078121E+02 -0.45307906758E+01 -0.18455817727E+01  0.15371392170E+02  0.51100000000E-03 0.  1.
         12    1    3    3    0    0 -0.42536327242E+00 -0.63022396761E+01 -0.11011328679E+02  0.12694428625E+02  0.00000000000E+00 0. -1.
</event>
<event>
 7    1  0.1113211E-011  0.5930195E+02  0.7816164E-02  0.1266605E+00
        -11   -1    0    0    0    0  0.00000000000E+00  0.00000000000E+00  0.45593999997E+02  0.45594000000E+02  0.51100000000E-03 0.  1.
         11   -1    0    0    0    0 -0.00000000000E+00 -0.00000000000E+00 -0.45593999997E+02  0.45594000000E+02  0.51100000000E-03 0. -1.
    9900012    2    1    2    0    0  0.11231999003E+02  0.34887452559E+01 -0.29637661888E+02  0.59301950586E+02  0.50000011960E+02 0.  0.
        -12    1    1    2    0    0 -0.11231999003E+02 -0.34887452559E+01  0.29637661888E+02  0.31886049414E+02  0.00000000000E+00 0.  1.
         11    1    3    3    0    0  0.48769696567E+01  0.50556516904E+00 -0.17894699594E+02  0.18554263742E+02  0.51100000000E-03 0. -1.
        -11    1    3    3    0    0 -0.86916722859E+01  0.11539320638E+02  0.62857910459E+01  0.15754753481E+02  0.51100000000E-03 0.  1.
        -12    1    3    3    0    0  0.15046701632E+02 -0.85561405507E+01 -0.18028753340E+02  0.24992933363E+02  0.00000000000E+00 0.  1.
</event>
<event>
 7    1  0.1113211E-011  0.5930192E+02  0.7816164E-02  0.1266605E+00
        -11   -1    0    0    0    0  0.00000000000E+00  0.00000000000E+00  0.45593999997E+02  0.45594000000E+02  0.51100000000E-03 0. -1.
         11   -1    0    0    0    0 -0.00000000000E+00 -0.00000000000E+00 -0.45593999997E+02  0.45594000000E+02  0.51100000000E-03 0.  1.
    9900012    2    1    2    0    0 -0.30726226111E+01 -0.20288413011E+02  0.24406172828E+02  0.59301921779E+02  0.49999959423E+02 0.  0.
        -12    1    1    2    0    0  0.30726226111E+01  0.20288413011E+02 -0.24406172828E+02  0.31886078221E+02  0.00000000000E+00 0.  1.
         11    1    3    3    0    0  0.18338041832E+02 -0.24142876597E+02  0.13455937989E+02  0.33169632739E+02  0.51100000000E-03 0. -1.
        -11    1    3    3    0    0 -0.13841197567E+02  0.23849957818E+01  0.11840604141E+02  0.18370271138E+02  0.51100000000E-03 0.  1.
         12    1    3    3    0    0 -0.75694668759E+01  0.14694678047E+01 -0.89036930176E+00  0.77620179018E+01  0.00000000000E+00 0. -1.
</event>
<event>
 7    1  0.1113211E-011  0.5930196E+02  0.7816164E-02  0.1266605E+00
        -11   -1    0    0    0    0  0.00000000000E+00  0.00000000000E+00  0.45593999997E+02  0.45594000000E+02  0.51100000000E-03 0. -1.
         11   -1    0    0    0    0 -0.00000000000E+00 -0.00000000000E+00 -0.45593999997E+02  0.45594000000E+02  0.51100000000E-03 0.  1.
    9900012    2    1    2    0    0  0.16088716425E+02 -0.18541034589E+02  0.20349521570E+02  0.59301956220E+02  0.50000022235E+02 0.  0.
        -12    1    1    2    0    0 -0.16088716425E+02  0.18541034589E+02 -0.20349521570E+02  0.31886043780E+02  0.00000000000E+00 0.  1.
         11    1    3    3    0    0  0.21756853994E+02  0.10716973855E+02  0.49814415727E+01  0.24759422140E+02  0.51100000000E-03 0.  1.
        -11    1    3    3    0    0 -0.46181534732E+01 -0.27639296730E+02  0.11638137650E+02  0.30343109818E+02  0.51100000000E-03 0. -1.
         12    1    3    3    0    0 -0.10499840955E+01 -0.16187117143E+01  0.37299423472E+01  0.41994242616E+01  0.00000000000E+00 0. -1.
</event>
<event>
 7    1  0.1113211E-011  0.5930197E+02  0.7816164E-02  0.1266605E+00
        -11   -1    0    0    0    0  0.00000000000E+00  0.00000000000E+00  0.45593999997E+02  0.45594000000E+02  0.51100000000E-03 0. -1.
         11   -1    0    0    0    0 -0.00000000000E+00 -0.00000000000E+00 -0.45593999997E+02  0.45594000000E+02  0.51100000000E-03 0.  1.
    9900012    2    1    2    0    0  0.25443944212E+02  0.17474491871E+02  0.79979060350E+01  0.59301973842E+02  0.50000054375E+02 0.  0.
        -12    1    1    2    0    0 -0.25443944212E+02 -0.17474491871E+02 -0.79979060350E+01  0.31886026158E+02  0.00000000000E+00 0.  1.
         11    1    3    3    0    0  0.42035162098E+01 -0.80683096723E+01  0.60963669741E+01  0.10951386215E+02  0.51100000000E-03 0. -1.
        -11    1    3    3    0    0 -0.23377617290E+01  0.21775508143E+02 -0.68080904883E+01  0.22934427858E+02  0.51100000000E-03 0.  1.
        -12    1    3    3    0    0  0.23578189731E+02  0.37672933999E+01  0.87096295492E+01  0.25416159769E+02  0.00000000000E+00 0.  1.
</event>
<event>
 7    1  0.1113211E-011  0.5930192E+02  0.7816164E-02  0.1266605E+00
        -11   -1    0    0    0    0  0.00000000000E+00  0.00000000000E+00  0.45593999997E+02  0.45594000000E+02  0.51100000000E-03 0. -1.
         11   -1    0    0    0    0 -0.00000000000E+00 -0.00000000000E+00 -0.45593999997E+02  0.45594000000E+02  0.51100000000E-03 0.  1.
    9900012    2    1    2    0    0 -0.80886752860E+01 -0.26090442889E+02  0.16449447373E+02  0.59301918446E+02  0.49999953345E+02 0.  0.
        -12    1    1    2    0    0  0.80886752860E+01  0.26090442889E+02 -0.16449447373E+02  0.31886081554E+02  0.00000000000E+00 0.  1.
         11    1    3    3    0    0 -0.90206189779E+00 -0.26717295749E+02 -0.23070433918E+01  0.26831885086E+02  0.51100000000E-03 0. -1.
        -11    1    3    3    0    0  0.54831480970E+01  0.45204053652E+01  0.17817429992E+02  0.19182278006E+02  0.51100000000E-03 0.  1.
        -12    1    3    3    0    0 -0.12669761485E+02 -0.38935525049E+01  0.93906077261E+00  0.13287755354E+02  0.00000000000E+00 0.  1.
</event>
<event>
 7    1  0.1113211E-011  0.5930193E+02  0.7816164E-02  0.1266605E+00
        -11   -1    0    0    0    0  0.00000000000E+00  0.00000000000E+00  0.45593999997E+02  0.45594000000E+02  0.51100000000E-03 0.  1.
         11   -1    0    0    0    0 -0.00000000000E+00 -0.00000000000E+00 -0.45593999997E+02  0.45594000000E+02  0.51100000000E-03 0. -1.
    9900012    2    1    2    0    0  0.19269104153E+02  0.14767656400E+02 -0.20672188572E+02  0.59301930459E+02  0.49999975254E+02 0.  0.
        -12    1    1    2    0    0 -0.19269104153E+02 -0.14767656400E+02  0.20672188572E+02  0.31886069541E+02  0.00000000000E+00 0.  1.
         11    1    3    3    0    0 -0.37596718083E+01  0.23886992475E+02 -0.37649753730E+01  0.24472404488E+02  0.51100000000E-03 0. -1.
        -11    1    3    3    0    0  0.76758948803E+01 -0.11476517282E+02 -0.12645594813E+02  0.18722736968E+02  0.51100000000E-03 0.  1.
         12    1    3    3    0    0  0.15352881081E+02  0.23571812069E+01 -0.42616183864E+01  0.16106789003E+02  0.00000000000E+00 0. -1.
</event>
<event>
 7    1  0.1113211E-011  0.5930200E+02  0.7816164E-02  0.1266605E+00
        -11   -1    0    0    0    0  0.00000000000E+00  0.00000000000E+00  0.45593999997E+02  0.45594000000E+02  0.51100000000E-03 0.  1.
         11   -1    0    0    0    0 -0.00000000000E+00 -0.00000000000E+00 -0.45593999997E+02  0.45594000000E+02  0.51100000000E-03 0. -1.
    9900012    2    1    2    0    0  0.56712443538E+01 -0.27311061784E+02 -0.15448616023E+02  0.59302002363E+02  0.50000106390E+02 0.  0.
        -12    1    1    2    0    0 -0.56712443538E+01  0.27311061784E+02  0.15448616023E+02  0.31885997637E+02  0.00000000000E+00 0.  1.
         11    1    3    3    0    0  0.13592153611E+01 -0.27630573448E+02 -0.21095021905E+02  0.34789308773E+02  0.51100000000E-03 0. -1.
        -11    1    3    3    0    0  0.41504485028E+01  0.10639643983E+02 -0.20945493581E+01  0.11611002718E+02  0.51100000000E-03 0.  1.
         12    1    3    3    0    0  0.16158048990E+00 -0.10320132319E+02  0.77409552403E+01  0.12901690872E+02  0.00000000000E+00 0. -1.
</event>
<event>
 7    1  0.1113211E-011  0.5930196E+02  0.7816164E-02  0.1266605E+00
        -11   -1    0    0    0    0  0.00000000000E+00  0.00000000000E+00  0.45593999997E+02  0.45594000000E+02  0.51100000000E-03 0.  1.
         11   -1    0    0    0    0 -0.00000000000E+00 -0.00000000000E+00 -0.45593999997E+02  0.45594000000E+02  0.51100000000E-03 0. -1.
    9900012    2    1    2    0    0 -0.18676815564E+02  0.19367652681E+02 -0.17111116256E+02  0.59301957450E+02  0.50000024480E+02 0.  0.
        -12    1    1    2    0    0  0.18676815564E+02 -0.19367652681E+02  0.17111116256E+02  0.31886042550E+02  0.00000000000E+00 0.  1.
         11    1    3    3    0    0 -0.10180268030E+02  0.50572633823E+01 -0.98748910041E+01  0.15057464683E+02  0.51100000000E-03 0. -1.
        -11    1    3    3    0    0  0.14369275407E+02  0.61293885528E+01  0.58214341857E+01  0.16671369949E+02  0.51100000000E-03 0.  1.
        -12    1    3    3    0    0 -0.22865822941E+02  0.81810007458E+01 -0.13057659437E+02  0.27573122818E+02  0.00000000000E+00 0.  1.
</event>
<event>
 7    1  0.1113211E-011  0.5930197E+02  0.7816164E-02  0.1266605E+00
        -11   -1    0    0    0    0  0.00000000000E+00  0.00000000000E+00  0.45593999997E+02  0.45594000000E+02  0.51100000000E-03 0.  1.
         11   -1    0    0    0    0 -0.00000000000E+00 -0.00000000000E+00 -0.45593999997E+02  0.45594000000E+02  0.51100000000E-03 0. -1.
    9900012    2    1    2    0    0 -0.17901844395E+02  0.21459918280E+02 -0.15352998954E+02  0.59301973245E+02  0.50000053285E+02 0.  0.
        -12    1    1    2    0    0  0.17901844395E+02 -0.21459918280E+02  0.15352998954E+02  0.31886026755E+02  0.00000000000E+00 0.  1.
         11    1    3    3    0    0 -0.23760009819E+02  0.10486938770E+02 -0.27279401826E+02  0.37665364934E+02  0.51100000000E-03 0. -1.
        -11    1    3    3    0    0 -0.30815008959E+01  0.72366651247E+01  0.78888367883E+01  0.11139960325E+02  0.51100000000E-03 0.  1.
         12    1    3    3    0    0  0.89396663190E+01  0.37363143852E+01  0.40375660835E+01  0.10496647987E+02  0.00000000000E+00 0. -1.
</event>
<event>
 7    1  0.1113211E-011  0.5930196E+02  0.7816164E-02  0.1266605E+00
        -11   -1    0    0    0    0  0.00000000000E+00  0.00000000000E+00  0.45593999997E+02  0.45594000000E+02  0.51100000000E-03 0.  1.
         11   -1    0    0    0    0 -0.00000000000E+00 -0.00000000000E+00 -0.45593999997E+02  0.45594000000E+02  0.51100000000E-03 0. -1.
    9900012    2    1    2    0    0  0.23887459905E+01 -0.21857862633E+02 -0.23092144144E+02  0.59301962500E+02  0.50000033689E+02 0.  0.
        -12    1    1    2    0    0 -0.23887459905E+01  0.21857862633E+02  0.23092144144E+02  0.31886037500E+02  0.00000000000E+00 0.  1.
         11    1    3    3    0    0 -0.13935534278E+01  0.13863789446E+02 -0.69620477704E+01  0.15576159936E+02  0.51100000000E-03 0. -1.
        -11    1    3    3    0    0  0.11199022442E+02 -0.25448712069E+02 -0.12896446436E+02  0.30649198694E+02  0.51100000000E-03 0.  1.
        -12    1    3    3    0    0 -0.74167230239E+01 -0.10272940009E+02 -0.32336499373E+01  0.13076603870E+02  0.00000000000E+00 0.  1.
</event>
<event>
 7    1  0.1113211E-011  0.5930190E+02  0.7816164E-02  0.1266605E+00
        -11   -1    0    0    0    0  0.00000000000E+00  0.00000000000E+00  0.45593999997E+02  0.45594000000E+02  0.51100000000E-03 0. -1.
         11   -1    0    0    0    0 -0.00000000000E+00 -0.00000000000E+00 -0.45593999997E+02  0.45594000000E+02  0.51100000000E-03 0.  1.
    9900012    2    1    2    0    0  0.28305831419E+02 -0.14406876297E+02  0.28186856737E+01  0.59301903251E+02  0.49999925633E+02 0.  0.
        -12    1    1    2    0    0 -0.28305831419E+02  0.14406876297E+02 -0.28186856737E+01  0.31886096749E+02  0.00000000000E+00 0.  1.
         11    1    3    3    0    0  0.18354819662E+01 -0.11561455135E+02  0.71965394896E+01  0.13741412583E+02  0.51100000000E-03 0. -1.
        -11    1    3    3    0    0  0.16631873908E+02  0.16615938625E+02 -0.31397652889E+01  0.23718490095E+02  0.51100000000E-03 0.  1.
        -12    1    3    3    0    0  0.98384755455E+01 -0.19461359787E+02 -0.12380885271E+01  0.21842000573E+02  0.00000000000E+00 0.  1.
</event>
<event>
 7    1  0.1113211E-011  0.5930195E+02  0.7816164E-02  0.1266605E+00
        -11   -1    0    0    0    0  0.00000000000E+00  0.00000000000E+00  0.45593999997E+02  0.45594000000E+02  0.51100000000E-03 0.  1.
         11   -1    0    0    0    0 -0.00000000000E+00 -0.00000000000E+00 -0.45593999997E+02  0.45594000000E+02  0.51100000000E-03 0. -1.
    9900012    2    1    2    0    0 -0.62157758432E+00  0.20314269050E+02  0.24569578640E+02  0.59301951636E+02  0.50000013876E+02 0.  0.
        -12    1    1    2    0    0  0.62157758432E+00 -0.20314269050E+02 -0.24569578640E+02  0.31886048364E+02  0.00000000000E+00 0.  1.
         11    1    3    3    0    0 -0.60984890552E+01  0.24149439877E+01 -0.24072890058E+01  0.69870282552E+01  0.51100000000E-03 0. -1.
        -11    1    3    3    0    0  0.18507548647E+02  0.23340927237E+02  0.23030098039E+02  0.37652538522E+02  0.51100000000E-03 0.  1.
        -12    1    3    3    0    0 -0.13030637176E+02 -0.54416021752E+01  0.39467696067E+01  0.14662384859E+02  0.00000000000E+00 0.  1.
</event>
<event>
 7    1  0.1113211E-011  0.5930188E+02  0.7816164E-02  0.1266605E+00
        -11   -1    0    0    0    0  0.00000000000E+00  0.00000000000E+00  0.45593999997E+02  0.45594000000E+02  0.51100000000E-03 0.  1.
         11   -1    0    0    0    0 -0.00000000000E+00 -0.00000000000E+00 -0.45593999997E+02  0.45594000000E+02  0.51100000000E-03 0. -1.
    9900012    2    1    2    0    0  0.38740850632E+00 -0.26248783241E+02 -0.18099067810E+02  0.59301875078E+02  0.49999874252E+02 0.  0.
        -12    1    1    2    0    0 -0.38740850632E+00  0.26248783241E+02  0.18099067810E+02  0.31886124922E+02  0.00000000000E+00 0.  1.
         11    1    3    3    0    0  0.59019478706E+00  0.18829041873E+01 -0.17034805176E+02  0.17148709739E+02  0.51100000000E-03 0. -1.
        -11    1    3    3    0    0 -0.12456445404E+02 -0.26800350608E+02  0.13860633586E+01  0.29586196050E+02  0.51100000000E-03 0.  1.
         12    1    3    3    0    0  0.12253659123E+02 -0.13313368194E+01 -0.24503259931E+01  0.12566969289E+02  0.00000000000E+00 0. -1.
</event>
<event>
 7    1  0.1113211E-011  0.5930194E+02  0.7816164E-02  0.1266605E+00
        -11   -1    0    0    0    0  0.00000000000E+00  0.00000000000E+00  0.45593999997E+02  0.45594000000E+02  0.51100000000E-03 0. -1.
         11   -1    0    0    0    0 -0.00000000000E+00 -0.00000000000E+00 -0.45593999997E+02  0.45594000000E+02  0.51100000000E-03 0.  1.
    9900012    2    1    2    0    0  0.12545082779E+02  0.20756412169E+02 -0.20700562681E+02  0.59301936534E+02  0.49999986333E+02 0.  0.
        -12    1    1    2    0    0 -0.12545082779E+02 -0.20756412169E+02  0.20700562681E+02  0.31886063466E+02  0.00000000000E+00 0.  1.
         11    1    3    3    0    0  0.19190182602E+02  0.17813358819E+02 -0.18788562863E+02  0.32227146250E+02  0.51100000000E-03 0. -1.
        -11    1    3    3    0    0 -0.49321607190E+01  0.10040743115E+02  0.87153107301E+01  0.14180951063E+02  0.51100000000E-03 0.  1.
        -12    1    3    3    0    0 -0.17129391043E+01 -0.70976897651E+01 -0.10627310548E+02  0.12893839221E+02  0.00000000000E+00 0.  1.
</event>
<event>
 7    1  0.1113211E-011  0.5930195E+02  0.7816164E-02  0.1266605E+00
        -11   -1    0    0    0    0  0.00000000000E+00  0.00000000000E+00  0.45593999997E+02  0.45594000000E+02  0.51100000000E-03 0. -1.
         11   -1    0    0    0    0 -0.00000000000E+00 -0.00000000000E+00 -0.45593999997E+02  0.45594000000E+02  0.51100000000E-03 0.  1.
    9900012    2    1    2    0    0  0.74458168083E+01 -0.25578295745E+02  0.17522290260E+02  0.59301951999E+02  0.50000014538E+02 0.  0.
        -12    1    1    2    0    0 -0.74458168083E+01  0.25578295745E+02 -0.17522290260E+02  0.31886048001E+02  0.00000000000E+00 0.  1.
         11    1    3    3    0    0  0.15058478693E+02 -0.15037034465E+02  0.50682097040E+01  0.21875944229E+02  0.51100000000E-03 0. -1.
        -11    1    3    3    0    0 -0.17122544794E+01 -0.59874402179E+01  0.23382690383E+02  0.24197757449E+02  0.51100000000E-03 0.  1.
        -12    1    3    3    0    0 -0.59004074055E+01 -0.45538210623E+01 -0.10928609827E+02  0.13228250321E+02  0.00000000000E+00 0.  1.
</event>
<event>
 7    1  0.1113211E-011  0.5930195E+02  0.7816164E-02  0.1266605E+00
        -11   -1    0    0    0    0  0.00000000000E+00  0.00000000000E+00  0.45593999997E+02  0.45594000000E+02  0.51100000000E-03 0. -1.
         11   -1    0    0    0    0 -0.00000000000E+00 -0.00000000000E+00 -0.45593999997E+02  0.45594000000E+02  0.51100000000E-03 0.  1.
    9900012    2    1    2    0    0 -0.31748538203E+02 -0.23038134294E+01 -0.18555836761E+01  0.59301946229E+02  0.50000004014E+02 0.  0.
        -12    1    1    2    0    0  0.31748538203E+02  0.23038134294E+01  0.18555836761E+01  0.31886053771E+02  0.00000000000E+00 0.  1.
         11    1    3    3    0    0 -0.10669453680E+02  0.16913219325E+02  0.12505870116E+02  0.23585822381E+02  0.51100000000E-03 0. -1.
        -11    1    3    3    0    0 -0.39699835546E+01 -0.13484855757E+02 -0.29398908100E+01  0.14361234712E+02  0.51100000000E-03 0.  1.
         12    1    3    3    0    0 -0.17109100968E+02 -0.57321769969E+01 -0.11421562982E+02  0.21354889136E+02  0.00000000000E+00 0. -1.
</event>
<event>
 7    1  0.1113211E-011  0.5930194E+02  0.7816164E-02  0.1266605E+00
        -11   -1    0    0    0    0  0.00000000000E+00  0.00000000000E+00  0.45593999997E+02  0.45594000000E+02  0.51100000000E-03 0. -1.
         11   -1    0    0    0    0 -0.00000000000E+00 -0.00000000000E+00 -0.45593999997E+02  0.45594000000E+02  0.51100000000E-03 0.  1.
    9900012    2    1    2    0    0  0.11008836032E+02 -0.23219120420E+02  0.18878524812E+02  0.59301941558E+02  0.49999995497E+02 0.  0.
        -12    1    1    2    0    0 -0.11008836032E+02  0.23219120420E+02 -0.18878524812E+02  0.31886058442E+02  0.00000000000E+00 0.  1.
         11    1    3    3    0    0 -0.10562614819E+02 -0.25511422514E+02  0.53932206693E+01  0.28133402566E+02  0.51100000000E-03 0. -1.
        -11    1    3    3    0    0  0.91306561579E+01  0.12948629510E+01 -0.36938862230E+01  0.99343015670E+01  0.51100000000E-03 0.  1.
         12    1    3    3    0    0  0.12440794693E+02  0.99743914248E+00  0.17179190365E+02  0.21234237426E+02  0.00000000000E+00 0. -1.
</event>
<event>
 7    1  0.1113211E-011  0.5930194E+02  0.7816164E-02  0.1266605E+00
        -11   -1    0    0    0    0  0.00000000000E+00  0.00000000000E+00  0.45593999997E+02  0.45594000000E+02  0.51100000000E-03 0. -1.
         11   -1    0    0    0    0 -0.00000000000E+00 -0.00000000000E+00 -0.45593999997E+02  0.45594000000E+02  0.51100000000E-03 0.  1.
    9900012    2    1    2    0    0  0.71982750519E+01 -0.12516909706E+02  0.28429433793E+02  0.59301938812E+02  0.49999990488E+02 0.  0.
        -12    1    1    2    0    0 -0.71982750519E+01  0.12516909706E+02 -0.28429433793E+02  0.31886061188E+02  0.00000000000E+00 0.  1.
         11    1    3    3    0    0  0.21865444244E+02  0.66254030937E-01  0.18834163874E+02  0.28858755529E+02  0.51100000000E-03 0. -1.
        -11    1    3    3    0    0 -0.12189195459E+02 -0.64184596949E+01  0.16069703413E+02  0.21166210781E+02  0.51100000000E-03 0.  1.
         12    1    3    3    0    0 -0.24779737327E+01 -0.61647040417E+01 -0.64744334934E+01  0.92769725020E+01  0.00000000000E+00 0. -1.
</event>
<event>
 7    1  0.1113211E-011  0.5930199E+02  0.7816164E-02  0.1266605E+00
        -11   -1    0    0    0    0  0.00000000000E+00  0.00000000000E+00  0.45593999997E+02  0.45594000000E+02  0.51100000000E-03 0.  1.
         11   -1    0    0    0    0 -0.00000000000E+00 -0.00000000000E+00 -0.45593999997E+02  0.45594000000E+02  0.51100000000E-03 0. -1.
    9900012    2    1    2    0    0  0.31980305238E+01 -0.15844458595E+02 -0.27485326444E+02  0.59301993083E+02  0.50000089464E+02 0.  0.
        -12    1    1    2    0    0 -0.31980305238E+01  0.15844458595E+02  0.27485326444E+02  0.31886006917E+02  0.00000000000E+00 0.  1.
         11    1    3    3    0    0 -0.52464824580E+01 -0.41259610756E+01 -0.19504486057E+02  0.20614900184E+02  0.51100000000E-03 0. -1.
        -11    1    3    3    0    0 -0.16778863755E+00 -0.17226011907E+02  0.85645132290E+01  0.19238360802E+02  0.51100000000E-03 0.  1.
        -12    1    3    3    0    0  0.86123016193E+01  0.55075143868E+01 -0.16545353616E+02  0.19448732097E+02  0.00000000000E+00 0.  1.
</event>
<event>
 7    1  0.1113211E-011  0.5930193E+02  0.7816164E-02  0.1266605E+00
        -11   -1    0    0    0    0  0.00000000000E+00  0.00000000000E+00  0.45593999997E+02  0.45594000000E+02  0.51100000000E-03 0.  1.
         11   -1    0    0    0    0 -0.00000000000E+00 -0.00000000000E+00 -0.45593999997E+02  0.45594000000E+02  0.51100000000E-03 0. -1.
    9900012    2    1    2    0    0 -0.97979054206E+01 -0.27636335621E+02 -0.12528181544E+02  0.59301932039E+02  0.49999978136E+02 0.  0.
        -12    1    1    2    0    0  0.97979054206E+01  0.27636335621E+02  0.12528181544E+02  0.31886067961E+02  0.00000000000E+00 0.  1.
         11    1    3    3    0    0 -0.14603955848E+02 -0.28199932140E+02  0.58571760707E+01  0.32292695937E+02  0.51100000000E-03 0. -1.
        -11    1    3    3    0    0 -0.64404948270E+00  0.87096615831E+01 -0.40086843666E+01  0.96095033815E+01  0.51100000000E-03 0.  1.
         12    1    3    3    0    0  0.54500999104E+01 -0.81460650648E+01 -0.14376673248E+02  0.17399732721E+02  0.00000000000E+00 0. -1.
</event>
<event>
 7    1  0.1113211E-011  0.5930194E+02  0.7816164E-02  0.1266605E+00
        -11   -1    0    0    0    0  0.00000000000E+00  0.00000000000E+00  0.45593999997E+02  0.45594000000E+02  0.51100000000E-03 0. -1.
         11   -1    0    0    0    0 -0.00000000000E+00 -0.00000000000E+00 -0.45593999997E+02  0.45594000000E+02  0.51100000000E-03 0.  1.
    9900012    2    1    2    0    0 -0.14980510354E+02  0.15567089411E+02  0.23451462814E+02  0.59301936096E+02  0.49999985534E+02 0.  0.
        -12    1    1    2    0    0  0.14980510354E+02 -0.15567089411E+02 -0.23451462814E+02  0.31886063904E+02  0.00000000000E+00 0.  1.
         11    1    3    3    0    0 -0.16169330844E+01 -0.84114101997E+01 -0.53623934399E+01  0.10105521155E+02  0.51100000000E-03 0. -1.
        -11    1    3    3    0    0 -0.74941672783E+01  0.30179162906E+02  0.24737275053E+02  0.39735087696E+02  0.51100000000E-03 0.  1.
         12    1    3    3    0    0 -0.58694099913E+01 -0.62006632951E+01  0.40765812010E+01  0.94613272448E+01  0.00000000000E+00 0. -1.
</event>
<event>
 7    1  0.1113211E-011  0.5930191E+02  0.7816164E-02  0.1266605E+00
        -11   -1    0    0    0    0  0.00000000000E+00  0.00000000000E+00  0.45593999997E+02  0.45594000000E+02  0.51100000000E-03 0. -1.
         11   -1    0    0    0    0 -0.00000000000E+00 -0.00000000000E+00 -0.45593999997E+02  0.45594000000E+02  0.51100000000E-03 0.  1.
    9900012    2    1    2    0    0  0.15513403022E+02  0.27149806780E+02 -0.62406136544E+01  0.59301906788E+02  0.49999932084E+02 0.  0.
        -12    1    1    2    0    0 -0.15513403022E+02 -0.27149806780E+02  0.62406136544E+01  0.31886093212E+02  0.00000000000E+00 0.  1.
         11    1    3    3    0    0 -0.10641542257E+02  0.12921766331E+02  0.84349736198E+01  0.18744685832E+02  0.51100000000E-03 0. -1.
        -11    1    3    3    0    0  0.21635164808E+02  0.20595081180E+02 -0.10238159668E+02  0.31576219513E+02  0.51100000000E-03 0.  1.
         12    1    3    3    0    0  0.45197804706E+01 -0.63670407306E+01 -0.44374276058E+01  0.89810014433E+01  0.00000000000E+00 0. -1.
</event>
<event>
 7    1  0.1113211E-011  0.5930194E+02  0.7816164E-02  0.1266605E+00
        -11   -1    0    0    0    0  0.00000000000E+00  0.00000000000E+00  0.45593999997E+02  0.45594000000E+02  0.51100000000E-03 0. -1.
         11   -1    0    0    0    0 -0.00000000000E+00 -0.00000000000E+00 -0.45593999997E+02  0.45594000000E+02  0.51100000000E-03 0.  1.
    9900012    2    1    2    0    0 -0.29317715873E+02 -0.53143771738E+01 -0.11355611690E+02  0.59301937439E+02  0.49999987984E+02 0.  0.
        -12    1    1    2    0    0  0.29317715873E+02  0.53143771738E+01  0.11355611690E+02  0.31886062561E+02  0.00000000000E+00 0.  1.
         11    1    3    3    0    0 -0.22753512305E+02 -0.84277640119E+01  0.10614124195E+02  0.26484130364E+02  0.51100000000E-03 0. -1.
        -11    1    3    3    0    0 -0.58523534752E+01  0.12800479097E+02 -0.16435661642E+02  0.21638698671E+02  0.51100000000E-03 0.  1.
        -12    1    3    3    0    0 -0.71185009366E+00 -0.96870922587E+01 -0.55340742429E+01  0.11179108404E+02  0.00000000000E+00 0.  1.
</event>
<event>
 7    1  0.1113211E-011  0.5930193E+02  0.7816164E-02  0.1266605E+00
        -11   -1    0    0    0    0  0.00000000000E+00  0.00000000000E+00  0.45593999997E+02  0.45594000000E+02  0.51100000000E-03 0.  1.
         11   -1    0    0    0    0 -0.00000000000E+00 -0.00000000000E+00 -0.45593999997E+02  0.45594000000E+02  0.51100000000E-03 0. -1.
    9900012    2    1    2    0    0  0.14205282693E+02  0.20594158367E+02 -0.19768972631E+02  0.59301926330E+02  0.49999967723E+02 0.  0.
        -12    1    1    2    0    0 -0.14205282693E+02 -0.20594158367E+02  0.19768972631E+02  0.31886073670E+02  0.00000000000E+00 0.  1.
         11    1    3    3    0    0  0.10609007639E+02  0.73271516719E+01 -0.16855043396E+02  0.21220996274E+02  0.51100000000E-03 0. -1.
        -11    1    3    3    0    0  0.10187083748E+02  0.18439968080E+02  0.94955088608E+01  0.23107872833E+02  0.51100000000E-03 0.  1.
        -12    1    3    3    0    0 -0.65908086946E+01 -0.51729613853E+01 -0.12409438096E+02  0.14973057223E+02  0.00000000000E+00 0.  1.
</event>
<event>
 7    1  0.1113211E-011  0.5930199E+02  0.7816164E-02  0.1266605E+00
        -11   -1    0    0    0    0  0.00000000000E+00  0.00000000000E+00  0.45593999997E+02  0.45594000000E+02  0.51100000000E-03 0.  1.
         11   -1    0    0    0    0 -0.00000000000E+00 -0.00000000000E+00 -0.45593999997E+02  0.45594000000E+02  0.51100000000E-03 0. -1.
    9900012    2    1    2    0    0 -0.87408005542E+00  0.37698315398E+01 -0.31650308398E+02  0.59301989471E+02  0.50000082878E+02 0.  0.
        -12    1    1    2    0    0  0.87408005542E+00 -0.37698315398E+01  0.31650308398E+02  0.31886010529E+02  0.00000000000E+00 0.  1.
         11    1    3    3    0    0 -0.10379095831E+01 -0.53820222014E+00 -0.41526964930E+02  0.41543419870E+02  0.51100000000E-03 0. -1.
        -11    1    3    3    0    0  0.70874609460E+01  0.30041476373E+01  0.47502809232E+01  0.90455610549E+01  0.51100000000E-03 0.  1.
         12    1    3    3    0    0 -0.69236314183E+01  0.13038861226E+01  0.51263756091E+01  0.87130085460E+01  0.00000000000E+00 0. -1.
</event>
<event>
 7    1  0.1113211E-011  0.5930192E+02  0.7816164E-02  0.1266605E+00
        -11   -1    0    0    0    0  0.00000000000E+00  0.00000000000E+00  0.45593999997E+02  0.45594000000E+02  0.51100000000E-03 0. -1.
         11   -1    0    0    0    0 -0.00000000000E+00 -0.00000000000E+00 -0.45593999997E+02  0.45594000000E+02  0.51100000000E-03 0.  1.
    9900012    2    1    2    0    0 -0.15542344054E+02  0.27825016327E+02  0.96236679449E+00  0.59301919304E+02  0.49999954910E+02 0.  0.
        -12    1    1    2    0    0  0.15542344054E+02 -0.27825016327E+02 -0.96236679449E+00  0.31886080696E+02  0.00000000000E+00 0.  1.
         11    1    3    3    0    0 -0.98070036117E+01 -0.98139644948E+01  0.56083697533E+01  0.14964793032E+02  0.51100000000E-03 0. -1.
        -11    1    3    3    0    0 -0.29642145833E+01  0.77573967256E+01 -0.10879508165E+02  0.13686762591E+02  0.51100000000E-03 0.  1.
         12    1    3    3    0    0 -0.27711258593E+01  0.29881584096E+02  0.62335052064E+01  0.30650363681E+02  0.00000000000E+00 0. -1.
</event>
<event>
 7    1  0.1113211E-011  0.5930194E+02  0.7816164E-02  0.1266605E+00
        -11   -1    0    0    0    0  0.00000000000E+00  0.00000000000E+00  0.45593999997E+02  0.45594000000E+02  0.51100000000E-03 0.  1.
         11   -1    0    0    0    0 -0.00000000000E+00 -0.00000000000E+00 -0.45593999997E+02  0.45594000000E+02  0.51100000000E-03 0. -1.
    9900012    2    1    2    0    0  0.17158919107E+02 -0.53009173762E+01 -0.26347540269E+02  0.59301935517E+02  0.49999984479E+02 0.  0.
        -12    1    1    2    0    0 -0.17158919107E+02  0.53009173762E+01  0.26347540269E+02  0.31886064483E+02  0.00000000000E+00 0.  1.
         11    1    3    3    0    0  0.12529333362E+02  0.16967292250E+02 -0.22826789082E+02  0.31079502905E+02  0.51100000000E-03 0. -1.
        -11    1    3    3    0    0  0.10483263877E+02 -0.11939093575E+02 -0.18206669500E+00  0.15889428103E+02  0.51100000000E-03 0.  1.
         12    1    3    3    0    0 -0.58536781323E+01 -0.10329116051E+02 -0.33386844926E+01  0.12333004509E+02  0.00000000000E+00 0. -1.
</event>
<event>
 7    1  0.1113211E-011  0.5930196E+02  0.7816164E-02  0.1266605E+00
        -11   -1    0    0    0    0  0.00000000000E+00  0.00000000000E+00  0.45593999997E+02  0.45594000000E+02  0.51100000000E-03 0.  1.
         11   -1    0    0    0    0 -0.00000000000E+00 -0.00000000000E+00 -0.45593999997E+02  0.45594000000E+02  0.51100000000E-03 0. -1.
    9900012    2    1    2    0    0  0.79000365492E+01 -0.30510620579E+02 -0.48385135176E+01  0.59301956679E+02  0.50000023074E+02 0.  0.
        -12    1    1    2    0    0 -0.79000365492E+01  0.30510620579E+02  0.48385135176E+01  0.31886043321E+02  0.00000000000E+00 0.  1.
         11    1    3    3    0    0  0.52615710821E+01  0.35660005481E+01 -0.16374227017E+02  0.17564617868E+02  0.51100000000E-03 0. -1.
        -11    1    3    3    0    0  0.77319312360E+01 -0.30632665640E+02  0.14673238938E+02  0.34834564818E+02  0.51100000000E-03 0.  1.
        -12    1    3    3    0    0 -0.50934657688E+01 -0.34439554871E+01 -0.31375254382E+01  0.69027739939E+01  0.00000000000E+00 0.  1.
</event>
<event>
 7    1  0.1113211E-011  0.5930194E+02  0.7816164E-02  0.1266605E+00
        -11   -1    0    0    0    0  0.00000000000E+00  0.00000000000E+00  0.45593999997E+02  0.45594000000E+02  0.51100000000E-03 0. -1.
         11   -1    0    0    0    0 -0.00000000000E+00 -0.00000000000E+00 -0.45593999997E+02  0.45594000000E+02  0.51100000000E-03 0.  1.
    9900012    2    1    2    0    0 -0.18088300251E+01 -0.27846049459E+02  0.15428745380E+02  0.59301944732E+02  0.50000001284E+02 0.  0.
        -12    1    1    2    0    0  0.18088300251E+01  0.27846049459E+02 -0.15428745380E+02  0.31886055268E+02  0.00000000000E+00 0.  1.
         11    1    3    3    0    0 -0.10476419244E+02 -0.20215917332E+02  0.10145348108E+02  0.24927229334E+02  0.51100000000E-03 0. -1.
        -11    1    3    3    0    0  0.16815730158E+02 -0.11686030769E+02 -0.45484502740E+01  0.20976665513E+02  0.51100000000E-03 0.  1.
        -12    1    3    3    0    0 -0.81481409391E+01  0.40558986420E+01  0.98318475460E+01  0.13398049885E+02  0.00000000000E+00 0.  1.
</event>
<event>
 7    1  0.1113211E-011  0.5930194E+02  0.7816164E-02  0.1266605E+00
        -11   -1    0    0    0    0  0.00000000000E+00  0.00000000000E+00  0.45593999997E+02  0.45594000000E+02  0.51100000000E-03 0.  1.
         11   -1    0    0    0    0 -0.00000000000E+00 -0.00000000000E+00 -0.45593999997E+02  0.45594000000E+02  0.51100000000E-03 0. -1.
    9900012    2    1    2    0    0 -0.94470176675E+01 -0.85701154015E+01 -0.29223751151E+02  0.59301942668E+02  0.49999997521E+02 0.  0.
        -12    1    1    2    0    0  0.94470176675E+01  0.85701154015E+01  0.29223751151E+02  0.31886057332E+02  0.00000000000E+00 0.  1.
         11    1    3    3    0    0 -0.11822828547E+02 -0.12273959848E+02 -0.32879648811E+02  0.37033777438E+02  0.51100000000E-03 0. -1.
        -11    1    3    3    0    0  0.11681109392E+02  0.29180432847E+01 -0.49171069272E+00  0.12050106759E+02  0.51100000000E-03 0.  1.
         12    1    3    3    0    0 -0.93052985127E+01  0.78580116202E+00  0.41476083519E+01  0.10218058471E+02  0.00000000000E+00 0. -1.
</event>
<event>
 7    1  0.1113211E-011  0.5930194E+02  0.7816164E-02  0.1266605E+00
        -11   -1    0    0    0    0  0.00000000000E+00  0.00000000000E+00  0.45593999997E+02  0.45594000000E+02  0.51100000000E-03 0. -1.
         11   -1    0    0    0    0 -0.00000000000E+00 -0.00000000000E+00 -0.45593999997E+02  0.45594000000E+02  0.51100000000E-03 0.  1.
    9900012    2    1    2    0    0 -0.17715790591E+02 -0.24673798256E+02  0.96992296747E+01  0.59301943283E+02  0.49999998642E+02 0.  0.
        -12    1    1    2    0    0  0.17715790591E+02  0.24673798256E+02 -0.96992296747E+01  0.31886056717E+02  0.00000000000E+00 0.  1.
         11    1    3    3    0    0 -0.17666726249E+02  0.14483878237E+01  0.22788284165E+02  0.28870693429E+02  0.51100000000E-03 0. -1.
        -11    1    3    3    0    0  0.75974528739E-01 -0.61489238406E+01 -0.74834038949E+01  0.96858851244E+01  0.51100000000E-03 0.  1.
         12    1    3    3    0    0 -0.12503887150E+00 -0.19973262239E+02 -0.56056505950E+01  0.20745364730E+02  0.00000000000E+00 0. -1.
</event>
<event>
 7    1  0.1113211E-011  0.5930195E+02  0.7816164E-02  0.1266605E+00
        -11   -1    0    0    0    0  0.00000000000E+00  0.00000000000E+00  0.45593999997E+02  0.45594000000E+02  0.51100000000E-03 0. -1.
         11   -1    0    0    0    0 -0.00000000000E+00 -0.00000000000E+00 -0.45593999997E+02  0.45594000000E+02  0.51100000000E-03 0.  1.
    9900012    2    1    2    0    0 -0.12343290507E+01 -0.30328863948E+02 -0.97650734178E+01  0.59301949516E+02  0.50000010010E+02 0.  0.
        -12    1    1    2    0    0  0.12343290507E+01  0.30328863948E+02  0.97650734178E+01  0.31886050484E+02  0.00000000000E+00 0.  1.
         11    1    3    3    0    0 -0.44759375040E+01 -0.93911956852E+01  0.76592167336E+01  0.12918675403E+02  0.51100000000E-03 0. -1.
        -11    1    3    3    0    0  0.15165744095E+02 -0.24526485599E+02 -0.17866633232E+02  0.33922925480E+02  0.51100000000E-03 0.  1.
        -12    1    3    3    0    0 -0.11924135642E+02  0.35888173356E+01  0.44234308095E+00  0.12460348633E+02  0.00000000000E+00 0.  1.
</event>
<event>
 7    1  0.1113211E-011  0.5930178E+02  0.7816164E-02  0.1266605E+00
        -11   -1    0    0    0    0  0.00000000000E+00  0.00000000000E+00  0.45593999997E+02  0.45594000000E+02  0.51100000000E-03 0.  1.
         11   -1    0    0    0    0 -0.00000000000E+00 -0.00000000000E+00 -0.45593999997E+02  0.45594000000E+02  0.51100000000E-03 0. -1.
    9900012    2    1    2    0    0  0.14489542889E+01  0.28092237837E+02 -0.15015252032E+02  0.59301779014E+02  0.49999699053E+02 0.  0.
        -12    1    1    2    0    0 -0.14489542889E+01 -0.28092237837E+02  0.15015252032E+02  0.31886220986E+02  0.00000000000E+00 0.  1.
         11    1    3    3    0    0  0.32463888681E+01 -0.66910557632E+01 -0.39684130106E+01  0.84295652316E+01  0.51100000000E-03 0. -1.
        -11    1    3    3    0    0 -0.13329137223E+02  0.35604317687E+02 -0.72408654391E+01  0.38700949208E+02  0.51100000000E-03 0.  1.
        -12    1    3    3    0    0  0.11531702644E+02 -0.82102408702E+00 -0.38059735820E+01  0.12171264574E+02  0.00000000000E+00 0.  1.
</event>
<event>
 7    1  0.1113211E-011  0.5930200E+02  0.7816164E-02  0.1266605E+00
        -11   -1    0    0    0    0  0.00000000000E+00  0.00000000000E+00  0.45593999997E+02  0.45594000000E+02  0.51100000000E-03 0.  1.
         11   -1    0    0    0    0 -0.00000000000E+00 -0.00000000000E+00 -0.45593999997E+02  0.45594000000E+02  0.51100000000E-03 0. -1.
    9900012    2    1    2    0    0 -0.58205535804E+01  0.24047088135E+02 -0.20114060071E+02  0.59302004574E+02  0.50000110422E+02 0.  0.
        -12    1    1    2    0    0  0.58205535804E+01 -0.24047088135E+02  0.20114060071E+02  0.31885995426E+02  0.00000000000E+00 0.  1.
         11    1    3    3    0    0  0.55800998355E+01 -0.90979225798E+01 -0.10007232069E+02  0.14630598190E+02  0.51100000000E-03 0. -1.
        -11    1    3    3    0    0 -0.16232947319E+02  0.21305421357E+02  0.22624140583E+01  0.26880254379E+02  0.51100000000E-03 0.  1.
        -12    1    3    3    0    0  0.48322939029E+01  0.11839589358E+02 -0.12369242060E+02  0.17791152005E+02  0.00000000000E+00 0.  1.
</event>
<event>
 7    1  0.1113211E-011  0.5930193E+02  0.7816164E-02  0.1266605E+00
        -11   -1    0    0    0    0  0.00000000000E+00  0.00000000000E+00  0.45593999997E+02  0.45594000000E+02  0.51100000000E-03 0. -1.
         11   -1    0    0    0    0 -0.00000000000E+00 -0.00000000000E+00 -0.45593999997E+02  0.45594000000E+02  0.51100000000E-03 0.  1.
    9900012    2    1    2    0    0 -0.55770867345E+01  0.59713558321E+01  0.30821423941E+02  0.59301934695E+02  0.49999982979E+02 0.  0.
        -12    1    1    2    0    0  0.55770867345E+01 -0.59713558321E+01 -0.30821423941E+02  0.31886065305E+02  0.00000000000E+00 0.  1.
         11    1    3    3    0    0  0.87050012967E+01 -0.11083630729E+02  0.29505099767E+02  0.32698238947E+02  0.51100000000E-03 0. -1.
        -11    1    3    3    0    0  0.22764985554E+01  0.23400350248E+01 -0.25170404341E+01  0.41223418585E+01  0.51100000000E-03 0.  1.
         12    1    3    3    0    0 -0.16558586587E+02  0.14714951536E+02  0.38333646073E+01  0.22481353889E+02  0.00000000000E+00 0. -1.
</event>
<event>
 7    1  0.1113211E-011  0.5930192E+02  0.7816164E-02  0.1266605E+00
        -11   -1    0    0    0    0  0.00000000000E+00  0.00000000000E+00  0.45593999997E+02  0.45594000000E+02  0.51100000000E-03 0.  1.
         11   -1    0    0    0    0 -0.00000000000E+00 -0.00000000000E+00 -0.45593999997E+02  0.45594000000E+02  0.51100000000E-03 0. -1.
    9900012    2    1    2    0    0 -0.20987452597E+02 -0.16727785863E+02 -0.17217153725E+02  0.59301915750E+02  0.49999948428E+02 0.  0.
        -12    1    1    2    0    0  0.20987452597E+02  0.16727785863E+02  0.17217153725E+02  0.31886084250E+02  0.00000000000E+00 0.  1.
         11    1    3    3    0    0 -0.17215605693E+02 -0.30508409096E+02  0.13043492413E+01  0.35054834648E+02  0.51100000000E-03 0. -1.
        -11    1    3    3    0    0 -0.55076979449E+01  0.91886848437E+01 -0.12034978367E+02  0.16112335969E+02  0.51100000000E-03 0.  1.
         12    1    3    3    0    0  0.17358510413E+01  0.45919383894E+01 -0.64865245997E+01  0.81347451338E+01  0.00000000000E+00 0. -1.
</event>
<event>
 7    1  0.1113211E-011  0.5930200E+02  0.7816164E-02  0.1266605E+00
        -11   -1    0    0    0    0  0.00000000000E+00  0.00000000000E+00  0.45593999997E+02  0.45594000000E+02  0.51100000000E-03 0.  1.
         11   -1    0    0    0    0 -0.00000000000E+00 -0.00000000000E+00 -0.45593999997E+02  0.45594000000E+02  0.51100000000E-03 0. -1.
    9900012    2    1    2    0    0  0.66154633240E+01 -0.18754338003E+02 -0.24924431873E+02  0.59302002241E+02  0.50000106166E+02 0.  0.
        -12    1    1    2    0    0 -0.66154633240E+01  0.18754338003E+02  0.24924431873E+02  0.31885997759E+02  0.00000000000E+00 0.  1.
         11    1    3    3    0    0 -0.83239875789E+01 -0.14985517805E+00  0.89575532193E+01  0.12229022272E+02  0.51100000000E-03 0.  1.
        -11    1    3    3    0    0  0.79389220997E+01 -0.71498585569E+01 -0.31725819168E+02  0.33476477766E+02  0.51100000000E-03 0. -1.
        -12    1    3    3    0    0  0.70005288032E+01 -0.11454624268E+02 -0.21561659237E+01  0.13596502202E+02  0.00000000000E+00 0.  1.
</event>
<event>
 7    1  0.1113211E-011  0.5930201E+02  0.7816164E-02  0.1266605E+00
        -11   -1    0    0    0    0  0.00000000000E+00  0.00000000000E+00  0.45593999997E+02  0.45594000000E+02  0.51100000000E-03 0. -1.
         11   -1    0    0    0    0 -0.00000000000E+00 -0.00000000000E+00 -0.45593999997E+02  0.45594000000E+02  0.51100000000E-03 0.  1.
    9900012    2    1    2    0    0 -0.91284025240E+01 -0.22563508128E+02  0.20597982529E+02  0.59302007528E+02  0.50000115809E+02 0.  0.
        -12    1    1    2    0    0  0.91284025240E+01  0.22563508128E+02 -0.20597982529E+02  0.31885992472E+02  0.00000000000E+00 0.  1.
         11    1    3    3    0    0 -0.12855506644E+02  0.99188045008E+00 -0.11650773736E+02  0.17377813637E+02  0.51100000000E-03 0. -1.
        -11    1    3    3    0    0  0.63153833937E+01 -0.16665586133E+02  0.15460447957E+02  0.23593458413E+02  0.51100000000E-03 0.  1.
         12    1    3    3    0    0 -0.25882792733E+01 -0.68898024443E+01  0.16788308308E+02  0.18330735478E+02  0.00000000000E+00 0. -1.
</event>
<event>
 7    1  0.1113211E-011  0.5930195E+02  0.7816164E-02  0.1266605E+00
        -11   -1    0    0    0    0  0.00000000000E+00  0.00000000000E+00  0.45593999997E+02  0.45594000000E+02  0.51100000000E-03 0.  1.
         11   -1    0    0    0    0 -0.00000000000E+00 -0.00000000000E+00 -0.45593999997E+02  0.45594000000E+02  0.51100000000E-03 0. -1.
    9900012    2    1    2    0    0  0.13907141286E+02  0.15020044435E+02 -0.24448101933E+02  0.59301952868E+02  0.50000016123E+02 0.  0.
        -12    1    1    2    0    0 -0.13907141286E+02 -0.15020044435E+02  0.24448101933E+02  0.31886047132E+02  0.00000000000E+00 0.  1.
         11    1    3    3    0    0 -0.16606288347E+01  0.18070078498E+01  0.14438444278E+02  0.14645533070E+02  0.51100000000E-03 0. -1.
        -11    1    3    3    0    0  0.24677381639E+00  0.37087584025E+01 -0.45595237289E+01  0.58826051287E+01  0.51100000000E-03 0.  1.
         12    1    3    3    0    0  0.15320996304E+02  0.95042781829E+01 -0.34327022482E+02  0.38773814669E+02  0.00000000000E+00 0. -1.
</event>
<event>
 7    1  0.1113211E-011  0.5930219E+02  0.7816164E-02  0.1266604E+00
        -11   -1    0    0    0    0  0.00000000000E+00  0.00000000000E+00  0.45593999997E+02  0.45594000000E+02  0.51100000000E-03 0. -1.
         11   -1    0    0    0    0 -0.00000000000E+00 -0.00000000000E+00 -0.45593999997E+02  0.45594000000E+02  0.51100000000E-03 0.  1.
    9900012    2    1    2    0    0  0.79335750072E+01  0.28373930291E+02 -0.12193566015E+02  0.59302194621E+02  0.50000457019E+02 0.  0.
        -12    1    1    2    0    0 -0.79335750072E+01 -0.28373930291E+02  0.12193566015E+02  0.31885805379E+02  0.00000000000E+00 0.  1.
         11    1    3    3    0    0  0.98414301635E+00  0.19914110499E+01 -0.25660902008E+02  0.25756866027E+02  0.51100000000E-03 0. -1.
        -11    1    3    3    0    0  0.47388176881E+01  0.74882316695E+00  0.35630781077E+01  0.59760066163E+01  0.51100000000E-03 0.  1.
         12    1    3    3    0    0  0.22106143028E+01  0.25633696074E+02  0.99042578854E+01  0.27569321977E+02  0.00000000000E+00 0. -1.
</event>
<event>
 7    1  0.1113211E-011  0.5930194E+02  0.7816164E-02  0.1266605E+00
        -11   -1    0    0    0    0  0.00000000000E+00  0.00000000000E+00  0.45593999997E+02  0.45594000000E+02  0.51100000000E-03 0.  1.
         11   -1    0    0    0    0 -0.00000000000E+00 -0.00000000000E+00 -0.45593999997E+02  0.45594000000E+02  0.51100000000E-03 0. -1.
    9900012    2    1    2    0    0 -0.14039162780E+02 -0.66711093368E+01 -0.27840955130E+02  0.59301943896E+02  0.49999999759E+02 0.  0.
        -12    1    1    2    0    0  0.14039162780E+02  0.66711093368E+01  0.27840955130E+02  0.31886056104E+02  0.00000000000E+00 0.  1.
         11    1    3    3    0    0 -0.17461929381E+01 -0.58685864966E+01 -0.54086789349E+01  0.81696576015E+01  0.51100000000E-03 0. -1.
        -11    1    3    3    0    0 -0.27404591986E+02 -0.75537368529E+01 -0.90026343273E+01  0.29818082223E+02  0.51100000000E-03 0.  1.
        -12    1    3    3    0    0  0.15111622144E+02  0.67512140127E+01 -0.13429641868E+02  0.21314204071E+02  0.00000000000E+00 0.  1.
</event>
<event>
 7    1  0.1113211E-011  0.5930195E+02  0.7816164E-02  0.1266605E+00
        -11   -1    0    0    0    0  0.00000000000E+00  0.00000000000E+00  0.45593999997E+02  0.45594000000E+02  0.51100000000E-03 0.  1.
         11   -1    0    0    0    0 -0.00000000000E+00 -0.00000000000E+00 -0.45593999997E+02  0.45594000000E+02  0.51100000000E-03 0. -1.
    9900012    2    1    2    0    0  0.13750270895E+02  0.96841059121E+01 -0.27090006191E+02  0.59301948309E+02  0.50000007809E+02 0.  0.
        -12    1    1    2    0    0 -0.13750270895E+02 -0.96841059121E+01  0.27090006191E+02  0.31886051691E+02  0.00000000000E+00 0.  1.
         11    1    3    3    0    0  0.23483393486E+02  0.23054398911E+02 -0.11392508151E+02  0.34824765914E+02  0.51100000000E-03 0. -1.
        -11    1    3    3    0    0 -0.18880538629E+01  0.25984561260E+00  0.42721629121E+00  0.19531464749E+01  0.51100000000E-03 0.  1.
         12    1    3    3    0    0 -0.78450687274E+01 -0.13630138611E+02 -0.16124714331E+02  0.22524035921E+02  0.00000000000E+00 0. -1.
</event>
<event>
 7    1  0.1113211E-011  0.5930192E+02  0.7816164E-02  0.1266605E+00
        -11   -1    0    0    0    0  0.00000000000E+00  0.00000000000E+00  0.45593999997E+02  0.45594000000E+02  0.51100000000E-03 0.  1.
         11   -1    0    0    0    0 -0.00000000000E+00 -0.00000000000E+00 -0.45593999997E+02  0.45594000000E+02  0.51100000000E-03 0. -1.
    9900012    2    1    2    0    0  0.19591585457E+01 -0.23629358352E+02 -0.21319883201E+02  0.59301916860E+02  0.49999950452E+02 0.  0.
        -12    1    1    2    0    0 -0.19591585457E+01  0.23629358352E+02  0.21319883201E+02  0.31886083140E+02  0.00000000000E+00 0.  1.
         11    1    3    3    0    0  0.15868325883E+02 -0.25197686352E+02  0.40191463889E+01  0.30047973339E+02  0.51100000000E-03 0.  1.
        -11    1    3    3    0    0 -0.70740291528E+01  0.25830585372E+01 -0.10924461536E+02  0.13268682677E+02  0.51100000000E-03 0. -1.
        -12    1    3    3    0    0 -0.68351381848E+01 -0.10147305375E+01 -0.14414568053E+02  0.15985260844E+02  0.00000000000E+00 0.  1.
</event>
<event>
 7    1  0.1113211E-011  0.5930194E+02  0.7816164E-02  0.1266605E+00
        -11   -1    0    0    0    0  0.00000000000E+00  0.00000000000E+00  0.45593999997E+02  0.45594000000E+02  0.51100000000E-03 0. -1.
         11   -1    0    0    0    0 -0.00000000000E+00 -0.00000000000E+00 -0.45593999997E+02  0.45594000000E+02  0.51100000000E-03 0.  1.
    9900012    2    1    2    0    0 -0.35111286779E+01  0.28890703203E+02  0.13027664614E+02  0.59301940328E+02  0.49999993252E+02 0.  0.
        -12    1    1    2    0    0  0.35111286779E+01 -0.28890703203E+02 -0.13027664614E+02  0.31886059672E+02  0.00000000000E+00 0.  1.
         11    1    3    3    0    0 -0.16624894503E+02  0.23428696203E+02 -0.46658173552E+01  0.29104308527E+02  0.51100000000E-03 0. -1.
        -11    1    3    3    0    0  0.92763515308E+01 -0.29712917550E+01 -0.52894773260E+00  0.97549504551E+01  0.51100000000E-03 0.  1.
         12    1    3    3    0    0  0.38374142941E+01  0.84332987551E+01  0.18222429702E+02  0.20442681345E+02  0.00000000000E+00 0. -1.
</event>
<event>
 7    1  0.1113211E-011  0.5930192E+02  0.7816164E-02  0.1266605E+00
        -11   -1    0    0    0    0  0.00000000000E+00  0.00000000000E+00  0.45593999997E+02  0.45594000000E+02  0.51100000000E-03 0.  1.
         11   -1    0    0    0    0 -0.00000000000E+00 -0.00000000000E+00 -0.45593999997E+02  0.45594000000E+02  0.51100000000E-03 0. -1.
    9900012    2    1    2    0    0  0.17649618798E+02 -0.80575651549E+01 -0.25303922794E+02  0.59301922964E+02  0.49999961585E+02 0.  0.
        -12    1    1    2    0    0 -0.17649618798E+02  0.80575651549E+01  0.25303922794E+02  0.31886077036E+02  0.00000000000E+00 0.  1.
         11    1    3    3    0    0  0.19577963803E+02 -0.14164906074E+02  0.65598649992E+01  0.25039430102E+02  0.51100000000E-03 0.  1.
        -11    1    3    3    0    0  0.27333400302E+01  0.72350942118E+01 -0.17952487014E+02  0.19547622009E+02  0.51100000000E-03 0. -1.
        -12    1    3    3    0    0 -0.46616850348E+01 -0.11277532927E+01 -0.13911300780E+02  0.14714870854E+02  0.00000000000E+00 0.  1.
</event>
<event>
 7    1  0.1113211E-011  0.5930198E+02  0.7816164E-02  0.1266605E+00
        -11   -1    0    0    0    0  0.00000000000E+00  0.00000000000E+00  0.45593999997E+02  0.45594000000E+02  0.51100000000E-03 0.  1.
         11   -1    0    0    0    0 -0.00000000000E+00 -0.00000000000E+00 -0.45593999997E+02  0.45594000000E+02  0.51100000000E-03 0. -1.
    9900012    2    1    2    0    0 -0.14923384677E+02 -0.11124177500E+02 -0.25889454115E+02  0.59301975324E+02  0.50000057077E+02 0.  0.
        -12    1    1    2    0    0  0.14923384677E+02  0.11124177500E+02  0.25889454115E+02  0.31886024676E+02  0.00000000000E+00 0.  1.
         11    1    3    3    0    0 -0.20316460502E+02  0.55674434008E+01 -0.25537965263E+02  0.33105024745E+02  0.51100000000E-03 0. -1.
        -11    1    3    3    0    0  0.60401763535E+01 -0.11665607924E+02 -0.91738509734E+01  0.16022786292E+02  0.51100000000E-03 0.  1.
         12    1    3    3    0    0 -0.64710052884E+00 -0.50260129767E+01  0.88223621214E+01  0.10174164287E+02  0.00000000000E+00 0. -1.
</event>
<event>
 7    1  0.1113211E-011  0.5930193E+02  0.7816164E-02  0.1266605E+00
        -11   -1    0    0    0    0  0.00000000000E+00  0.00000000000E+00  0.45593999997E+02  0.45594000000E+02  0.51100000000E-03 0. -1.
         11   -1    0    0    0    0 -0.00000000000E+00 -0.00000000000E+00 -0.45593999997E+02  0.45594000000E+02  0.51100000000E-03 0.  1.
    9900012    2    1    2    0    0  0.23645229559E+02 -0.17590452842E+02  0.12173761667E+02  0.59301931173E+02  0.49999976557E+02 0.  0.
        -12    1    1    2    0    0 -0.23645229559E+02  0.17590452842E+02 -0.12173761667E+02  0.31886068827E+02  0.00000000000E+00 0.  1.
         11    1    3    3    0    0  0.28553601428E+01  0.46726793471E+01  0.10133432423E+02  0.11518396884E+02  0.51100000000E-03 0. -1.
        -11    1    3    3    0    0  0.30133308745E+02 -0.16807178087E+02 -0.50157907252E+01  0.34866254287E+02  0.51100000000E-03 0.  1.
        -12    1    3    3    0    0 -0.93434393286E+01 -0.54559541020E+01  0.70561199688E+01  0.12917280003E+02  0.00000000000E+00 0.  1.
</event>
<event>
 7    1  0.1113211E-011  0.5930193E+02  0.7816164E-02  0.1266605E+00
        -11   -1    0    0    0    0  0.00000000000E+00  0.00000000000E+00  0.45593999997E+02  0.45594000000E+02  0.51100000000E-03 0.  1.
         11   -1    0    0    0    0 -0.00000000000E+00 -0.00000000000E+00 -0.45593999997E+02  0.45594000000E+02  0.51100000000E-03 0. -1.
    9900012    2    1    2    0    0 -0.80420658869E+01  0.30678182169E+02  0.33008521879E+01  0.59301932352E+02  0.49999978706E+02 0.  0.
        -12    1    1    2    0    0  0.80420658869E+01 -0.30678182169E+02 -0.33008521879E+01  0.31886067648E+02  0.00000000000E+00 0.  1.
         11    1    3    3    0    0 -0.12081280649E+02  0.12358330520E+02 -0.16775255594E+02  0.24085158830E+02  0.51100000000E-03 0. -1.
        -11    1    3    3    0    0  0.10112082286E+02  0.51896992970E+00  0.69566179950E+01  0.12284871677E+02  0.51100000000E-03 0.  1.
         12    1    3    3    0    0 -0.60728675235E+01  0.17800881719E+02  0.13119489787E+02  0.22931901844E+02  0.00000000000E+00 0. -1.
</event>
<event>
 7    1  0.1113211E-011  0.5930196E+02  0.7816164E-02  0.1266605E+00
        -11   -1    0    0    0    0  0.00000000000E+00  0.00000000000E+00  0.45593999997E+02  0.45594000000E+02  0.51100000000E-03 0.  1.
         11   -1    0    0    0    0 -0.00000000000E+00 -0.00000000000E+00 -0.45593999997E+02  0.45594000000E+02  0.51100000000E-03 0. -1.
    9900012    2    1    2    0    0 -0.10061791459E+02 -0.17815767764E+02 -0.24455636540E+02  0.59301962508E+02  0.50000033703E+02 0.  0.
        -12    1    1    2    0    0  0.10061791459E+02  0.17815767764E+02  0.24455636540E+02  0.31886037492E+02  0.00000000000E+00 0.  1.
         11    1    3    3    0    0 -0.21637955809E+02 -0.80728603847E+01 -0.28511799257E+01  0.23270183360E+02  0.51100000000E-03 0. -1.
        -11    1    3    3    0    0  0.12424269146E+02  0.45419235409E+01 -0.50748171815E+01  0.14168461559E+02  0.51100000000E-03 0.  1.
        -12    1    3    3    0    0 -0.84810479620E+00 -0.14284830921E+02 -0.16529639433E+02  0.21863317588E+02  0.00000000000E+00 0.  1.
</event>
<event>
 7    1  0.1113211E-011  0.5930190E+02  0.7816164E-02  0.1266605E+00
        -11   -1    0    0    0    0  0.00000000000E+00  0.00000000000E+00  0.45593999997E+02  0.45594000000E+02  0.51100000000E-03 0.  1.
         11   -1    0    0    0    0 -0.00000000000E+00 -0.00000000000E+00 -0.45593999997E+02  0.45594000000E+02  0.51100000000E-03 0. -1.
    9900012    2    1    2    0    0 -0.85298969384E+01  0.25863420465E+02 -0.16584567069E+02  0.59301897623E+02  0.49999915368E+02 0.  0.
        -12    1    1    2    0    0  0.85298969384E+01 -0.25863420465E+02  0.16584567069E+02  0.31886102377E+02  0.00000000000E+00 0.  1.
         11    1    3    3    0    0  0.19363864840E+01  0.12513354078E+02 -0.27582856074E+01  0.12959234648E+02  0.51100000000E-03 0. -1.
        -11    1    3    3    0    0 -0.14237515303E+02 -0.11559436615E+02 -0.99137607042E+01  0.20847303625E+02  0.51100000000E-03 0.  1.
        -12    1    3    3    0    0  0.37712318807E+01  0.24909503002E+02 -0.39125207578E+01  0.25495359350E+02  0.00000000000E+00 0.  1.
</event>
<event>
 7    1  0.1113211E-011  0.5930195E+02  0.7816164E-02  0.1266605E+00
        -11   -1    0    0    0    0  0.00000000000E+00  0.00000000000E+00  0.45593999997E+02  0.45594000000E+02  0.51100000000E-03 0.  1.
         11   -1    0    0    0    0 -0.00000000000E+00 -0.00000000000E+00 -0.45593999997E+02  0.45594000000E+02  0.51100000000E-03 0. -1.
    9900012    2    1    2    0    0  0.62812301836E+01 -0.87922233947E+01 -0.29999386701E+02  0.59301949017E+02  0.50000009100E+02 0.  0.
        -12    1    1    2    0    0 -0.62812301836E+01  0.87922233947E+01  0.29999386701E+02  0.31886050983E+02  0.00000000000E+00 0.  1.
         11    1    3    3    0    0  0.19791837988E+02  0.10383730714E+02 -0.10239987769E+02  0.24584467948E+02  0.51100000000E-03 0.  1.
        -11    1    3    3    0    0 -0.13010453889E+02 -0.44369645928E+01 -0.84848660156E+01  0.16153993833E+02  0.51100000000E-03 0. -1.
        -12    1    3    3    0    0 -0.50015391554E+00 -0.14738989516E+02 -0.11274532916E+02  0.18563487236E+02  0.00000000000E+00 0.  1.
</event>
<event>
 7    1  0.1113211E-011  0.5930195E+02  0.7816164E-02  0.1266605E+00
        -11   -1    0    0    0    0  0.00000000000E+00  0.00000000000E+00  0.45593999997E+02  0.45594000000E+02  0.51100000000E-03 0.  1.
         11   -1    0    0    0    0 -0.00000000000E+00 -0.00000000000E+00 -0.45593999997E+02  0.45594000000E+02  0.51100000000E-03 0. -1.
    9900012    2    1    2    0    0 -0.27958314780E+01 -0.13818851434E+02 -0.28599701045E+02  0.59301949312E+02  0.50000009638E+02 0.  0.
        -12    1    1    2    0    0  0.27958314780E+01  0.13818851434E+02  0.28599701045E+02  0.31886050688E+02  0.00000000000E+00 0.  1.
         11    1    3    3    0    0  0.16230489030E+02 -0.90799965649E+01 -0.40719092870E+01  0.19038265606E+02  0.51100000000E-03 0. -1.
        -11    1    3    3    0    0 -0.85987236069E+01 -0.67732642708E+01 -0.27190354718E+02  0.29310928790E+02  0.51100000000E-03 0.  1.
        -12    1    3    3    0    0 -0.10427596901E+02  0.20344094021E+01  0.26625629604E+01  0.10952754917E+02  0.00000000000E+00 0.  1.
</event>
<event>
 7    1  0.1113211E-011  0.5930188E+02  0.7816164E-02  0.1266605E+00
        -11   -1    0    0    0    0  0.00000000000E+00  0.00000000000E+00  0.45593999997E+02  0.45594000000E+02  0.51100000000E-03 0. -1.
         11   -1    0    0    0    0 -0.00000000000E+00 -0.00000000000E+00 -0.45593999997E+02  0.45594000000E+02  0.51100000000E-03 0.  1.
    9900012    2    1    2    0    0 -0.25380866849E+02 -0.19024082509E+02  0.32589473381E+01  0.59301876763E+02  0.49999877325E+02 0.  0.
        -12    1    1    2    0    0  0.25380866849E+02  0.19024082509E+02 -0.32589473381E+01  0.31886123237E+02  0.00000000000E+00 0.  1.
         11    1    3    3    0    0 -0.18803654830E+02 -0.51190876848E+01 -0.85783112081E+01  0.21292484992E+02  0.51100000000E-03 0. -1.
        -11    1    3    3    0    0 -0.22752001430E+00  0.65748393249E+01  0.14959007429E+02  0.16341731274E+02  0.51100000000E-03 0.  1.
        -12    1    3    3    0    0 -0.63496920050E+01 -0.20479834149E+02 -0.31217488828E+01  0.21667660497E+02  0.00000000000E+00 0.  1.
</event>
<event>
 7    1  0.1113211E-011  0.5930197E+02  0.7816164E-02  0.1266605E+00
        -11   -1    0    0    0    0  0.00000000000E+00  0.00000000000E+00  0.45593999997E+02  0.45594000000E+02  0.51100000000E-03 0. -1.
         11   -1    0    0    0    0 -0.00000000000E+00 -0.00000000000E+00 -0.45593999997E+02  0.45594000000E+02  0.51100000000E-03 0.  1.
    9900012    2    1    2    0    0  0.20266711201E+02  0.11091055619E+02  0.21976534279E+02  0.59301966121E+02  0.50000040292E+02 0.  0.
        -12    1    1    2    0    0 -0.20266711201E+02 -0.11091055619E+02 -0.21976534279E+02  0.31886033879E+02  0.00000000000E+00 0.  1.
         11    1    3    3    0    0 -0.75425371131E+00 -0.72250392351E+01  0.23499113512E+01  0.76349311869E+01  0.51100000000E-03 0. -1.
        -11    1    3    3    0    0  0.85737001966E+01  0.27555836064E+02  0.21590350113E+02  0.36041304839E+02  0.51100000000E-03 0.  1.
        -12    1    3    3    0    0  0.12447264716E+02 -0.92397412097E+01 -0.19637271857E+01  0.15625730094E+02  0.00000000000E+00 0.  1.
</event>
<event>
 7    1  0.1113211E-011  0.5930195E+02  0.7816164E-02  0.1266605E+00
        -11   -1    0    0    0    0  0.00000000000E+00  0.00000000000E+00  0.45593999997E+02  0.45594000000E+02  0.51100000000E-03 0.  1.
         11   -1    0    0    0    0 -0.00000000000E+00 -0.00000000000E+00 -0.45593999997E+02  0.45594000000E+02  0.51100000000E-03 0. -1.
    9900012    2    1    2    0    0  0.23695092795E+02  0.23180819224E+01 -0.21210592461E+02  0.59301950402E+02  0.50000011626E+02 0.  0.
        -12    1    1    2    0    0 -0.23695092795E+02 -0.23180819224E+01  0.21210592461E+02  0.31886049598E+02  0.00000000000E+00 0.  1.
         11    1    3    3    0    0  0.14083949150E+02  0.13324885544E+02  0.39076758099E+01  0.19778274164E+02  0.51100000000E-03 0. -1.
        -11    1    3    3    0    0  0.15747499048E+02 -0.11679318427E+02 -0.77344450430E+01  0.21076333779E+02  0.51100000000E-03 0.  1.
         12    1    3    3    0    0 -0.61363554021E+01  0.67251480464E+00 -0.17383823228E+02  0.18447342459E+02  0.00000000000E+00 0. -1.
</event>
<event>
 7    1  0.1113211E-011  0.5930194E+02  0.7816164E-02  0.1266605E+00
        -11   -1    0    0    0    0  0.00000000000E+00  0.00000000000E+00  0.45593999997E+02  0.45594000000E+02  0.51100000000E-03 0.  1.
         11   -1    0    0    0    0 -0.00000000000E+00 -0.00000000000E+00 -0.45593999997E+02  0.45594000000E+02  0.51100000000E-03 0. -1.
    9900012    2    1    2    0    0 -0.16209603110E+02  0.61620931068E+01 -0.26758146819E+02  0.59301936498E+02  0.49999986268E+02 0.  0.
        -12    1    1    2    0    0  0.16209603110E+02 -0.61620931068E+01  0.26758146819E+02  0.31886063502E+02  0.00000000000E+00 0.  1.
         11    1    3    3    0    0 -0.22145083117E+01  0.18508304952E+01 -0.86676793691E+01  0.91355506945E+01  0.51100000000E-03 0. -1.
        -11    1    3    3    0    0  0.12894643063E+02 -0.18903645783E+01  0.52239656893E+01  0.14040481322E+02  0.51100000000E-03 0.  1.
        -12    1    3    3    0    0 -0.26889737861E+02  0.62016271898E+01 -0.23314433139E+02  0.36125904482E+02  0.00000000000E+00 0.  1.
</event>
<event>
 7    1  0.1113211E-011  0.5930195E+02  0.7816164E-02  0.1266605E+00
        -11   -1    0    0    0    0  0.00000000000E+00  0.00000000000E+00  0.45593999997E+02  0.45594000000E+02  0.51100000000E-03 0.  1.
         11   -1    0    0    0    0 -0.00000000000E+00 -0.00000000000E+00 -0.45593999997E+02  0.45594000000E+02  0.51100000000E-03 0. -1.
    9900012    2    1    2    0    0 -0.11814559873E+02 -0.54635204840E+01 -0.29108179758E+02  0.59301952740E+02  0.50000015888E+02 0.  0.
        -12    1    1    2    0    0  0.11814559873E+02  0.54635204840E+01  0.29108179758E+02  0.31886047260E+02  0.00000000000E+00 0.  1.
         11    1    3    3    0    0  0.34636550524E+01 -0.80699055470E+01 -0.28479585166E+02  0.29802802777E+02  0.51100000000E-03 0. -1.
        -11    1    3    3    0    0 -0.74386863349E+01 -0.10391118304E+02  0.43900329697E+01  0.13512282699E+02  0.51100000000E-03 0.  1.
         12    1    3    3    0    0 -0.78395285904E+01  0.12997503367E+02 -0.50186275612E+01  0.15986867263E+02  0.00000000000E+00 0. -1.
</event>
<event>
 7    1  0.1113211E-011  0.5930193E+02  0.7816164E-02  0.1266605E+00
        -11   -1    0    0    0    0  0.00000000000E+00  0.00000000000E+00  0.45593999997E+02  0.45594000000E+02  0.51100000000E-03 0.  1.
         11   -1    0    0    0    0 -0.00000000000E+00 -0.00000000000E+00 -0.45593999997E+02  0.45594000000E+02  0.51100000000E-03 0. -1.
    9900012    2    1    2    0    0  0.10117759641E+02 -0.75021569390E+01 -0.29292832747E+02  0.59301929856E+02  0.49999974155E+02 0.  0.
        -12    1    1    2    0    0 -0.10117759641E+02  0.75021569390E+01  0.29292832747E+02  0.31886070144E+02  0.00000000000E+00 0.  1.
         11    1    3    3    0    0 -0.15895840393E+02  0.60423120869E+01 -0.16052476207E+02  0.23385236150E+02  0.51100000000E-03 0. -1.
        -11    1    3    3    0    0  0.15076271137E+02 -0.56969291531E+00 -0.12507131967E+01  0.15138784138E+02  0.51100000000E-03 0.  1.
         12    1    3    3    0    0  0.10937328897E+02 -0.12974776111E+02 -0.11989643343E+02  0.20777909567E+02  0.00000000000E+00 0. -1.
</event>
<event>
 7    1  0.1113211E-011  0.5930194E+02  0.7816164E-02  0.1266605E+00
        -11   -1    0    0    0    0  0.00000000000E+00  0.00000000000E+00  0.45593999997E+02  0.45594000000E+02  0.51100000000E-03 0.  1.
         11   -1    0    0    0    0 -0.00000000000E+00 -0.00000000000E+00 -0.45593999997E+02  0.45594000000E+02  0.51100000000E-03 0. -1.
    9900012    2    1    2    0    0  0.41369294970E+00  0.12534267827E+02 -0.29316234669E+02  0.59301943063E+02  0.49999998240E+02 0.  0.
        -12    1    1    2    0    0 -0.41369294970E+00 -0.12534267827E+02  0.29316234669E+02  0.31886056937E+02  0.00000000000E+00 0.  1.
         11    1    3    3    0    0  0.17429844772E+01  0.94793150684E+01 -0.17502193796E+02  0.19980545463E+02  0.51100000000E-03 0. -1.
        -11    1    3    3    0    0  0.54783797987E+01  0.52465590070E+01  0.12144177840E+02  0.14318522351E+02  0.51100000000E-03 0.  1.
        -12    1    3    3    0    0 -0.68076713262E+01 -0.21916062483E+01 -0.23958218713E+02  0.25002875249E+02  0.00000000000E+00 0.  1.
</event>
<event>
 7    1  0.1113211E-011  0.5930195E+02  0.7816164E-02  0.1266605E+00
        -11   -1    0    0    0    0  0.00000000000E+00  0.00000000000E+00  0.45593999997E+02  0.45594000000E+02  0.51100000000E-03 0.  1.
         11   -1    0    0    0    0 -0.00000000000E+00 -0.00000000000E+00 -0.45593999997E+02  0.45594000000E+02  0.51100000000E-03 0. -1.
    9900012    2    1    2    0    0 -0.14703973646E+02  0.36243530460E+01 -0.28060249576E+02  0.59301946901E+02  0.50000005240E+02 0.  0.
        -12    1    1    2    0    0  0.14703973646E+02 -0.36243530460E+01  0.28060249576E+02  0.31886053099E+02  0.00000000000E+00 0.  1.
         11    1    3    3    0    0  0.13908200139E+02  0.10275726110E+02 -0.19776557463E+02  0.26270531086E+02  0.51100000000E-03 0. -1.
        -11    1    3    3    0    0 -0.12341069883E+02 -0.69363373917E+01 -0.89422271975E+01  0.16744497896E+02  0.51100000000E-03 0.  1.
         12    1    3    3    0    0 -0.16271103901E+02  0.28496432770E+00  0.65853508448E+00  0.16286917919E+02  0.00000000000E+00 0. -1.
</event>
<event>
 7    1  0.1113211E-011  0.5930196E+02  0.7816164E-02  0.1266605E+00
        -11   -1    0    0    0    0  0.00000000000E+00  0.00000000000E+00  0.45593999997E+02  0.45594000000E+02  0.51100000000E-03 0.  1.
         11   -1    0    0    0    0 -0.00000000000E+00 -0.00000000000E+00 -0.45593999997E+02  0.45594000000E+02  0.51100000000E-03 0. -1.
    9900012    2    1    2    0    0 -0.16427652249E+02 -0.27989892135E+01 -0.27184880943E+02  0.59301955232E+02  0.50000020434E+02 0.  0.
        -12    1    1    2    0    0  0.16427652249E+02  0.27989892135E+01  0.27184880943E+02  0.31886044768E+02  0.00000000000E+00 0.  1.
         11    1    3    3    0    0 -0.17842245495E+02  0.20115333396E+02 -0.15446289242E+02  0.31009034386E+02  0.51100000000E-03 0. -1.
        -11    1    3    3    0    0  0.42375943823E+01 -0.16539194681E+02 -0.33740916881E+01  0.17403639327E+02  0.51100000000E-03 0.  1.
         12    1    3    3    0    0 -0.28230011364E+01 -0.63751279283E+01 -0.83645000129E+01  0.10889281518E+02  0.00000000000E+00 0. -1.
</event>
<event>
 7    1  0.1113211E-011  0.5930194E+02  0.7816164E-02  0.1266605E+00
        -11   -1    0    0    0    0  0.00000000000E+00  0.00000000000E+00  0.45593999997E+02  0.45594000000E+02  0.51100000000E-03 0.  1.
         11   -1    0    0    0    0 -0.00000000000E+00 -0.00000000000E+00 -0.45593999997E+02  0.45594000000E+02  0.51100000000E-03 0. -1.
    9900012    2    1    2    0    0  0.30635836893E+02  0.87222618212E+01  0.14452254049E+01  0.59301936746E+02  0.49999986719E+02 0.  0.
        -12    1    1    2    0    0 -0.30635836893E+02 -0.87222618212E+01 -0.14452254049E+01  0.31886063254E+02  0.00000000000E+00 0.  1.
         11    1    3    3    0    0  0.76909977231E+01  0.12162462729E+02  0.36210059920E+01  0.14838754337E+02  0.51100000000E-03 0. -1.
        -11    1    3    3    0    0  0.23045718207E+01 -0.16356904670E+02 -0.94761610383E+01  0.19043555601E+02  0.51100000000E-03 0.  1.
        -12    1    3    3    0    0  0.20640267349E+02  0.12916703762E+02  0.73003804511E+01  0.25419626808E+02  0.00000000000E+00 0.  1.
</event>
<event>
 7    1  0.1113211E-011  0.5930187E+02  0.7816164E-02  0.1266605E+00
        -11   -1    0    0    0    0  0.00000000000E+00  0.00000000000E+00  0.45593999997E+02  0.45594000000E+02  0.51100000000E-03 0.  1.
         11   -1    0    0    0    0 -0.00000000000E+00 -0.00000000000E+00 -0.45593999997E+02  0.45594000000E+02  0.51100000000E-03 0. -1.
    9900012    2    1    2    0    0  0.27476948873E+01  0.42141492458E+01 -0.31486770360E+02  0.59301865258E+02  0.49999856342E+02 0.  0.
        -12    1    1    2    0    0 -0.27476948873E+01 -0.42141492458E+01  0.31486770360E+02  0.31886134742E+02  0.00000000000E+00 0.  1.
         11    1    3    3    0    0  0.86568040916E+01  0.13491471116E+02 -0.38416772851E+02  0.41627016306E+02  0.51100000000E-03 0. -1.
        -11    1    3    3    0    0 -0.93916694686E+01 -0.54262923395E+01  0.32924981657E+01  0.11335283340E+02  0.51100000000E-03 0.  1.
         12    1    3    3    0    0  0.34825602642E+01 -0.38510295304E+01  0.36375043251E+01  0.63395656124E+01  0.00000000000E+00 0. -1.
</event>
<event>
 7    1  0.1113211E-011  0.5930194E+02  0.7816164E-02  0.1266605E+00
        -11   -1    0    0    0    0  0.00000000000E+00  0.00000000000E+00  0.45593999997E+02  0.45594000000E+02  0.51100000000E-03 0.  1.
         11   -1    0    0    0    0 -0.00000000000E+00 -0.00000000000E+00 -0.45593999997E+02  0.45594000000E+02  0.51100000000E-03 0. -1.
    9900012    2    1    2    0    0 -0.27667723579E+02 -0.27565371847E+00  0.15847451498E+02  0.59301942984E+02  0.49999998097E+02 0.  0.
        -12    1    1    2    0    0  0.27667723579E+02  0.27565371847E+00 -0.15847451498E+02  0.31886057016E+02  0.00000000000E+00 0.  1.
         11    1    3    3    0    0 -0.12458067858E+02 -0.39072225277E+01 -0.14493825148E+01  0.13136611152E+02  0.51100000000E-03 0. -1.
        -11    1    3    3    0    0  0.13560901870E+02 -0.98150466662E-01  0.77719441781E+01  0.15630444959E+02  0.51100000000E-03 0.  1.
        -12    1    3    3    0    0 -0.28770557591E+02  0.37297192758E+01  0.95248898351E+01  0.30534886873E+02  0.00000000000E+00 0.  1.
</event>
<event>
 7    1  0.1113211E-011  0.5930201E+02  0.7816164E-02  0.1266605E+00
        -11   -1    0    0    0    0  0.00000000000E+00  0.00000000000E+00  0.45593999997E+02  0.45594000000E+02  0.51100000000E-03 0.  1.
         11   -1    0    0    0    0 -0.00000000000E+00 -0.00000000000E+00 -0.45593999997E+02  0.45594000000E+02  0.51100000000E-03 0. -1.
    9900012    2    1    2    0    0 -0.26198020502E+02 -0.31532192702E+01 -0.17900765876E+02  0.59302007951E+02  0.50000116581E+02 0.  0.
        -12    1    1    2    0    0  0.26198020502E+02  0.31532192702E+01  0.17900765876E+02  0.31885992049E+02  0.00000000000E+00 0.  1.
         11    1    3    3    0    0  0.12557714454E+02 -0.49645375078E+01 -0.14409439940E+01  0.13580101061E+02  0.51100000000E-03 0. -1.
        -11    1    3    3    0    0 -0.12229419148E+02 -0.60863200991E+01 -0.10937198130E+02  0.17499265363E+02  0.51100000000E-03 0.  1.
         12    1    3    3    0    0 -0.26526315808E+02  0.78976383368E+01 -0.55226237516E+01  0.28222641527E+02  0.00000000000E+00 0. -1.
</event>
<event>
 7    1  0.1113211E-011  0.5930192E+02  0.7816164E-02  0.1266605E+00
        -11   -1    0    0    0    0  0.00000000000E+00  0.00000000000E+00  0.45593999997E+02  0.45594000000E+02  0.51100000000E-03 0. -1.
         11   -1    0    0    0    0 -0.00000000000E+00 -0.00000000000E+00 -0.45593999997E+02  0.45594000000E+02  0.51100000000E-03 0.  1.
    9900012    2    1    2    0    0  0.17737776500E+02  0.26496836969E+02 -0.10531607832E+00  0.59301918773E+02  0.49999953942E+02 0.  0.
        -12    1    1    2    0    0 -0.17737776500E+02 -0.26496836969E+02  0.10531607832E+00  0.31886081227E+02  0.00000000000E+00 0.  1.
         11    1    3    3    0    0  0.77414378960E+01 -0.30042685288E+01 -0.19968607384E+02  0.21626390619E+02  0.51100000000E-03 0. -1.
        -11    1    3    3    0    0 -0.28664952825E+00 -0.25627757345E+00 -0.98149346298E-01  0.39683712276E+00  0.51100000000E-03 0.  1.
         12    1    3    3    0    0  0.10282988132E+02  0.29757383071E+02  0.19961440652E+02  0.37278691032E+02  0.00000000000E+00 0. -1.
</event>
<event>
 7    1  0.1113211E-011  0.5930195E+02  0.7816164E-02  0.1266605E+00
        -11   -1    0    0    0    0  0.00000000000E+00  0.00000000000E+00  0.45593999997E+02  0.45594000000E+02  0.51100000000E-03 0. -1.
         11   -1    0    0    0    0 -0.00000000000E+00 -0.00000000000E+00 -0.45593999997E+02  0.45594000000E+02  0.51100000000E-03 0.  1.
    9900012    2    1    2    0    0  0.31279256440E+02  0.54228990466E+01 -0.29867623381E+01  0.59301945575E+02  0.50000002823E+02 0.  0.
        -12    1    1    2    0    0 -0.31279256440E+02 -0.54228990466E+01  0.29867623381E+01  0.31886054425E+02  0.00000000000E+00 0.  1.
         11    1    3    3    0    0  0.22703902179E+02 -0.12292815117E+02  0.12340068605E+02  0.28615690995E+02  0.51100000000E-03 0. -1.
        -11    1    3    3    0    0 -0.37250263527E+01  0.10337234348E+02 -0.11359110107E+02  0.15803911477E+02  0.51100000000E-03 0.  1.
        -12    1    3    3    0    0  0.12300380613E+02  0.73784798158E+01 -0.39677208355E+01  0.14882343104E+02  0.00000000000E+00 0.  1.
</event>
<event>
 7    1  0.1113211E-011  0.5930193E+02  0.7816164E-02  0.1266605E+00
        -11   -1    0    0    0    0  0.00000000000E+00  0.00000000000E+00  0.45593999997E+02  0.45594000000E+02  0.51100000000E-03 0. -1.
         11   -1    0    0    0    0 -0.00000000000E+00 -0.00000000000E+00 -0.45593999997E+02  0.45594000000E+02  0.51100000000E-03 0.  1.
    9900012    2    1    2    0    0 -0.26970463661E+02 -0.72488738146E+01  0.15387320354E+02  0.59301926091E+02  0.49999967288E+02 0.  0.
        -12    1    1    2    0    0  0.26970463661E+02  0.72488738146E+01 -0.15387320354E+02  0.31886073909E+02  0.00000000000E+00 0.  1.
         11    1    3    3    0    0  0.12546459687E+02 -0.22486905660E+01  0.39597797608E+01  0.13347288712E+02  0.51100000000E-03 0. -1.
        -11    1    3    3    0    0 -0.14879750055E+02 -0.71423281602E+01 -0.37670412807E+01  0.16929572160E+02  0.51100000000E-03 0.  1.
         12    1    3    3    0    0 -0.24637173292E+02  0.21421449115E+01  0.15194581873E+02  0.29025065219E+02  0.00000000000E+00 0. -1.
</event>
<event>
 7    1  0.1113211E-011  0.5930214E+02  0.7816164E-02  0.1266604E+00
        -11   -1    0    0    0    0  0.00000000000E+00  0.00000000000E+00  0.45593999997E+02  0.45594000000E+02  0.51100000000E-03 0. -1.
         11   -1    0    0    0    0 -0.00000000000E+00 -0.00000000000E+00 -0.45593999997E+02  0.45594000000E+02  0.51100000000E-03 0.  1.
    9900012    2    1    2    0    0  0.10219509325E+02  0.19729339984E+02  0.22869687143E+02  0.59302143934E+02  0.50000364580E+02 0.  0.
        -12    1    1    2    0    0 -0.10219509325E+02 -0.19729339984E+02 -0.22869687143E+02  0.31885856066E+02  0.00000000000E+00 0.  1.
         11    1    3    3    0    0  0.31403171576E+01  0.28044316054E+02 -0.49301934719E+01  0.28647025373E+02  0.51100000000E-03 0. -1.
        -11    1    3    3    0    0  0.83704191165E+01 -0.70330265342E+01  0.25318331110E+02  0.27577985221E+02  0.51100000000E-03 0.  1.
         12    1    3    3    0    0 -0.12912269495E+01 -0.12819495356E+01  0.24815495051E+01  0.30771333402E+01  0.00000000000E+00 0. -1.
</event>
<event>
 7    1  0.1113211E-011  0.5930194E+02  0.7816164E-02  0.1266605E+00
        -11   -1    0    0    0    0  0.00000000000E+00  0.00000000000E+00  0.45593999997E+02  0.45594000000E+02  0.51100000000E-03 0.  1.
         11   -1    0    0    0    0 -0.00000000000E+00 -0.00000000000E+00 -0.45593999997E+02  0.45594000000E+02  0.51100000000E-03 0. -1.
    9900012    2    1    2    0    0  0.71820230444E+00 -0.24801189637E+02 -0.20027629962E+02  0.59301940603E+02  0.49999993754E+02 0.  0.
        -12    1    1    2    0    0 -0.71820230444E+00  0.24801189637E+02  0.20027629962E+02  0.31886059397E+02  0.00000000000E+00 0.  1.
         11    1    3    3    0    0  0.69510889895E+01 -0.36486757632E+02 -0.79730697597E+01  0.37989090043E+02  0.51100000000E-03 0. -1.
        -11    1    3    3    0    0 -0.44831894938E+01  0.99147462517E-01  0.24009658461E-01  0.44843500066E+01  0.51100000000E-03 0.  1.
         12    1    3    3    0    0 -0.17496971912E+01  0.11586420532E+02 -0.12078569861E+02  0.16828500554E+02  0.00000000000E+00 0. -1.
</event>
<event>
 7    1  0.1113211E-011  0.5930191E+02  0.7816164E-02  0.1266605E+00
        -11   -1    0    0    0    0  0.00000000000E+00  0.00000000000E+00  0.45593999997E+02  0.45594000000E+02  0.51100000000E-03 0.  1.
         11   -1    0    0    0    0 -0.00000000000E+00 -0.00000000000E+00 -0.45593999997E+02  0.45594000000E+02  0.51100000000E-03 0. -1.
    9900012    2    1    2    0    0 -0.16609223665E+02  0.24316065283E+02  0.12230507607E+02  0.59301911216E+02  0.49999940159E+02 0.  0.
        -12    1    1    2    0    0  0.16609223665E+02 -0.24316065283E+02 -0.12230507607E+02  0.31886088784E+02  0.00000000000E+00 0.  1.
         11    1    3    3    0    0 -0.16598756805E+02  0.66065623407E+01  0.63367211284E+01  0.18955722839E+02  0.51100000000E-03 0. -1.
        -11    1    3    3    0    0 -0.11972760948E+01  0.28108287581E+02  0.88105060856E+01  0.29481084080E+02  0.51100000000E-03 0.  1.
        -12    1    3    3    0    0  0.11868092349E+01 -0.10398784638E+02 -0.29167196072E+01  0.10865104297E+02  0.00000000000E+00 0.  1.
</event>
<event>
 7    1  0.1113211E-011  0.5930195E+02  0.7816164E-02  0.1266605E+00
        -11   -1    0    0    0    0  0.00000000000E+00  0.00000000000E+00  0.45593999997E+02  0.45594000000E+02  0.51100000000E-03 0. -1.
         11   -1    0    0    0    0 -0.00000000000E+00 -0.00000000000E+00 -0.45593999997E+02  0.45594000000E+02  0.51100000000E-03 0.  1.
    9900012    2    1    2    0    0 -0.69758116703E+01  0.17229047202E+02  0.25907875429E+02  0.59301952500E+02  0.50000015452E+02 0.  0.
        -12    1    1    2    0    0  0.69758116703E+01 -0.17229047202E+02 -0.25907875429E+02  0.31886047500E+02  0.00000000000E+00 0.  1.
         11    1    3    3    0    0 -0.84019830348E+01  0.12250897447E+01  0.19323199404E+02  0.21106401855E+02  0.51100000000E-03 0. -1.
        -11    1    3    3    0    0  0.99650147619E+01  0.21002716324E+02 -0.41303619791E+01  0.23610919138E+02  0.51100000000E-03 0.  1.
        -12    1    3    3    0    0 -0.85388433973E+01 -0.49987588674E+01  0.10715038004E+02  0.14584631507E+02  0.00000000000E+00 0.  1.
</event>
<event>
 7    1  0.1113211E-011  0.5930194E+02  0.7816164E-02  0.1266605E+00
        -11   -1    0    0    0    0  0.00000000000E+00  0.00000000000E+00  0.45593999997E+02  0.45594000000E+02  0.51100000000E-03 0. -1.
         11   -1    0    0    0    0 -0.00000000000E+00 -0.00000000000E+00 -0.45593999997E+02  0.45594000000E+02  0.51100000000E-03 0.  1.
    9900012    2    1    2    0    0  0.28220612477E+02 -0.12150140458E+02 -0.85259690906E+01  0.59301936733E+02  0.49999986697E+02 0.  0.
        -12    1    1    2    0    0 -0.28220612477E+02  0.12150140458E+02  0.85259690906E+01  0.31886063267E+02  0.00000000000E+00 0.  1.
         11    1    3    3    0    0 -0.49690682985E+00 -0.15410504024E+01  0.73551618828E+01  0.75312787310E+01  0.51100000000E-03 0. -1.
        -11    1    3    3    0    0  0.21320284289E+02  0.12694163478E+02 -0.85768821343E+01  0.26253746703E+02  0.51100000000E-03 0.  1.
        -12    1    3    3    0    0  0.73972350180E+01 -0.23303253533E+02 -0.73042488391E+01  0.25516911299E+02  0.00000000000E+00 0.  1.
</event>
<event>
 7    1  0.1113211E-011  0.5930195E+02  0.7816164E-02  0.1266605E+00
        -11   -1    0    0    0    0  0.00000000000E+00  0.00000000000E+00  0.45593999997E+02  0.45594000000E+02  0.51100000000E-03 0. -1.
         11   -1    0    0    0    0 -0.00000000000E+00 -0.00000000000E+00 -0.45593999997E+02  0.45594000000E+02  0.51100000000E-03 0.  1.
    9900012    2    1    2    0    0 -0.31040924782E+02  0.27454516450E+01  0.67559868239E+01  0.59301954870E+02  0.50000019774E+02 0.  0.
        -12    1    1    2    0    0  0.31040924782E+02 -0.27454516450E+01 -0.67559868239E+01  0.31886045130E+02  0.00000000000E+00 0.  1.
         11    1    3    3    0    0 -0.25844717799E+01 -0.51658647937E+01 -0.16090010773E+02  0.17095440924E+02  0.51100000000E-03 0.  1.
        -11    1    3    3    0    0 -0.19090304089E+02 -0.17053013288E+01  0.48773798504E+01  0.19777173642E+02  0.51100000000E-03 0. -1.
         12    1    3    3    0    0 -0.93661489136E+01  0.96166177675E+01  0.17968617746E+02  0.22429340304E+02  0.00000000000E+00 0. -1.
</event>
<event>
 7    1  0.1113211E-011  0.5930195E+02  0.7816164E-02  0.1266605E+00
        -11   -1    0    0    0    0  0.00000000000E+00  0.00000000000E+00  0.45593999997E+02  0.45594000000E+02  0.51100000000E-03 0.  1.
         11   -1    0    0    0    0 -0.00000000000E+00 -0.00000000000E+00 -0.45593999997E+02  0.45594000000E+02  0.51100000000E-03 0. -1.
    9900012    2    1    2    0    0 -0.12753979279E+02 -0.49327540914E+01 -0.28804932323E+02  0.59301950127E+02  0.50000011124E+02 0.  0.
        -12    1    1    2    0    0  0.12753979279E+02  0.49327540914E+01  0.28804932323E+02  0.31886049873E+02  0.00000000000E+00 0.  1.
         11    1    3    3    0    0 -0.23684751120E+02  0.11729761038E+02 -0.21815622498E+02  0.34270630500E+02  0.51100000000E-03 0. -1.
        -11    1    3    3    0    0  0.74679227135E+01 -0.18305339492E+02 -0.75401908656E+01  0.21159154097E+02  0.51100000000E-03 0.  1.
         12    1    3    3    0    0  0.34628491279E+01  0.16428243623E+01  0.55088104128E+00  0.38721655297E+01  0.00000000000E+00 0. -1.
</event>
<event>
 7    1  0.1113211E-011  0.5930190E+02  0.7816164E-02  0.1266605E+00
        -11   -1    0    0    0    0  0.00000000000E+00  0.00000000000E+00  0.45593999997E+02  0.45594000000E+02  0.51100000000E-03 0. -1.
         11   -1    0    0    0    0 -0.00000000000E+00 -0.00000000000E+00 -0.45593999997E+02  0.45594000000E+02  0.51100000000E-03 0.  1.
    9900012    2    1    2    0    0  0.22376822380E+02 -0.20493267342E+02  0.97993379370E+01  0.59301902556E+02  0.49999924366E+02 0.  0.
        -12    1    1    2    0    0 -0.22376822380E+02  0.20493267342E+02 -0.97993379370E+01  0.31886097444E+02  0.00000000000E+00 0.  1.
         11    1    3    3    0    0 -0.22966113038E+01 -0.79951353926E+01  0.17717598139E+02  0.19573193340E+02  0.51100000000E-03 0. -1.
        -11    1    3    3    0    0  0.54989414440E+01 -0.12383477465E+02 -0.14126264045E+02  0.19573967591E+02  0.51100000000E-03 0.  1.
        -12    1    3    3    0    0  0.19174492240E+02 -0.11465448522E+00  0.62080038424E+01  0.20154741626E+02  0.00000000000E+00 0.  1.
</event>
<event>
 7    1  0.1113211E-011  0.5930190E+02  0.7816164E-02  0.1266605E+00
        -11   -1    0    0    0    0  0.00000000000E+00  0.00000000000E+00  0.45593999997E+02  0.45594000000E+02  0.51100000000E-03 0. -1.
         11   -1    0    0    0    0 -0.00000000000E+00 -0.00000000000E+00 -0.45593999997E+02  0.45594000000E+02  0.51100000000E-03 0.  1.
    9900012    2    1    2    0    0 -0.15051622957E+01 -0.25327516126E+02  0.19312548896E+02  0.59301903790E+02  0.49999926617E+02 0.  0.
        -12    1    1    2    0    0  0.15051622957E+01  0.25327516126E+02 -0.19312548896E+02  0.31886096210E+02  0.00000000000E+00 0.  1.
         11    1    3    3    0    0 -0.33061210234E+01 -0.47426963876E+01  0.10617607291E+02  0.12089548796E+02  0.51100000000E-03 0. -1.
        -11    1    3    3    0    0  0.15501145234E+02 -0.15658003990E+02 -0.94281111555E+01  0.23965555966E+02  0.51100000000E-03 0.  1.
        -12    1    3    3    0    0 -0.13700186506E+02 -0.49268157476E+01  0.18123052760E+02  0.23246799028E+02  0.00000000000E+00 0.  1.
</event>
<event>
 7    1  0.1113211E-011  0.5930191E+02  0.7816164E-02  0.1266605E+00
        -11   -1    0    0    0    0  0.00000000000E+00  0.00000000000E+00  0.45593999997E+02  0.45594000000E+02  0.51100000000E-03 0.  1.
         11   -1    0    0    0    0 -0.00000000000E+00 -0.00000000000E+00 -0.45593999997E+02  0.45594000000E+02  0.51100000000E-03 0. -1.
    9900012    2    1    2    0    0 -0.21902025398E+01 -0.27444527971E+02 -0.16084883287E+02  0.59301912546E+02  0.49999942586E+02 0.  0.
        -12    1    1    2    0    0  0.21902025398E+01  0.27444527971E+02  0.16084883287E+02  0.31886087454E+02  0.00000000000E+00 0.  1.
         11    1    3    3    0    0  0.41182594643E+00 -0.45141667121E+01 -0.90864296068E+01  0.10154334295E+02  0.51100000000E-03 0. -1.
        -11    1    3    3    0    0 -0.19637164391E+02 -0.18217009371E+02  0.56977986001E+01  0.27385079238E+02  0.51100000000E-03 0.  1.
        -12    1    3    3    0    0  0.17035135905E+02 -0.47133518882E+01 -0.12696252281E+02  0.21762499013E+02  0.00000000000E+00 0.  1.
</event>
<event>
 7    1  0.1113211E-011  0.5930202E+02  0.7816164E-02  0.1266604E+00
        -11   -1    0    0    0    0  0.00000000000E+00  0.00000000000E+00  0.45593999997E+02  0.45594000000E+02  0.51100000000E-03 0.  1.
         11   -1    0    0    0    0 -0.00000000000E+00 -0.00000000000E+00 -0.45593999997E+02  0.45594000000E+02  0.51100000000E-03 0. -1.
    9900012    2    1    2    0    0 -0.26348070809E+02  0.10422158551E+02 -0.14624410755E+02  0.59302021668E+02  0.50000141597E+02 0.  0.
        -12    1    1    2    0    0  0.26348070809E+02 -0.10422158551E+02  0.14624410755E+02  0.31885978332E+02  0.00000000000E+00 0.  1.
         11    1    3    3    0    0 -0.75012091792E+01 -0.72403954554E+01 -0.16522168243E+01  0.10555628176E+02  0.51100000000E-03 0. -1.
        -11    1    3    3    0    0 -0.10395809423E+02  0.23286377418E+02 -0.23098932573E+02  0.34407686832E+02  0.51100000000E-03 0.  1.
        -12    1    3    3    0    0 -0.84510522069E+01 -0.56238234114E+01  0.10126738642E+02  0.14338706660E+02  0.00000000000E+00 0.  1.
</event>
<event>
 7    1  0.1113211E-011  0.5930200E+02  0.7816164E-02  0.1266605E+00
        -11   -1    0    0    0    0  0.00000000000E+00  0.00000000000E+00  0.45593999997E+02  0.45594000000E+02  0.51100000000E-03 0.  1.
         11   -1    0    0    0    0 -0.00000000000E+00 -0.00000000000E+00 -0.45593999997E+02  0.45594000000E+02  0.51100000000E-03 0. -1.
    9900012    2    1    2    0    0 -0.24754009054E+02 -0.11142112636E+02 -0.16727494421E+02  0.59302004518E+02  0.50000110320E+02 0.  0.
        -12    1    1    2    0    0  0.24754009054E+02  0.11142112636E+02  0.16727494421E+02  0.31885995482E+02  0.00000000000E+00 0.  1.
         11    1    3    3    0    0 -0.25869787565E+02  0.42823729937E+01 -0.11283440676E+02  0.28546464945E+02  0.51100000000E-03 0. -1.
        -11    1    3    3    0    0 -0.72821078222E+01 -0.28986925320E+01  0.75250169265E+01  0.10865421885E+02  0.51100000000E-03 0.  1.
         12    1    3    3    0    0  0.83978863328E+01 -0.12525793097E+02 -0.12969070671E+02  0.19890117688E+02  0.00000000000E+00 0. -1.
</event>
<event>
 7    1  0.1113211E-011  0.5930194E+02  0.7816164E-02  0.1266605E+00
        -11   -1    0    0    0    0  0.00000000000E+00  0.00000000000E+00  0.45593999997E+02  0.45594000000E+02  0.51100000000E-03 0.  1.
         11   -1    0    0    0    0 -0.00000000000E+00 -0.00000000000E+00 -0.45593999997E+02  0.45594000000E+02  0.51100000000E-03 0. -1.
    9900012    2    1    2    0    0  0.20037474787E+01  0.18858883899E+02 -0.25632950900E+02  0.59301942267E+02  0.49999996789E+02 0.  0.
        -12    1    1    2    0    0 -0.20037474787E+01 -0.18858883899E+02  0.25632950900E+02  0.31886057733E+02  0.00000000000E+00 0.  1.
         11    1    3    3    0    0  0.12803413051E+02  0.77957491177E+01 -0.16490133083E+02  0.22285097698E+02  0.51100000000E-03 0. -1.
        -11    1    3    3    0    0 -0.39428907701E+01 -0.10692197366E+02  0.20974863461E+01  0.11587446715E+02  0.51100000000E-03 0.  1.
        -12    1    3    3    0    0 -0.68567748019E+01  0.21755332148E+02 -0.11240304164E+02  0.25429397854E+02  0.00000000000E+00 0.  1.
</event>
<event>
 7    1  0.1113211E-011  0.5930195E+02  0.7816164E-02  0.1266605E+00
        -11   -1    0    0    0    0  0.00000000000E+00  0.00000000000E+00  0.45593999997E+02  0.45594000000E+02  0.51100000000E-03 0. -1.
         11   -1    0    0    0    0 -0.00000000000E+00 -0.00000000000E+00 -0.45593999997E+02  0.45594000000E+02  0.51100000000E-03 0.  1.
    9900012    2    1    2    0    0  0.15079165351E+02 -0.27173560772E+02  0.71369659660E+01  0.59301954213E+02  0.50000018575E+02 0.  0.
        -12    1    1    2    0    0 -0.15079165351E+02  0.27173560772E+02 -0.71369659660E+01  0.31886045787E+02  0.00000000000E+00 0.  1.
         11    1    3    3    0    0  0.22022837003E+02 -0.31090730795E+02  0.10223379189E+02  0.39448147908E+02  0.51100000000E-03 0. -1.
        -11    1    3    3    0    0  0.25862891194E+01  0.85071817436E+01 -0.26039760671E+01  0.92650809088E+01  0.51100000000E-03 0.  1.
        -12    1    3    3    0    0 -0.95299607716E+01 -0.45900117209E+01 -0.48243715601E+00  0.10588725396E+02  0.00000000000E+00 0.  1.
</event>
<event>
 7    1  0.1113211E-011  0.5930194E+02  0.7816164E-02  0.1266605E+00
        -11   -1    0    0    0    0  0.00000000000E+00  0.00000000000E+00  0.45593999997E+02  0.45594000000E+02  0.51100000000E-03 0.  1.
         11   -1    0    0    0    0 -0.00000000000E+00 -0.00000000000E+00 -0.45593999997E+02  0.45594000000E+02  0.51100000000E-03 0. -1.
    9900012    2    1    2    0    0  0.39589754730E+01  0.18381159102E+02 -0.25752288087E+02  0.59301939747E+02  0.49999992192E+02 0.  0.
        -12    1    1    2    0    0 -0.39589754730E+01 -0.18381159102E+02  0.25752288087E+02  0.31886060253E+02  0.00000000000E+00 0.  1.
         11    1    3    3    0    0 -0.29035703735E+01  0.17089197761E+02 -0.32325984469E+01  0.17632954773E+02  0.51100000000E-03 0. -1.
        -11    1    3    3    0    0 -0.41668354603E+01 -0.13903550101E+02 -0.34747879652E+01  0.14924656607E+02  0.51100000000E-03 0.  1.
        -12    1    3    3    0    0  0.11029381307E+02  0.15195511442E+02 -0.19044901675E+02  0.26744328367E+02  0.00000000000E+00 0.  1.
</event>
<event>
 7    1  0.1113211E-011  0.5930193E+02  0.7816164E-02  0.1266605E+00
        -11   -1    0    0    0    0  0.00000000000E+00  0.00000000000E+00  0.45593999997E+02  0.45594000000E+02  0.51100000000E-03 0.  1.
         11   -1    0    0    0    0 -0.00000000000E+00 -0.00000000000E+00 -0.45593999997E+02  0.45594000000E+02  0.51100000000E-03 0. -1.
    9900012    2    1    2    0    0 -0.17931389749E+02  0.20033744169E+02 -0.17141641568E+02  0.59301929069E+02  0.49999972719E+02 0.  0.
        -12    1    1    2    0    0  0.17931389749E+02 -0.20033744169E+02  0.17141641568E+02  0.31886070931E+02  0.00000000000E+00 0.  1.
         11    1    3    3    0    0 -0.91525156907E+01  0.18385983710E+02 -0.24068979321E+02  0.31640617982E+02  0.51100000000E-03 0. -1.
        -11    1    3    3    0    0 -0.11548837671E+02 -0.43259385513E+01  0.13550267147E+02  0.18322094201E+02  0.51100000000E-03 0.  1.
        -12    1    3    3    0    0  0.27699636122E+01  0.59736990098E+01 -0.66229293949E+01  0.93392168859E+01  0.00000000000E+00 0.  1.
</event>
<event>
 7    1  0.1113211E-011  0.5930195E+02  0.7816164E-02  0.1266605E+00
        -11   -1    0    0    0    0  0.00000000000E+00  0.00000000000E+00  0.45593999997E+02  0.45594000000E+02  0.51100000000E-03 0.  1.
         11   -1    0    0    0    0 -0.00000000000E+00 -0.00000000000E+00 -0.45593999997E+02  0.45594000000E+02  0.51100000000E-03 0. -1.
    9900012    2    1    2    0    0 -0.24981589444E+02  0.60603550908E+01 -0.18865640353E+02  0.59301951312E+02  0.50000013286E+02 0.  0.
        -12    1    1    2    0    0  0.24981589444E+02 -0.60603550908E+01  0.18865640353E+02  0.31886048688E+02  0.00000000000E+00 0.  1.
         11    1    3    3    0    0 -0.27974859014E+02 -0.39378476273E+01  0.35318141580E+01  0.28470565367E+02  0.51100000000E-03 0. -1.
        -11    1    3    3    0    0 -0.31349985499E+00 -0.31145752956E+00 -0.19658306373E+02  0.19663272812E+02  0.51100000000E-03 0.  1.
         12    1    3    3    0    0  0.33067694248E+01  0.10309660248E+02 -0.27391481375E+01  0.11168113134E+02  0.00000000000E+00 0. -1.
</event>
<event>
 7    1  0.1113211E-011  0.5930194E+02  0.7816164E-02  0.1266605E+00
        -11   -1    0    0    0    0  0.00000000000E+00  0.00000000000E+00  0.45593999997E+02  0.45594000000E+02  0.51100000000E-03 0. -1.
         11   -1    0    0    0    0 -0.00000000000E+00 -0.00000000000E+00 -0.45593999997E+02  0.45594000000E+02  0.51100000000E-03 0.  1.
    9900012    2    1    2    0    0 -0.12609941343E+02 -0.43133451083E+01  0.28967311099E+02  0.59301942247E+02  0.49999996753E+02 0.  0.
        -12    1    1    2    0    0  0.12609941343E+02  0.43133451083E+01 -0.28967311099E+02  0.31886057753E+02  0.00000000000E+00 0.  1.
         11    1    3    3    0    0 -0.21623030908E+02 -0.13313463886E+02  0.84954399865E+01  0.26776412888E+02  0.51100000000E-03 0.  1.
        -11    1    3    3    0    0  0.16289216425E+02  0.54341699665E+01  0.13933810438E+02  0.22113793175E+02  0.51100000000E-03 0. -1.
         12    1    3    3    0    0 -0.72761268600E+01  0.35659488114E+01  0.65380606739E+01  0.10411736185E+02  0.00000000000E+00 0. -1.
</event>
<event>
 7    1  0.1113211E-011  0.5930194E+02  0.7816164E-02  0.1266605E+00
        -11   -1    0    0    0    0  0.00000000000E+00  0.00000000000E+00  0.45593999997E+02  0.45594000000E+02  0.51100000000E-03 0.  1.
         11   -1    0    0    0    0 -0.00000000000E+00 -0.00000000000E+00 -0.45593999997E+02  0.45594000000E+02  0.51100000000E-03 0. -1.
    9900012    2    1    2    0    0 -0.94818787704E+01 -0.12614355980E+02 -0.27707266027E+02  0.59301943604E+02  0.49999999227E+02 0.  0.
        -12    1    1    2    0    0  0.94818787704E+01  0.12614355980E+02  0.27707266027E+02  0.31886056396E+02  0.00000000000E+00 0.  1.
         11    1    3    3    0    0  0.29287493334E+01  0.90430839669E+01  0.84938537344E+01  0.12747568074E+02  0.51100000000E-03 0.  1.
        -11    1    3    3    0    0 -0.10201619516E+02 -0.57949322325E+01 -0.22920108658E+02  0.25748507947E+02  0.51100000000E-03 0. -1.
         12    1    3    3    0    0 -0.22090085873E+01 -0.15862507715E+02 -0.13281011104E+02  0.20805867583E+02  0.00000000000E+00 0. -1.
</event>
<event>
 7    1  0.1113211E-011  0.5930195E+02  0.7816164E-02  0.1266605E+00
        -11   -1    0    0    0    0  0.00000000000E+00  0.00000000000E+00  0.45593999997E+02  0.45594000000E+02  0.51100000000E-03 0. -1.
         11   -1    0    0    0    0 -0.00000000000E+00 -0.00000000000E+00 -0.45593999997E+02  0.45594000000E+02  0.51100000000E-03 0.  1.
    9900012    2    1    2    0    0  0.20252654158E+02  0.73924073064E+01  0.23492605641E+02  0.59301949663E+02  0.50000010278E+02 0.  0.
        -12    1    1    2    0    0 -0.20252654158E+02 -0.73924073064E+01 -0.23492605641E+02  0.31886050337E+02  0.00000000000E+00 0.  1.
         11    1    3    3    0    0  0.14415426739E+02  0.41537036330E+01  0.17703898045E+02  0.23205296555E+02  0.51100000000E-03 0. -1.
        -11    1    3    3    0    0 -0.13214655462E+02  0.46688286964E+01 -0.40745048103E+01  0.14595433193E+02  0.51100000000E-03 0.  1.
        -12    1    3    3    0    0  0.19051882881E+02 -0.14301250230E+01  0.98632124067E+01  0.21501219916E+02  0.00000000000E+00 0.  1.
</event>
<event>
 7    1  0.1113211E-011  0.5930194E+02  0.7816164E-02  0.1266605E+00
        -11   -1    0    0    0    0  0.00000000000E+00  0.00000000000E+00  0.45593999997E+02  0.45594000000E+02  0.51100000000E-03 0.  1.
         11   -1    0    0    0    0 -0.00000000000E+00 -0.00000000000E+00 -0.45593999997E+02  0.45594000000E+02  0.51100000000E-03 0. -1.
    9900012    2    1    2    0    0  0.13668317538E+02  0.20491345940E+02 -0.20248525644E+02  0.59301937943E+02  0.49999988902E+02 0.  0.
        -12    1    1    2    0    0 -0.13668317538E+02 -0.20491345940E+02  0.20248525644E+02  0.31886062057E+02  0.00000000000E+00 0.  1.
         11    1    3    3    0    0 -0.36185455372E+01  0.26140898962E+00 -0.16722253067E+01  0.39948146643E+01  0.51100000000E-03 0. -1.
        -11    1    3    3    0    0  0.28452993696E+02  0.18366789956E+02 -0.25180057968E+02  0.42201269449E+02  0.51100000000E-03 0.  1.
        -12    1    3    3    0    0 -0.11166130620E+02  0.18631469949E+01  0.66037576310E+01  0.13105853830E+02  0.00000000000E+00 0.  1.
</event>
<event>
 7    1  0.1113211E-011  0.5930194E+02  0.7816164E-02  0.1266605E+00
        -11   -1    0    0    0    0  0.00000000000E+00  0.00000000000E+00  0.45593999997E+02  0.45594000000E+02  0.51100000000E-03 0. -1.
         11   -1    0    0    0    0 -0.00000000000E+00 -0.00000000000E+00 -0.45593999997E+02  0.45594000000E+02  0.51100000000E-03 0.  1.
    9900012    2    1    2    0    0  0.24484817699E+02  0.10479046685E+02  0.17532938150E+02  0.59301942901E+02  0.49999997945E+02 0.  0.
        -12    1    1    2    0    0 -0.24484817699E+02 -0.10479046685E+02 -0.17532938150E+02  0.31886057099E+02  0.00000000000E+00 0.  1.
         11    1    3    3    0    0  0.50416468085E+01  0.38110714873E+01  0.13675451226E+02  0.15065206103E+02  0.51100000000E-03 0. -1.
        -11    1    3    3    0    0  0.92702049227E+01  0.22173661067E+02 -0.34972728349E+01  0.24286598403E+02  0.51100000000E-03 0.  1.
        -12    1    3    3    0    0  0.10172965968E+02 -0.15505685870E+02  0.73547597594E+01  0.19950138395E+02  0.00000000000E+00 0.  1.
</event>
<event>
 7    1  0.1113211E-011  0.5930195E+02  0.7816164E-02  0.1266605E+00
        -11   -1    0    0    0    0  0.00000000000E+00  0.00000000000E+00  0.45593999997E+02  0.45594000000E+02  0.51100000000E-03 0.  1.
         11   -1    0    0    0    0 -0.00000000000E+00 -0.00000000000E+00 -0.45593999997E+02  0.45594000000E+02  0.51100000000E-03 0. -1.
    9900012    2    1    2    0    0  0.29615168318E+02 -0.49436001020E+01 -0.10734187970E+02  0.59301950262E+02  0.50000011370E+02 0.  0.
        -12    1    1    2    0    0 -0.29615168318E+02  0.49436001020E+01  0.10734187970E+02  0.31886049738E+02  0.00000000000E+00 0.  1.
         11    1    3    3    0    0  0.46046411562E+01  0.14034011930E+01 -0.24714938836E+02  0.25179365700E+02  0.51100000000E-03 0. -1.
        -11    1    3    3    0    0  0.23536599589E+02 -0.79116752714E+01  0.55784283825E+01  0.25449655976E+02  0.51100000000E-03 0.  1.
         12    1    3    3    0    0  0.14739275730E+01  0.15646739764E+01  0.84023224840E+01  0.86729285865E+01  0.00000000000E+00 0. -1.
</event>
<event>
 7    1  0.1113211E-011  0.5930194E+02  0.7816164E-02  0.1266605E+00
        -11   -1    0    0    0    0  0.00000000000E+00  0.00000000000E+00  0.45593999997E+02  0.45594000000E+02  0.51100000000E-03 0.  1.
         11   -1    0    0    0    0 -0.00000000000E+00 -0.00000000000E+00 -0.45593999997E+02  0.45594000000E+02  0.51100000000E-03 0. -1.
    9900012    2    1    2    0    0  0.98678922998E+01 -0.22968979305E+02 -0.19793213663E+02  0.59301943237E+02  0.49999998558E+02 0.  0.
        -12    1    1    2    0    0 -0.98678922998E+01  0.22968979305E+02  0.19793213663E+02  0.31886056763E+02  0.00000000000E+00 0.  1.
         11    1    3    3    0    0 -0.80227128922E+01 -0.15486396203E+02 -0.17724890854E+01  0.17530947131E+02  0.51100000000E-03 0. -1.
        -11    1    3    3    0    0  0.20681354621E+02  0.64309442452E+01 -0.43986218858E+01  0.22100301980E+02  0.51100000000E-03 0.  1.
        -12    1    3    3    0    0 -0.27907494292E+01 -0.13913527348E+02 -0.13622102692E+02  0.19670694126E+02  0.00000000000E+00 0.  1.
</event>
<event>
 7    1  0.1113211E-011  0.5930193E+02  0.7816164E-02  0.1266605E+00
        -11   -1    0    0    0    0  0.00000000000E+00  0.00000000000E+00  0.45593999997E+02  0.45594000000E+02  0.51100000000E-03 0. -1.
         11   -1    0    0    0    0 -0.00000000000E+00 -0.00000000000E+00 -0.45593999997E+02  0.45594000000E+02  0.51100000000E-03 0.  1.
    9900012    2    1    2    0    0 -0.21988628529E+02 -0.36375540886E+01  0.22803291545E+02  0.59301926400E+02  0.49999967851E+02 0.  0.
        -12    1    1    2    0    0  0.21988628529E+02  0.36375540886E+01 -0.22803291545E+02  0.31886073600E+02  0.00000000000E+00 0.  1.
         11    1    3    3    0    0 -0.12890279854E+02 -0.17405223516E+02  0.16268040629E+02  0.27087825061E+02  0.51100000000E-03 0. -1.
        -11    1    3    3    0    0  0.74580571716E+01  0.74368382858E+01 -0.43696740849E+01  0.11402773011E+02  0.51100000000E-03 0.  1.
         12    1    3    3    0    0 -0.16556405846E+02  0.63308311420E+01  0.10904925001E+02  0.20811328328E+02  0.00000000000E+00 0. -1.
</event>
<event>
 7    1  0.1113211E-011  0.5930198E+02  0.7816164E-02  0.1266605E+00
        -11   -1    0    0    0    0  0.00000000000E+00  0.00000000000E+00  0.45593999997E+02  0.45594000000E+02  0.51100000000E-03 0.  1.
         11   -1    0    0    0    0 -0.00000000000E+00 -0.00000000000E+00 -0.45593999997E+02  0.45594000000E+02  0.51100000000E-03 0. -1.
    9900012    2    1    2    0    0  0.16165067359E+02 -0.20299779927E+02 -0.18529115189E+02  0.59301975201E+02  0.50000056852E+02 0.  0.
        -12    1    1    2    0    0 -0.16165067359E+02  0.20299779927E+02  0.18529115189E+02  0.31886024799E+02  0.00000000000E+00 0.  1.
         11    1    3    3    0    0  0.10505682643E+02  0.97130503765E+01 -0.95882707865E+01  0.17223462264E+02  0.51100000000E-03 0. -1.
        -11    1    3    3    0    0  0.70751372235E+01 -0.14160848695E+02  0.89083627658E+01  0.18164419339E+02  0.51100000000E-03 0.  1.
         12    1    3    3    0    0 -0.14157525078E+01 -0.15851981608E+02 -0.17849207168E+02  0.23914093598E+02  0.00000000000E+00 0. -1.
</event>
<event>
 7    1  0.1113211E-011  0.5930194E+02  0.7816164E-02  0.1266605E+00
        -11   -1    0    0    0    0  0.00000000000E+00  0.00000000000E+00  0.45593999997E+02  0.45594000000E+02  0.51100000000E-03 0.  1.
         11   -1    0    0    0    0 -0.00000000000E+00 -0.00000000000E+00 -0.45593999997E+02  0.45594000000E+02  0.51100000000E-03 0. -1.
    9900012    2    1    2    0    0 -0.31881591388E+01 -0.11612837544E+02 -0.29524536292E+02  0.59301943521E+02  0.49999999075E+02 0.  0.
        -12    1    1    2    0    0  0.31881591388E+01  0.11612837544E+02  0.29524536292E+02  0.31886056479E+02  0.00000000000E+00 0.  1.
         11    1    3    3    0    0  0.13988895813E+01 -0.63924531997E-02 -0.33392849737E+02  0.33422138572E+02  0.51100000000E-03 0. -1.
        -11    1    3    3    0    0 -0.69348548540E+01  0.49685952409E+01 -0.60332977386E+00  0.85523773063E+01  0.51100000000E-03 0.  1.
         12    1    3    3    0    0  0.23478061338E+01 -0.16575040331E+02  0.44716432181E+01  0.17327427642E+02  0.00000000000E+00 0. -1.
</event>
<event>
 7    1  0.1113211E-011  0.5930194E+02  0.7816164E-02  0.1266605E+00
        -11   -1    0    0    0    0  0.00000000000E+00  0.00000000000E+00  0.45593999997E+02  0.45594000000E+02  0.51100000000E-03 0. -1.
         11   -1    0    0    0    0 -0.00000000000E+00 -0.00000000000E+00 -0.45593999997E+02  0.45594000000E+02  0.51100000000E-03 0.  1.
    9900012    2    1    2    0    0 -0.22519128067E+02 -0.13871916425E+02  0.17809541828E+02  0.59301937617E+02  0.49999988309E+02 0.  0.
        -12    1    1    2    0    0  0.22519128067E+02  0.13871916425E+02 -0.17809541828E+02  0.31886062383E+02  0.00000000000E+00 0.  1.
         11    1    3    3    0    0 -0.26989599207E+01 -0.47780951921E+01  0.12843059639E+02  0.13966343812E+02  0.51100000000E-03 0. -1.
        -11    1    3    3    0    0 -0.11249433086E+02 -0.66481490430E+01 -0.17109291901E+02  0.21528481137E+02  0.51100000000E-03 0.  1.
        -12    1    3    3    0    0 -0.85707350595E+01 -0.24456721895E+01  0.22075774090E+02  0.23807112668E+02  0.00000000000E+00 0.  1.
</event>
<event>
 7    1  0.1113211E-011  0.5930197E+02  0.7816164E-02  0.1266605E+00
        -11   -1    0    0    0    0  0.00000000000E+00  0.00000000000E+00  0.45593999997E+02  0.45594000000E+02  0.51100000000E-03 0.  1.
         11   -1    0    0    0    0 -0.00000000000E+00 -0.00000000000E+00 -0.45593999997E+02  0.45594000000E+02  0.51100000000E-03 0. -1.
    9900012    2    1    2    0    0 -0.27685680803E+01  0.19466934697E+02 -0.25101635828E+02  0.59301974269E+02  0.50000055153E+02 0.  0.
        -12    1    1    2    0    0  0.27685680803E+01 -0.19466934697E+02  0.25101635828E+02  0.31886025731E+02  0.00000000000E+00 0.  1.
         11    1    3    3    0    0  0.87424538149E+01  0.24620033096E+02 -0.66844933921E+01  0.26967739626E+02  0.51100000000E-03 0. -1.
        -11    1    3    3    0    0 -0.10267434879E+02  0.25671758287E+00  0.26014730562E+01  0.10594988685E+02  0.51100000000E-03 0.  1.
         12    1    3    3    0    0 -0.12435870167E+01 -0.54098159827E+01 -0.21018615492E+02  0.21739245958E+02  0.00000000000E+00 0. -1.
</event>
<event>
 7    1  0.1113211E-011  0.5930193E+02  0.7816164E-02  0.1266605E+00
        -11   -1    0    0    0    0  0.00000000000E+00  0.00000000000E+00  0.45593999997E+02  0.45594000000E+02  0.51100000000E-03 0.  1.
         11   -1    0    0    0    0 -0.00000000000E+00 -0.00000000000E+00 -0.45593999997E+02  0.45594000000E+02  0.51100000000E-03 0. -1.
    9900012    2    1    2    0    0  0.28745601281E+02 -0.13507242284E+02 -0.28224228164E+01  0.59301933173E+02  0.49999980204E+02 0.  0.
        -12    1    1    2    0    0 -0.28745601281E+02  0.13507242284E+02  0.28224228164E+01  0.31886066827E+02  0.00000000000E+00 0.  1.
         11    1    3    3    0    0  0.31406409007E+02 -0.14763471446E+02 -0.63726059650E-01  0.34703410166E+02  0.51100000000E-03 0. -1.
        -11    1    3    3    0    0 -0.63455144996E+01  0.74848137489E+01 -0.10244986361E+02  0.14186181196E+02  0.51100000000E-03 0.  1.
         12    1    3    3    0    0  0.36847067733E+01 -0.62285845869E+01  0.74862896046E+01  0.10412341812E+02  0.00000000000E+00 0. -1.
</event>
<event>
 7    1  0.1113211E-011  0.5930191E+02  0.7816164E-02  0.1266605E+00
        -11   -1    0    0    0    0  0.00000000000E+00  0.00000000000E+00  0.45593999997E+02  0.45594000000E+02  0.51100000000E-03 0. -1.
         11   -1    0    0    0    0 -0.00000000000E+00 -0.00000000000E+00 -0.45593999997E+02  0.45594000000E+02  0.51100000000E-03 0.  1.
    9900012    2    1    2    0    0 -0.15138666221E+02  0.24787272080E+02  0.13158059737E+02  0.59301911997E+02  0.49999941583E+02 0.  0.
        -12    1    1    2    0    0  0.15138666221E+02 -0.24787272080E+02 -0.13158059737E+02  0.31886088003E+02  0.00000000000E+00 0.  1.
         11    1    3    3    0    0 -0.15267960272E+02  0.22639559917E+02 -0.64032472702E+01  0.28047492936E+02  0.51100000000E-03 0.  1.
        -11    1    3    3    0    0 -0.64309061303E+01 -0.62543553628E+01  0.18477103386E+02  0.20539641293E+02  0.51100000000E-03 0. -1.
        -12    1    3    3    0    0  0.65602001811E+01  0.84020675254E+01  0.10842036215E+01  0.10714777768E+02  0.00000000000E+00 0.  1.
</event>
<event>
 7    1  0.1113211E-011  0.5930196E+02  0.7816164E-02  0.1266605E+00
        -11   -1    0    0    0    0  0.00000000000E+00  0.00000000000E+00  0.45593999997E+02  0.45594000000E+02  0.51100000000E-03 0. -1.
         11   -1    0    0    0    0 -0.00000000000E+00 -0.00000000000E+00 -0.45593999997E+02  0.45594000000E+02  0.51100000000E-03 0.  1.
    9900012    2    1    2    0    0  0.12685398521E+02  0.29254054459E+02  0.17369533553E-01  0.59301963250E+02  0.50000035056E+02 0.  0.
        -12    1    1    2    0    0 -0.12685398521E+02 -0.29254054459E+02 -0.17369533553E-01  0.31886036750E+02  0.00000000000E+00 0.  1.
         11    1    3    3    0    0 -0.76277449219E+00 -0.18733335461E+01 -0.17555953444E+02  0.17672088306E+02  0.51100000000E-03 0.  1.
        -11    1    3    3    0    0  0.11406808410E+02  0.10620319407E+02  0.13507449047E+02  0.20624200407E+02  0.51100000000E-03 0. -1.
        -12    1    3    3    0    0  0.20413646034E+01  0.20507068599E+02  0.40658739300E+01  0.21005674537E+02  0.00000000000E+00 0.  1.
</event>
<event>
 7    1  0.1113211E-011  0.5930195E+02  0.7816164E-02  0.1266605E+00
        -11   -1    0    0    0    0  0.00000000000E+00  0.00000000000E+00  0.45593999997E+02  0.45594000000E+02  0.51100000000E-03 0.  1.
         11   -1    0    0    0    0 -0.00000000000E+00 -0.00000000000E+00 -0.45593999997E+02  0.45594000000E+02  0.51100000000E-03 0. -1.
    9900012    2    1    2    0    0 -0.17914976707E+02  0.21216266287E+02 -0.15673025841E+02  0.59301951568E+02  0.50000013752E+02 0.  0.
        -12    1    1    2    0    0  0.17914976707E+02 -0.21216266287E+02  0.15673025841E+02  0.31886048432E+02  0.00000000000E+00 0.  1.
         11    1    3    3    0    0 -0.24173847912E+02  0.15631829177E+02 -0.27468954217E+02  0.39790356273E+02  0.51100000000E-03 0. -1.
        -11    1    3    3    0    0  0.25311661356E+01 -0.31994778501E+01 -0.31661958075E+00  0.40919077139E+01  0.51100000000E-03 0.  1.
         12    1    3    3    0    0  0.37277050701E+01  0.87839149605E+01  0.12112547956E+02  0.15419687582E+02  0.00000000000E+00 0. -1.
</event>
<event>
 7    1  0.1113211E-011  0.5930195E+02  0.7816164E-02  0.1266605E+00
        -11   -1    0    0    0    0  0.00000000000E+00  0.00000000000E+00  0.45593999997E+02  0.45594000000E+02  0.51100000000E-03 0. -1.
         11   -1    0    0    0    0 -0.00000000000E+00 -0.00000000000E+00 -0.45593999997E+02  0.45594000000E+02  0.51100000000E-03 0.  1.
    9900012    2    1    2    0    0 -0.10593276126E+02  0.29258704805E+02  0.69592436803E+01  0.59301946959E+02  0.50000005345E+02 0.  0.
        -12    1    1    2    0    0  0.10593276126E+02 -0.29258704805E+02 -0.69592436803E+01  0.31886053041E+02  0.00000000000E+00 0.  1.
         11    1    3    3    0    0 -0.81516672233E+01  0.17148616402E+02  0.94671345858E+01  0.21216770738E+02  0.51100000000E-03 0. -1.
        -11    1    3    3    0    0  0.21206066642E+01 -0.86774436829E+01  0.99926001213E+01  0.13403248074E+02  0.51100000000E-03 0.  1.
        -12    1    3    3    0    0 -0.45622155667E+01  0.20787532086E+02 -0.12500491027E+02  0.24681928146E+02  0.00000000000E+00 0.  1.
</event>
<event>
 7    1  0.1113211E-011  0.5930191E+02  0.7816164E-02  0.1266605E+00
        -11   -1    0    0    0    0  0.00000000000E+00  0.00000000000E+00  0.45593999997E+02  0.45594000000E+02  0.51100000000E-03 0. -1.
         11   -1    0    0    0    0 -0.00000000000E+00 -0.00000000000E+00 -0.45593999997E+02  0.45594000000E+02  0.51100000000E-03 0.  1.
    9900012    2    1    2    0    0 -0.10074635451E+01  0.22583484892E+02  0.22487645966E+02  0.59301905950E+02  0.49999930555E+02 0.  0.
        -12    1    1    2    0    0  0.10074635451E+01 -0.22583484892E+02 -0.22487645966E+02  0.31886094050E+02  0.00000000000E+00 0.  1.
         11    1    3    3    0    0 -0.25225018834E+01  0.36052540842E+02  0.23219855511E+02  0.42957076334E+02  0.51100000000E-03 0. -1.
        -11    1    3    3    0    0 -0.10768645628E+00 -0.95029493837E+01  0.36827604344E+01  0.10192171900E+02  0.51100000000E-03 0.  1.
        -12    1    3    3    0    0  0.16227247946E+01 -0.39661065661E+01 -0.44149699796E+01  0.61526577163E+01  0.00000000000E+00 0.  1.
</event>
<event>
 7    1  0.1113211E-011  0.5930193E+02  0.7816164E-02  0.1266605E+00
        -11   -1    0    0    0    0  0.00000000000E+00  0.00000000000E+00  0.45593999997E+02  0.45594000000E+02  0.51100000000E-03 0.  1.
         11   -1    0    0    0    0 -0.00000000000E+00 -0.00000000000E+00 -0.45593999997E+02  0.45594000000E+02  0.51100000000E-03 0. -1.
    9900012    2    1    2    0    0  0.93280994712E+01  0.25439946205E+02 -0.16808238396E+02  0.59301934381E+02  0.49999982407E+02 0.  0.
        -12    1    1    2    0    0 -0.93280994712E+01 -0.25439946205E+02  0.16808238396E+02  0.31886065619E+02  0.00000000000E+00 0.  1.
         11    1    3    3    0    0 -0.11384754558E+02  0.24275972989E+01 -0.13128936986E+02  0.17546362917E+02  0.51100000000E-03 0. -1.
        -11    1    3    3    0    0  0.23188499051E+02  0.10491638885E+02  0.54941241568E+01  0.26037787449E+02  0.51100000000E-03 0.  1.
        -12    1    3    3    0    0 -0.24756450223E+01  0.12520710021E+02 -0.91734255671E+01  0.15717784015E+02  0.00000000000E+00 0.  1.
</event>
<event>
 7    1  0.1113211E-011  0.5930200E+02  0.7816164E-02  0.1266605E+00
        -11   -1    0    0    0    0  0.00000000000E+00  0.00000000000E+00  0.45593999997E+02  0.45594000000E+02  0.51100000000E-03 0.  1.
         11   -1    0    0    0    0 -0.00000000000E+00 -0.00000000000E+00 -0.45593999997E+02  0.45594000000E+02  0.51100000000E-03 0. -1.
    9900012    2    1    2    0    0 -0.26333818117E+01  0.13817533668E+02 -0.28615694122E+02  0.59302001717E+02  0.50000105211E+02 0.  0.
        -12    1    1    2    0    0  0.26333818117E+01 -0.13817533668E+02  0.28615694122E+02  0.31885998283E+02  0.00000000000E+00 0.  1.
         11    1    3    3    0    0  0.38274088698E+01  0.14950969334E+02  0.30032360109E+01  0.15722594235E+02  0.51100000000E-03 0.  1.
        -11    1    3    3    0    0 -0.50834396048E+01  0.55211304149E+01 -0.35135320930E+02  0.35927914167E+02  0.51100000000E-03 0. -1.
        -12    1    3    3    0    0 -0.13773510767E+01 -0.66545660809E+01  0.35163907973E+01  0.76514933152E+01  0.00000000000E+00 0.  1.
</event>
<event>
 7    1  0.1113211E-011  0.5930196E+02  0.7816164E-02  0.1266605E+00
        -11   -1    0    0    0    0  0.00000000000E+00  0.00000000000E+00  0.45593999997E+02  0.45594000000E+02  0.51100000000E-03 0. -1.
         11   -1    0    0    0    0 -0.00000000000E+00 -0.00000000000E+00 -0.45593999997E+02  0.45594000000E+02  0.51100000000E-03 0.  1.
    9900012    2    1    2    0    0 -0.13053848591E+02 -0.20892339403E+02 -0.20244181010E+02  0.59301958014E+02  0.50000025507E+02 0.  0.
        -12    1    1    2    0    0  0.13053848591E+02  0.20892339403E+02  0.20244181010E+02  0.31886041986E+02  0.00000000000E+00 0.  1.
         11    1    3    3    0    0 -0.22156324401E+02 -0.30340644546E+02 -0.95300283501E+01  0.38759242292E+02  0.51100000000E-03 0. -1.
        -11    1    3    3    0    0  0.98019433094E+01  0.62448069054E+01 -0.27689661454E+01  0.11947505166E+02  0.51100000000E-03 0.  1.
        -12    1    3    3    0    0 -0.69946749887E+00  0.32034982368E+01 -0.79451865148E+01  0.85952105554E+01  0.00000000000E+00 0.  1.
</event>
<event>
 7    1  0.1113211E-011  0.5930192E+02  0.7816164E-02  0.1266605E+00
        -11   -1    0    0    0    0  0.00000000000E+00  0.00000000000E+00  0.45593999997E+02  0.45594000000E+02  0.51100000000E-03 0.  1.
         11   -1    0    0    0    0 -0.00000000000E+00 -0.00000000000E+00 -0.45593999997E+02  0.45594000000E+02  0.51100000000E-03 0. -1.
    9900012    2    1    2    0    0  0.11717298509E+02 -0.73445856011E+01 -0.28731240297E+02  0.59301918538E+02  0.49999953513E+02 0.  0.
        -12    1    1    2    0    0 -0.11717298509E+02  0.73445856011E+01  0.28731240297E+02  0.31886081462E+02  0.00000000000E+00 0.  1.
         11    1    3    3    0    0  0.49653971259E+01 -0.12587086276E+02  0.54718067223E+00  0.13542131165E+02  0.51100000000E-03 0. -1.
        -11    1    3    3    0    0  0.65471559705E+00  0.16420973942E+02 -0.32054797665E+01  0.16743719376E+02  0.51100000000E-03 0.  1.
        -12    1    3    3    0    0  0.60971857858E+01 -0.11178473268E+02 -0.26072941203E+02  0.29016067998E+02  0.00000000000E+00 0.  1.
</event>
<event>
 7    1  0.1113211E-011  0.5930200E+02  0.7816164E-02  0.1266605E+00
        -11   -1    0    0    0    0  0.00000000000E+00  0.00000000000E+00  0.45593999997E+02  0.45594000000E+02  0.51100000000E-03 0.  1.
         11   -1    0    0    0    0 -0.00000000000E+00 -0.00000000000E+00 -0.45593999997E+02  0.45594000000E+02  0.51100000000E-03 0. -1.
    9900012    2    1    2    0    0  0.15238223733E+02 -0.25289104298E+02 -0.12040543634E+02  0.59302000726E+02  0.50000103403E+02 0.  0.
        -12    1    1    2    0    0 -0.15238223733E+02  0.25289104298E+02  0.12040543634E+02  0.31885999274E+02  0.00000000000E+00 0.  1.
         11    1    3    3    0    0  0.15451580081E+02  0.35070062845E+01 -0.34479803587E+01  0.16215393578E+02  0.51100000000E-03 0. -1.
        -11    1    3    3    0    0 -0.14639993536E+02 -0.10957404347E+02  0.78149887104E+00  0.18303138024E+02  0.51100000000E-03 0.  1.
         12    1    3    3    0    0  0.14426637188E+02 -0.17838706235E+02 -0.93740621468E+01  0.24783469124E+02  0.00000000000E+00 0. -1.
</event>
<event>
 7    1  0.1113211E-011  0.5930196E+02  0.7816164E-02  0.1266605E+00
        -11   -1    0    0    0    0  0.00000000000E+00  0.00000000000E+00  0.45593999997E+02  0.45594000000E+02  0.51100000000E-03 0.  1.
         11   -1    0    0    0    0 -0.00000000000E+00 -0.00000000000E+00 -0.45593999997E+02  0.45594000000E+02  0.51100000000E-03 0. -1.
    9900012    2    1    2    0    0  0.29421123157E+01  0.29629320297E+02 -0.11409062807E+02  0.59301962926E+02  0.50000034466E+02 0.  0.
        -12    1    1    2    0    0 -0.29421123157E+01 -0.29629320297E+02  0.11409062807E+02  0.31886037074E+02  0.00000000000E+00 0.  1.
         11    1    3    3    0    0  0.16892716435E+02 -0.33961752379E+01 -0.32361464287E+01  0.17531985591E+02  0.51100000000E-03 0. -1.
        -11    1    3    3    0    0 -0.87453542672E+01  0.30330973600E+02 -0.13037467944E+02  0.34152961093E+02  0.51100000000E-03 0.  1.
         12    1    3    3    0    0 -0.52052498521E+01  0.26945219351E+01  0.48645515667E+01  0.76170162417E+01  0.00000000000E+00 0. -1.
</event>
<event>
 7    1  0.1113211E-011  0.5930190E+02  0.7816164E-02  0.1266605E+00
        -11   -1    0    0    0    0  0.00000000000E+00  0.00000000000E+00  0.45593999997E+02  0.45594000000E+02  0.51100000000E-03 0. -1.
         11   -1    0    0    0    0 -0.00000000000E+00 -0.00000000000E+00 -0.45593999997E+02  0.45594000000E+02  0.51100000000E-03 0.  1.
    9900012    2    1    2    0    0 -0.22902550075E+02 -0.15413384495E+02  0.15956938739E+02  0.59301904042E+02  0.49999927076E+02 0.  0.
        -12    1    1    2    0    0  0.22902550075E+02  0.15413384495E+02 -0.15956938739E+02  0.31886095958E+02  0.00000000000E+00 0.  1.
         11    1    3    3    0    0 -0.14792991976E+01 -0.11246157790E+02  0.11176657929E+02  0.15924260544E+02  0.51100000000E-03 0. -1.
        -11    1    3    3    0    0 -0.17527734876E+02 -0.11485875241E+02 -0.12365802574E+02  0.24332280894E+02  0.51100000000E-03 0.  1.
        -12    1    3    3    0    0 -0.38955160023E+01  0.73186485367E+01  0.17146083384E+02  0.19045362604E+02  0.00000000000E+00 0.  1.
</event>
<event>
 7    1  0.1113211E-011  0.5930196E+02  0.7816164E-02  0.1266605E+00
        -11   -1    0    0    0    0  0.00000000000E+00  0.00000000000E+00  0.45593999997E+02  0.45594000000E+02  0.51100000000E-03 0. -1.
         11   -1    0    0    0    0 -0.00000000000E+00 -0.00000000000E+00 -0.45593999997E+02  0.45594000000E+02  0.51100000000E-03 0.  1.
    9900012    2    1    2    0    0 -0.94933026373E+01  0.16442162435E+01  0.30395612521E+02  0.59301960695E+02  0.50000030397E+02 0.  0.
        -12    1    1    2    0    0  0.94933026373E+01 -0.16442162435E+01 -0.30395612521E+02  0.31886039305E+02  0.00000000000E+00 0.  1.
         11    1    3    3    0    0  0.17117834455E+02  0.89188875337E+01  0.13471322747E+02  0.23538125416E+02  0.51100000000E-03 0. -1.
        -11    1    3    3    0    0 -0.25774967637E+02 -0.10690420909E+02  0.14162314436E+02  0.31292254734E+02  0.51100000000E-03 0.  1.
         12    1    3    3    0    0 -0.83616945550E+00  0.34157496184E+01  0.27619753372E+01  0.44715805457E+01  0.00000000000E+00 0. -1.
</event>
<event>
 7    1  0.1113211E-011  0.5930194E+02  0.7816164E-02  0.1266605E+00
        -11   -1    0    0    0    0  0.00000000000E+00  0.00000000000E+00  0.45593999997E+02  0.45594000000E+02  0.51100000000E-03 0.  1.
         11   -1    0    0    0    0 -0.00000000000E+00 -0.00000000000E+00 -0.45593999997E+02  0.45594000000E+02  0.51100000000E-03 0. -1.
    9900012    2    1    2    0    0 -0.14815636186E+02 -0.17761917176E+02 -0.21948399876E+02  0.59301936673E+02  0.49999986587E+02 0.  0.
        -12    1    1    2    0    0  0.14815636186E+02  0.17761917176E+02  0.21948399876E+02  0.31886063327E+02  0.00000000000E+00 0.  1.
         11    1    3    3    0    0  0.54927915310E+01 -0.24671840184E+01 -0.30227775993E+02  0.30821683885E+02  0.51100000000E-03 0. -1.
        -11    1    3    3    0    0 -0.56330004017E+01 -0.47225981228E+00 -0.84109906796E+00  0.57149952545E+01  0.51100000000E-03 0.  1.
         12    1    3    3    0    0 -0.14675427315E+02 -0.14822473346E+02  0.91204751845E+01  0.22765257533E+02  0.00000000000E+00 0. -1.
</event>
<event>
 7    1  0.1113211E-011  0.5930195E+02  0.7816164E-02  0.1266605E+00
        -11   -1    0    0    0    0  0.00000000000E+00  0.00000000000E+00  0.45593999997E+02  0.45594000000E+02  0.51100000000E-03 0. -1.
         11   -1    0    0    0    0 -0.00000000000E+00 -0.00000000000E+00 -0.45593999997E+02  0.45594000000E+02  0.51100000000E-03 0.  1.
    9900012    2    1    2    0    0 -0.21751251101E+02 -0.13006162045E+02  0.19350534144E+02  0.59301947449E+02  0.50000006239E+02 0.  0.
        -12    1    1    2    0    0  0.21751251101E+02  0.13006162045E+02 -0.19350534144E+02  0.31886052551E+02  0.00000000000E+00 0.  1.
         11    1    3    3    0    0 -0.91278803738E+01  0.13424581139E+02  0.15770582933E+01  0.16310263394E+02  0.51100000000E-03 0.  1.
        -11    1    3    3    0    0 -0.15971005663E+02 -0.25115457441E+02  0.55840504951E+01  0.30282682255E+02  0.51100000000E-03 0. -1.
         12    1    3    3    0    0  0.33476349351E+01 -0.13152857434E+01  0.12189425356E+02  0.12709001800E+02  0.00000000000E+00 0. -1.
</event>
<event>
 7    1  0.1113211E-011  0.5930202E+02  0.7816164E-02  0.1266604E+00
        -11   -1    0    0    0    0  0.00000000000E+00  0.00000000000E+00  0.45593999997E+02  0.45594000000E+02  0.51100000000E-03 0.  1.
         11   -1    0    0    0    0 -0.00000000000E+00 -0.00000000000E+00 -0.45593999997E+02  0.45594000000E+02  0.51100000000E-03 0. -1.
    9900012    2    1    2    0    0 -0.26846802338E+02 -0.17152487980E+02 -0.13254516341E+01  0.59302024059E+02  0.50000145958E+02 0.  0.
        -12    1    1    2    0    0  0.26846802338E+02  0.17152487980E+02  0.13254516341E+01  0.31885975941E+02  0.00000000000E+00 0.  1.
         11    1    3    3    0    0 -0.27962128894E+02 -0.93128807820E+01  0.11420585872E+02  0.31607596914E+02  0.51100000000E-03 0.  1.
        -11    1    3    3    0    0 -0.30149863377E+01  0.63852298815E+01 -0.10586660676E+02  0.12725513262E+02  0.51100000000E-03 0. -1.
         12    1    3    3    0    0  0.41303128934E+01 -0.14224837080E+02 -0.21593768303E+01  0.14968913883E+02  0.00000000000E+00 0. -1.
</event>
<event>
 7    1  0.1113211E-011  0.5930195E+02  0.7816164E-02  0.1266605E+00
        -11   -1    0    0    0    0  0.00000000000E+00  0.00000000000E+00  0.45593999997E+02  0.45594000000E+02  0.51100000000E-03 0.  1.
         11   -1    0    0    0    0 -0.00000000000E+00 -0.00000000000E+00 -0.45593999997E+02  0.45594000000E+02  0.51100000000E-03 0. -1.
    9900012    2    1    2    0    0  0.26449448051E+02  0.44238755670E+00 -0.17803131084E+02  0.59301945284E+02  0.50000002291E+02 0.  0.
        -12    1    1    2    0    0 -0.26449448051E+02 -0.44238755670E+00  0.17803131084E+02  0.31886054716E+02  0.00000000000E+00 0.  1.
         11    1    3    3    0    0  0.20850392631E+02  0.52289851516E+01  0.57234782661E+00  0.21503691332E+02  0.51100000000E-03 0. -1.
        -11    1    3    3    0    0  0.39305186017E+01 -0.15083715525E+02  0.11826093072E+01  0.15632210834E+02  0.51100000000E-03 0.  1.
         12    1    3    3    0    0  0.16685368181E+01  0.10297117930E+02 -0.19558088218E+02  0.22166043118E+02  0.00000000000E+00 0. -1.
</event>
<event>
 7    1  0.1113211E-011  0.5930222E+02  0.7816164E-02  0.1266604E+00
        -11   -1    0    0    0    0  0.00000000000E+00  0.00000000000E+00  0.45593999997E+02  0.45594000000E+02  0.51100000000E-03 0.  1.
         11   -1    0    0    0    0 -0.00000000000E+00 -0.00000000000E+00 -0.45593999997E+02  0.45594000000E+02  0.51100000000E-03 0. -1.
    9900012    2    1    2    0    0  0.25118879443E+01 -0.23631192390E+02 -0.21259354328E+02  0.59302219764E+02  0.50000502874E+02 0.  0.
        -12    1    1    2    0    0 -0.25118879443E+01  0.23631192390E+02  0.21259354328E+02  0.31885780236E+02  0.00000000000E+00 0.  1.
         11    1    3    3    0    0 -0.71535498378E+01 -0.24980209156E+02  0.42699961296E+01  0.26332812079E+02  0.51100000000E-03 0. -1.
        -11    1    3    3    0    0 -0.44324957228E+01  0.39854063290E+01 -0.43021255133E+01  0.73511064564E+01  0.51100000000E-03 0.  1.
         12    1    3    3    0    0  0.14097933505E+02 -0.26363895629E+01 -0.21227224944E+02  0.25618301229E+02  0.00000000000E+00 0. -1.
</event>
<event>
 7    1  0.1113211E-011  0.5930196E+02  0.7816164E-02  0.1266605E+00
        -11   -1    0    0    0    0  0.00000000000E+00  0.00000000000E+00  0.45593999997E+02  0.45594000000E+02  0.51100000000E-03 0.  1.
         11   -1    0    0    0    0 -0.00000000000E+00 -0.00000000000E+00 -0.45593999997E+02  0.45594000000E+02  0.51100000000E-03 0. -1.
    9900012    2    1    2    0    0  0.31858055591E+02  0.60445717156E+00 -0.11909460548E+01  0.59301961880E+02  0.50000032558E+02 0.  0.
        -12    1    1    2    0    0 -0.31858055591E+02 -0.60445717156E+00  0.11909460548E+01  0.31886038120E+02  0.00000000000E+00 0.  1.
         11    1    3    3    0    0  0.10140840111E+02 -0.70612890355E+01 -0.23498722593E+02  0.26549734552E+02  0.51100000000E-03 0. -1.
        -11    1    3    3    0    0  0.21398130125E+02  0.73180305841E+01  0.22769636026E+02  0.32091897256E+02  0.51100000000E-03 0.  1.
        -12    1    3    3    0    0  0.31908535442E+00  0.34771562299E+00 -0.46185948794E+00  0.66033007237E+00  0.00000000000E+00 0.  1.
</event>
<event>
 7    1  0.1113211E-011  0.5930193E+02  0.7816164E-02  0.1266605E+00
        -11   -1    0    0    0    0  0.00000000000E+00  0.00000000000E+00  0.45593999997E+02  0.45594000000E+02  0.51100000000E-03 0.  1.
         11   -1    0    0    0    0 -0.00000000000E+00 -0.00000000000E+00 -0.45593999997E+02  0.45594000000E+02  0.51100000000E-03 0. -1.
    9900012    2    1    2    0    0  0.18114269360E+02  0.26225170052E+02 -0.91392573340E+00  0.59301928449E+02  0.49999971588E+02 0.  0.
        -12    1    1    2    0    0 -0.18114269360E+02 -0.26225170052E+02  0.91392573340E+00  0.31886071551E+02  0.00000000000E+00 0.  1.
         11    1    3    3    0    0 -0.10696200033E+02 -0.38477988860E+01 -0.90655015999E+01  0.14539517562E+02  0.51100000000E-03 0. -1.
        -11    1    3    3    0    0  0.18208483736E+02  0.12224651363E+02  0.96247781685E+01  0.23950518490E+02  0.51100000000E-03 0.  1.
         12    1    3    3    0    0  0.10601985657E+02  0.17848317575E+02 -0.14732023021E+01  0.20811892397E+02  0.00000000000E+00 0. -1.
</event>
<event>
 7    1  0.1113211E-011  0.5930195E+02  0.7816164E-02  0.1266605E+00
        -11   -1    0    0    0    0  0.00000000000E+00  0.00000000000E+00  0.45593999997E+02  0.45594000000E+02  0.51100000000E-03 0.  1.
         11   -1    0    0    0    0 -0.00000000000E+00 -0.00000000000E+00 -0.45593999997E+02  0.45594000000E+02  0.51100000000E-03 0. -1.
    9900012    2    1    2    0    0 -0.28946325459E+02  0.12744989726E+02 -0.40491941998E+01  0.59301945143E+02  0.50000002034E+02 0.  0.
        -12    1    1    2    0    0  0.28946325459E+02 -0.12744989726E+02  0.40491941998E+01  0.31886054857E+02  0.00000000000E+00 0.  1.
         11    1    3    3    0    0 -0.22123561027E+02 -0.84578878056E+01 -0.21119267006E+00  0.23686122968E+02  0.51100000000E-03 0. -1.
        -11    1    3    3    0    0  0.59725229770E+01  0.67204067871E+01 -0.11697551706E+02  0.14753562765E+02  0.51100000000E-03 0.  1.
         12    1    3    3    0    0 -0.12795287409E+02  0.14482470744E+02  0.78595501759E+01  0.20862259410E+02  0.00000000000E+00 0. -1.
</event>
<event>
 7    1  0.1113211E-011  0.5930193E+02  0.7816164E-02  0.1266605E+00
        -11   -1    0    0    0    0  0.00000000000E+00  0.00000000000E+00  0.45593999997E+02  0.45594000000E+02  0.51100000000E-03 0.  1.
         11   -1    0    0    0    0 -0.00000000000E+00 -0.00000000000E+00 -0.45593999997E+02  0.45594000000E+02  0.51100000000E-03 0. -1.
    9900012    2    1    2    0    0 -0.13444827326E+02  0.48552790815E+01 -0.28502358187E+02  0.59301928762E+02  0.49999972159E+02 0.  0.
        -12    1    1    2    0    0  0.13444827326E+02 -0.48552790815E+01  0.28502358187E+02  0.31886071238E+02  0.00000000000E+00 0.  1.
         11    1    3    3    0    0 -0.10773420167E+02 -0.14995156055E+01 -0.23108004986E+02  0.25540067029E+02  0.51100000000E-03 0. -1.
        -11    1    3    3    0    0  0.10792396162E+00  0.19486008621E+02 -0.58077379379E+01  0.20333371580E+02  0.51100000000E-03 0.  1.
        -12    1    3    3    0    0 -0.27793311209E+01 -0.13131213934E+02  0.41338473698E+00  0.13428490154E+02  0.00000000000E+00 0.  1.
</event>
<event>
 7    1  0.1113211E-011  0.5930191E+02  0.7816164E-02  0.1266605E+00
        -11   -1    0    0    0    0  0.00000000000E+00  0.00000000000E+00  0.45593999997E+02  0.45594000000E+02  0.51100000000E-03 0.  1.
         11   -1    0    0    0    0 -0.00000000000E+00 -0.00000000000E+00 -0.45593999997E+02  0.45594000000E+02  0.51100000000E-03 0. -1.
    9900012    2    1    2    0    0  0.21316382685E+01  0.31650334863E+02  0.32303340835E+01  0.59301911545E+02  0.49999940760E+02 0.  0.
        -12    1    1    2    0    0 -0.21316382685E+01 -0.31650334863E+02 -0.32303340835E+01  0.31886088455E+02  0.00000000000E+00 0.  1.
         11    1    3    3    0    0  0.12209604338E+02  0.21345239003E+01  0.49243333363E+01  0.13337154473E+02  0.51100000000E-03 0. -1.
        -11    1    3    3    0    0 -0.15752242862E+02  0.22023146968E+02  0.11786763037E+02  0.29530999657E+02  0.51100000000E-03 0.  1.
        -12    1    3    3    0    0  0.56742767930E+01  0.74926639945E+01 -0.13480762290E+02  0.16433757415E+02  0.00000000000E+00 0.  1.
</event>
<event>
 7    1  0.1113211E-011  0.5930196E+02  0.7816164E-02  0.1266605E+00
        -11   -1    0    0    0    0  0.00000000000E+00  0.00000000000E+00  0.45593999997E+02  0.45594000000E+02  0.51100000000E-03 0.  1.
         11   -1    0    0    0    0 -0.00000000000E+00 -0.00000000000E+00 -0.45593999997E+02  0.45594000000E+02  0.51100000000E-03 0. -1.
    9900012    2    1    2    0    0  0.12675427505E+02 -0.28039054389E+02  0.83585032359E+01  0.59301959013E+02  0.50000027329E+02 0.  0.
        -12    1    1    2    0    0 -0.12675427505E+02  0.28039054389E+02 -0.83585032359E+01  0.31886040987E+02  0.00000000000E+00 0.  1.
         11    1    3    3    0    0 -0.45029169785E+01  0.59338417156E+01 -0.58689576423E+01  0.94832169061E+01  0.51100000000E-03 0. -1.
        -11    1    3    3    0    0  0.25138577167E+02 -0.25411934121E+02  0.82311983478E+01  0.36680609104E+02  0.51100000000E-03 0.  1.
         12    1    3    3    0    0 -0.79602326831E+01 -0.85609619834E+01  0.59962625304E+01  0.13138133002E+02  0.00000000000E+00 0. -1.
</event>
<event>
 7    1  0.1113211E-011  0.5930195E+02  0.7816164E-02  0.1266605E+00
        -11   -1    0    0    0    0  0.00000000000E+00  0.00000000000E+00  0.45593999997E+02  0.45594000000E+02  0.51100000000E-03 0.  1.
         11   -1    0    0    0    0 -0.00000000000E+00 -0.00000000000E+00 -0.45593999997E+02  0.45594000000E+02  0.51100000000E-03 0. -1.
    9900012    2    1    2    0    0  0.11819857162E+02 -0.23453150423E+02 -0.18082066053E+02  0.59301946609E+02  0.50000004707E+02 0.  0.
        -12    1    1    2    0    0 -0.11819857162E+02  0.23453150423E+02  0.18082066053E+02  0.31886053391E+02  0.00000000000E+00 0.  1.
         11    1    3    3    0    0  0.11369042781E+02 -0.16735596835E+01  0.10948491551E+02  0.15872158117E+02  0.51100000000E-03 0.  1.
        -11    1    3    3    0    0  0.73290361024E+01 -0.23869896396E+02 -0.20767772615E+02  0.32477486107E+02  0.51100000000E-03 0. -1.
        -12    1    3    3    0    0 -0.68782217212E+01  0.20903056559E+01 -0.82627849886E+01  0.10952302386E+02  0.00000000000E+00 0.  1.
</event>
<event>
 7    1  0.1113211E-011  0.5930192E+02  0.7816164E-02  0.1266605E+00
        -11   -1    0    0    0    0  0.00000000000E+00  0.00000000000E+00  0.45593999997E+02  0.45594000000E+02  0.51100000000E-03 0.  1.
         11   -1    0    0    0    0 -0.00000000000E+00 -0.00000000000E+00 -0.45593999997E+02  0.45594000000E+02  0.51100000000E-03 0. -1.
    9900012    2    1    2    0    0 -0.20536603356E+02 -0.14454147571E+02 -0.19648101364E+02  0.59301916098E+02  0.49999949063E+02 0.  0.
        -12    1    1    2    0    0  0.20536603356E+02  0.14454147571E+02  0.19648101364E+02  0.31886083902E+02  0.00000000000E+00 0.  1.
         11    1    3    3    0    0 -0.95275525462E+01 -0.68771503575E+01 -0.98389804657E+01  0.15325631844E+02  0.51100000000E-03 0. -1.
        -11    1    3    3    0    0 -0.12138849807E+02  0.54952086497E+01  0.12386356083E+02  0.18192603168E+02  0.51100000000E-03 0.  1.
        -12    1    3    3    0    0  0.11297989971E+01 -0.13072205863E+02 -0.22195476982E+02  0.25783681086E+02  0.00000000000E+00 0.  1.
</event>
<event>
 7    1  0.1113211E-011  0.5930195E+02  0.7816164E-02  0.1266605E+00
        -11   -1    0    0    0    0  0.00000000000E+00  0.00000000000E+00  0.45593999997E+02  0.45594000000E+02  0.51100000000E-03 0.  1.
         11   -1    0    0    0    0 -0.00000000000E+00 -0.00000000000E+00 -0.45593999997E+02  0.45594000000E+02  0.51100000000E-03 0. -1.
    9900012    2    1    2    0    0  0.26390270118E+02  0.26224808255E+01 -0.17703002939E+02  0.59301951709E+02  0.50000014008E+02 0.  0.
        -12    1    1    2    0    0 -0.26390270118E+02 -0.26224808255E+01  0.17703002939E+02  0.31886048291E+02  0.00000000000E+00 0.  1.
         11    1    3    3    0    0  0.20377956393E+02  0.19593811322E+02 -0.26942630433E+02  0.39052322386E+02  0.51100000000E-03 0. -1.
        -11    1    3    3    0    0  0.10734351362E+01 -0.38651569839E+01  0.19497304443E+01  0.44601738272E+01  0.51100000000E-03 0.  1.
         12    1    3    3    0    0  0.49388785882E+01 -0.13106173512E+02  0.72898970491E+01  0.15789455495E+02  0.00000000000E+00 0. -1.
</event>
<event>
 7    1  0.1113211E-011  0.5930197E+02  0.7816164E-02  0.1266605E+00
        -11   -1    0    0    0    0  0.00000000000E+00  0.00000000000E+00  0.45593999997E+02  0.45594000000E+02  0.51100000000E-03 0.  1.
         11   -1    0    0    0    0 -0.00000000000E+00 -0.00000000000E+00 -0.45593999997E+02  0.45594000000E+02  0.51100000000E-03 0. -1.
    9900012    2    1    2    0    0  0.16190929601E+02  0.11445563065E+01 -0.27445629573E+02  0.59301971820E+02  0.50000050686E+02 0.  0.
        -12    1    1    2    0    0 -0.16190929601E+02 -0.11445563065E+01  0.27445629573E+02  0.31886028180E+02  0.00000000000E+00 0.  1.
         11    1    3    3    0    0  0.77252879726E+01  0.17421545336E+02 -0.18892453392E+02  0.26834960622E+02  0.51100000000E-03 0. -1.
        -11    1    3    3    0    0  0.16504359247E+02 -0.84266157456E+01 -0.31387034334E+00  0.18533759520E+02  0.51100000000E-03 0.  1.
         12    1    3    3    0    0 -0.80387176188E+01 -0.78503732836E+01 -0.82393058372E+01  0.13933251678E+02  0.00000000000E+00 0. -1.
</event>
<event>
 7    1  0.1113211E-011  0.5930193E+02  0.7816164E-02  0.1266605E+00
        -11   -1    0    0    0    0  0.00000000000E+00  0.00000000000E+00  0.45593999997E+02  0.45594000000E+02  0.51100000000E-03 0. -1.
         11   -1    0    0    0    0 -0.00000000000E+00 -0.00000000000E+00 -0.45593999997E+02  0.45594000000E+02  0.51100000000E-03 0.  1.
    9900012    2    1    2    0    0  0.18346960358E+02 -0.17522080070E+02  0.19315467112E+02  0.59301929152E+02  0.49999972870E+02 0.  0.
        -12    1    1    2    0    0 -0.18346960358E+02  0.17522080070E+02 -0.19315467112E+02  0.31886070848E+02  0.00000000000E+00 0.  1.
         11    1    3    3    0    0 -0.40563558554E+01 -0.98814818640E+01 -0.10742822376E+02  0.15149453440E+02  0.51100000000E-03 0.  1.
        -11    1    3    3    0    0  0.17128396526E+02  0.38181401637E+01  0.25038272226E+02  0.30575729561E+02  0.51100000000E-03 0. -1.
         12    1    3    3    0    0  0.52749196876E+01 -0.11458738370E+02  0.50200172620E+01  0.13576746151E+02  0.00000000000E+00 0. -1.
</event>
<event>
 7    1  0.1113211E-011  0.5930195E+02  0.7816164E-02  0.1266605E+00
        -11   -1    0    0    0    0  0.00000000000E+00  0.00000000000E+00  0.45593999997E+02  0.45594000000E+02  0.51100000000E-03 0. -1.
         11   -1    0    0    0    0 -0.00000000000E+00 -0.00000000000E+00 -0.45593999997E+02  0.45594000000E+02  0.51100000000E-03 0.  1.
    9900012    2    1    2    0    0 -0.19045445160E+02 -0.21213447228E+02 -0.14282188406E+02  0.59301949283E+02  0.50000009585E+02 0.  0.
        -12    1    1    2    0    0  0.19045445160E+02  0.21213447228E+02  0.14282188406E+02  0.31886050717E+02  0.00000000000E+00 0.  1.
         11    1    3    3    0    0  0.79746239398E+01 -0.17174250899E+02 -0.18967684627E+02  0.26801540651E+02  0.51100000000E-03 0. -1.
        -11    1    3    3    0    0 -0.12347212233E+02 -0.82121226986E+01  0.80589022564E+01  0.16877159565E+02  0.51100000000E-03 0.  1.
        -12    1    3    3    0    0 -0.14672856867E+02  0.41729263699E+01 -0.33734060359E+01  0.15623249067E+02  0.00000000000E+00 0.  1.
</event>
<event>
 7    1  0.1113211E-011  0.5930194E+02  0.7816164E-02  0.1266605E+00
        -11   -1    0    0    0    0  0.00000000000E+00  0.00000000000E+00  0.45593999997E+02  0.45594000000E+02  0.51100000000E-03 0.  1.
         11   -1    0    0    0    0 -0.00000000000E+00 -0.00000000000E+00 -0.45593999997E+02  0.45594000000E+02  0.51100000000E-03 0. -1.
    9900012    2    1    2    0    0  0.33121328726E+01  0.22134118115E+02 -0.22711917927E+02  0.59301943097E+02  0.49999998303E+02 0.  0.
        -12    1    1    2    0    0 -0.33121328726E+01 -0.22134118115E+02  0.22711917927E+02  0.31886056903E+02  0.00000000000E+00 0.  1.
         11    1    3    3    0    0 -0.71370989405E+01  0.12767317469E+01  0.32793632761E+01  0.79575403862E+01  0.51100000000E-03 0. -1.
        -11    1    3    3    0    0  0.20314248171E+02  0.26123376554E+02 -0.19090741212E+02  0.38204134353E+02  0.51100000000E-03 0.  1.
        -12    1    3    3    0    0 -0.98650163574E+01 -0.52659901858E+01 -0.69005399904E+01  0.13140268358E+02  0.00000000000E+00 0.  1.
</event>
<event>
 7    1  0.1113211E-011  0.5930195E+02  0.7816164E-02  0.1266605E+00
        -11   -1    0    0    0    0  0.00000000000E+00  0.00000000000E+00  0.45593999997E+02  0.45594000000E+02  0.51100000000E-03 0.  1.
         11   -1    0    0    0    0 -0.00000000000E+00 -0.00000000000E+00 -0.45593999997E+02  0.45594000000E+02  0.51100000000E-03 0. -1.
    9900012    2    1    2    0    0 -0.29092376948E+02  0.12961260650E+02 -0.15360784184E+01  0.59301949585E+02  0.50000010135E+02 0.  0.
        -12    1    1    2    0    0  0.29092376948E+02 -0.12961260650E+02  0.15360784184E+01  0.31886050415E+02  0.00000000000E+00 0.  1.
         11    1    3    3    0    0 -0.31446161026E+02  0.13379888244E+02 -0.60655922451E+01  0.34708411981E+02  0.51100000000E-03 0. -1.
        -11    1    3    3    0    0 -0.78096952760E+00 -0.11748973571E+02 -0.54855465737E+00  0.11787671774E+02  0.51100000000E-03 0.  1.
        -12    1    3    3    0    0  0.31347536050E+01  0.11330345977E+02  0.50780684841E+01  0.12805865830E+02  0.00000000000E+00 0.  1.
</event>
<event>
 7    1  0.1113211E-011  0.5930205E+02  0.7816164E-02  0.1266604E+00
        -11   -1    0    0    0    0  0.00000000000E+00  0.00000000000E+00  0.45593999997E+02  0.45594000000E+02  0.51100000000E-03 0. -1.
         11   -1    0    0    0    0 -0.00000000000E+00 -0.00000000000E+00 -0.45593999997E+02  0.45594000000E+02  0.51100000000E-03 0.  1.
    9900012    2    1    2    0    0  0.26950151097E+02  0.17159422990E+01  0.16954603618E+02  0.59302051904E+02  0.50000196740E+02 0.  0.
        -12    1    1    2    0    0 -0.26950151097E+02 -0.17159422990E+01 -0.16954603618E+02  0.31885948096E+02  0.00000000000E+00 0.  1.
         11    1    3    3    0    0 -0.54212852973E+01 -0.10613466117E+02  0.10320226216E+02  0.15765248705E+02  0.51100000000E-03 0. -1.
        -11    1    3    3    0    0  0.28203059413E+02 -0.66850282422E+00  0.91484389814E+01  0.29657265422E+02  0.51100000000E-03 0.  1.
        -12    1    3    3    0    0  0.41683769818E+01  0.12997911240E+02 -0.25140615796E+01  0.13879537777E+02  0.00000000000E+00 0.  1.
</event>
<event>
 7    1  0.1113211E-011  0.5930194E+02  0.7816164E-02  0.1266605E+00
        -11   -1    0    0    0    0  0.00000000000E+00  0.00000000000E+00  0.45593999997E+02  0.45594000000E+02  0.51100000000E-03 0.  1.
         11   -1    0    0    0    0 -0.00000000000E+00 -0.00000000000E+00 -0.45593999997E+02  0.45594000000E+02  0.51100000000E-03 0. -1.
    9900012    2    1    2    0    0 -0.37297544543E+01 -0.31240564604E+02 -0.51804421122E+01  0.59301938381E+02  0.49999989702E+02 0.  0.
        -12    1    1    2    0    0  0.37297544543E+01  0.31240564604E+02  0.51804421122E+01  0.31886061619E+02  0.00000000000E+00 0.  1.
         11    1    3    3    0    0 -0.19828291550E+02 -0.25067885601E+02 -0.15243156183E+02  0.35410645927E+02  0.51100000000E-03 0. -1.
        -11    1    3    3    0    0  0.79704449453E+01  0.26675427212E+01  0.81932505393E+01  0.11737679986E+02  0.51100000000E-03 0.  1.
         12    1    3    3    0    0  0.81280921500E+01 -0.88402217243E+01  0.18694635311E+01  0.12153612468E+02  0.00000000000E+00 0. -1.
</event>
<event>
 7    1  0.1113211E-011  0.5930195E+02  0.7816164E-02  0.1266605E+00
        -11   -1    0    0    0    0  0.00000000000E+00  0.00000000000E+00  0.45593999997E+02  0.45594000000E+02  0.51100000000E-03 0. -1.
         11   -1    0    0    0    0 -0.00000000000E+00 -0.00000000000E+00 -0.45593999997E+02  0.45594000000E+02  0.51100000000E-03 0.  1.
    9900012    2    1    2    0    0 -0.37390506622E+01  0.28459680863E+02  0.13884756301E+02  0.59301946745E+02  0.50000004956E+02 0.  0.
        -12    1    1    2    0    0  0.37390506622E+01 -0.28459680863E+02 -0.13884756301E+02  0.31886053255E+02  0.00000000000E+00 0.  1.
         11    1    3    3    0    0  0.71152526497E+01  0.22688992413E+02 -0.52442452663E+01  0.24349934407E+02  0.51100000000E-03 0. -1.
        -11    1    3    3    0    0 -0.98347236325E+01 -0.61588084193E+01 -0.87684182622E+00  0.11637077035E+02  0.51100000000E-03 0.  1.
         12    1    3    3    0    0 -0.10195796794E+01  0.11929496869E+02  0.20005843393E+02  0.23314935302E+02  0.00000000000E+00 0. -1.
</event>
<event>
 7    1  0.1113211E-011  0.5930201E+02  0.7816164E-02  0.1266605E+00
        -11   -1    0    0    0    0  0.00000000000E+00  0.00000000000E+00  0.45593999997E+02  0.45594000000E+02  0.51100000000E-03 0.  1.
         11   -1    0    0    0    0 -0.00000000000E+00 -0.00000000000E+00 -0.45593999997E+02  0.45594000000E+02  0.51100000000E-03 0. -1.
    9900012    2    1    2    0    0  0.94063092524E+01  0.14715625682E+02 -0.26677485101E+02  0.59302007711E+02  0.50000116143E+02 0.  0.
        -12    1    1    2    0    0 -0.94063092524E+01 -0.14715625682E+02  0.26677485101E+02  0.31885992289E+02  0.00000000000E+00 0.  1.
         11    1    3    3    0    0  0.10743466370E+02  0.11177401102E+02 -0.66397607455E+01  0.16865431748E+02  0.51100000000E-03 0. -1.
        -11    1    3    3    0    0 -0.15452143164E+02 -0.78776698777E+01 -0.31215253366E+01  0.17623005752E+02  0.51100000000E-03 0.  1.
        -12    1    3    3    0    0  0.14114986046E+02  0.11415894458E+02 -0.16916199019E+02  0.24813570210E+02  0.00000000000E+00 0.  1.
</event>
<event>
 7    1  0.1113211E-011  0.5930194E+02  0.7816164E-02  0.1266605E+00
        -11   -1    0    0    0    0  0.00000000000E+00  0.00000000000E+00  0.45593999997E+02  0.45594000000E+02  0.51100000000E-03 0. -1.
         11   -1    0    0    0    0 -0.00000000000E+00 -0.00000000000E+00 -0.45593999997E+02  0.45594000000E+02  0.51100000000E-03 0.  1.
    9900012    2    1    2    0    0 -0.43010347652E+01 -0.16769691503E+02  0.26776838304E+02  0.59301944698E+02  0.50000001222E+02 0.  0.
        -12    1    1    2    0    0  0.43010347652E+01  0.16769691503E+02 -0.26776838304E+02  0.31886055302E+02  0.00000000000E+00 0.  1.
         11    1    3    3    0    0 -0.30348040438E+01 -0.90284040012E+00  0.13652732313E+02  0.14015072467E+02  0.51100000000E-03 0. -1.
        -11    1    3    3    0    0 -0.71886414893E+01 -0.11169034953E+02 -0.12701268185E+02  0.18377870443E+02  0.51100000000E-03 0.  1.
        -12    1    3    3    0    0  0.59224107680E+01 -0.46978161497E+01  0.25825374176E+02  0.26909001788E+02  0.00000000000E+00 0.  1.
</event>
<event>
 7    1  0.1113211E-011  0.5930193E+02  0.7816164E-02  0.1266605E+00
        -11   -1    0    0    0    0  0.00000000000E+00  0.00000000000E+00  0.45593999997E+02  0.45594000000E+02  0.51100000000E-03 0. -1.
         11   -1    0    0    0    0 -0.00000000000E+00 -0.00000000000E+00 -0.45593999997E+02  0.45594000000E+02  0.51100000000E-03 0.  1.
    9900012    2    1    2    0    0  0.96010816459E+01 -0.21010836854E+02  0.21979206339E+02  0.59301928662E+02  0.49999971976E+02 0.  0.
        -12    1    1    2    0    0 -0.96010816459E+01  0.21010836854E+02 -0.21979206339E+02  0.31886071338E+02  0.00000000000E+00 0.  1.
         11    1    3    3    0    0  0.16057386244E+02 -0.22316004705E+02  0.55890538657E+01  0.28054968230E+02  0.51100000000E-03 0. -1.
        -11    1    3    3    0    0 -0.36963509223E+01 -0.48960107203E+01  0.21749792592E+02  0.22598393951E+02  0.51100000000E-03 0.  1.
        -12    1    3    3    0    0 -0.27599536761E+01  0.62011785717E+01 -0.53596401185E+01  0.86485664807E+01  0.00000000000E+00 0.  1.
</event>
<event>
 7    1  0.1113211E-011  0.5930196E+02  0.7816164E-02  0.1266605E+00
        -11   -1    0    0    0    0  0.00000000000E+00  0.00000000000E+00  0.45593999997E+02  0.45594000000E+02  0.51100000000E-03 0.  1.
         11   -1    0    0    0    0 -0.00000000000E+00 -0.00000000000E+00 -0.45593999997E+02  0.45594000000E+02  0.51100000000E-03 0. -1.
    9900012    2    1    2    0    0  0.21627818261E+01  0.12912860929E+02 -0.29074047876E+02  0.59301955051E+02  0.50000020103E+02 0.  0.
        -12    1    1    2    0    0 -0.21627818261E+01 -0.12912860929E+02  0.29074047876E+02  0.31886044949E+02  0.00000000000E+00 0.  1.
         11    1    3    3    0    0 -0.13680935201E+02  0.16225742333E+02 -0.23249164828E+02  0.31479618290E+02  0.51100000000E-03 0.  1.
        -11    1    3    3    0    0  0.46558179218E+01 -0.11529936607E+02 -0.62867864626E+01  0.13933404572E+02  0.51100000000E-03 0. -1.
         12    1    3    3    0    0  0.11187899105E+02  0.82170552022E+01  0.46190341429E+00  0.13888932189E+02  0.00000000000E+00 0. -1.
</event>
<event>
 7    1  0.1113211E-011  0.5930194E+02  0.7816164E-02  0.1266605E+00
        -11   -1    0    0    0    0  0.00000000000E+00  0.00000000000E+00  0.45593999997E+02  0.45594000000E+02  0.51100000000E-03 0. -1.
         11   -1    0    0    0    0 -0.00000000000E+00 -0.00000000000E+00 -0.45593999997E+02  0.45594000000E+02  0.51100000000E-03 0.  1.
    9900012    2    1    2    0    0  0.13405571723E+02  0.25027813976E+01 -0.28822694957E+02  0.59301937017E+02  0.49999987214E+02 0.  0.
        -12    1    1    2    0    0 -0.13405571723E+02 -0.25027813976E+01  0.28822694957E+02  0.31886062983E+02  0.00000000000E+00 0.  1.
         11    1    3    3    0    0  0.13655556777E+02  0.92553988147E+01  0.83548840752E+00  0.16517708051E+02  0.51100000000E-03 0. -1.
        -11    1    3    3    0    0 -0.48657002139E+01 -0.12928653710E+02 -0.31893401830E+02  0.34756498757E+02  0.51100000000E-03 0.  1.
        -12    1    3    3    0    0  0.46157151596E+01  0.61760362928E+01  0.22352184648E+01  0.80277302091E+01  0.00000000000E+00 0.  1.
</event>
<event>
 7    1  0.1113211E-011  0.5930195E+02  0.7816164E-02  0.1266605E+00
        -11   -1    0    0    0    0  0.00000000000E+00  0.00000000000E+00  0.45593999997E+02  0.45594000000E+02  0.51100000000E-03 0.  1.
         11   -1    0    0    0    0 -0.00000000000E+00 -0.00000000000E+00 -0.45593999997E+02  0.45594000000E+02  0.51100000000E-03 0. -1.
    9900012    2    1    2    0    0 -0.15453170043E+02 -0.14158722666E+02 -0.24030193164E+02  0.59301951712E+02  0.50000014014E+02 0.  0.
        -12    1    1    2    0    0  0.15453170043E+02  0.14158722666E+02  0.24030193164E+02  0.31886048288E+02  0.00000000000E+00 0.  1.
         11    1    3    3    0    0 -0.13820768932E+01 -0.13308945756E+02 -0.29950606120E+02  0.32803612315E+02  0.51100000000E-03 0. -1.
        -11    1    3    3    0    0 -0.16609126971E+02 -0.18554846482E+01 -0.31668543779E+01  0.17009846823E+02  0.51100000000E-03 0.  1.
         12    1    3    3    0    0  0.25380338217E+01  0.10057077382E+01  0.90872673337E+01  0.94884925742E+01  0.00000000000E+00 0. -1.
</event>
<event>
 7    1  0.1113211E-011  0.5930194E+02  0.7816164E-02  0.1266605E+00
        -11   -1    0    0    0    0  0.00000000000E+00  0.00000000000E+00  0.45593999997E+02  0.45594000000E+02  0.51100000000E-03 0.  1.
         11   -1    0    0    0    0 -0.00000000000E+00 -0.00000000000E+00 -0.45593999997E+02  0.45594000000E+02  0.51100000000E-03 0. -1.
    9900012    2    1    2    0    0  0.16924330522E+02 -0.23080016696E+02  0.14057059139E+02  0.59301936493E+02  0.49999986259E+02 0.  0.
        -12    1    1    2    0    0 -0.16924330522E+02  0.23080016696E+02 -0.14057059139E+02  0.31886063507E+02  0.00000000000E+00 0.  1.
         11    1    3    3    0    0  0.10655912674E+02 -0.40784850978E+01 -0.11247607802E+02  0.16021585351E+02  0.51100000000E-03 0. -1.
        -11    1    3    3    0    0  0.70209198479E+01 -0.21410640095E+02  0.30255056092E+02  0.37723696056E+02  0.51100000000E-03 0.  1.
        -12    1    3    3    0    0 -0.75250199987E+00  0.24091084964E+01 -0.49503891507E+01  0.55566550865E+01  0.00000000000E+00 0.  1.
</event>
<event>
 7    1  0.1113211E-011  0.5930194E+02  0.7816164E-02  0.1266605E+00
        -11   -1    0    0    0    0  0.00000000000E+00  0.00000000000E+00  0.45593999997E+02  0.45594000000E+02  0.51100000000E-03 0. -1.
         11   -1    0    0    0    0 -0.00000000000E+00 -0.00000000000E+00 -0.45593999997E+02  0.45594000000E+02  0.51100000000E-03 0.  1.
    9900012    2    1    2    0    0 -0.18668837734E+02 -0.25035226112E+02 -0.64368263638E+01  0.59301940625E+02  0.49999993794E+02 0.  0.
        -12    1    1    2    0    0  0.18668837734E+02  0.25035226112E+02  0.64368263638E+01  0.31886059375E+02  0.00000000000E+00 0.  1.
         11    1    3    3    0    0 -0.84783614324E+01 -0.13955031913E+02  0.12759046107E+02  0.20722422303E+02  0.51100000000E-03 0. -1.
        -11    1    3    3    0    0 -0.11033311947E+02  0.84559532507E+01 -0.75221507778E+01  0.15805691079E+02  0.51100000000E-03 0.  1.
        -12    1    3    3    0    0  0.84283564462E+00 -0.19536147450E+02 -0.11673721693E+02  0.22773827243E+02  0.00000000000E+00 0.  1.
</event>
<event>
 7    1  0.1113211E-011  0.5930193E+02  0.7816164E-02  0.1266605E+00
        -11   -1    0    0    0    0  0.00000000000E+00  0.00000000000E+00  0.45593999997E+02  0.45594000000E+02  0.51100000000E-03 0. -1.
         11   -1    0    0    0    0 -0.00000000000E+00 -0.00000000000E+00 -0.45593999997E+02  0.45594000000E+02  0.51100000000E-03 0.  1.
    9900012    2    1    2    0    0 -0.20243748114E+02  0.22915231039E+02  0.90445606496E+01  0.59301933629E+02  0.49999981035E+02 0.  0.
        -12    1    1    2    0    0  0.20243748114E+02 -0.22915231039E+02 -0.90445606496E+01  0.31886066371E+02  0.00000000000E+00 0.  1.
         11    1    3    3    0    0 -0.62867356955E+01  0.56313661361E+01  0.95519620229E+01  0.12746580287E+02  0.51100000000E-03 0. -1.
        -11    1    3    3    0    0  0.39674658212E+01  0.62661316663E+01 -0.17824183709E+02  0.19305613594E+02  0.51100000000E-03 0.  1.
        -12    1    3    3    0    0 -0.17924478240E+02  0.11017733237E+02  0.17316782335E+02  0.27249739748E+02  0.00000000000E+00 0.  1.
</event>
<event>
 7    1  0.1113211E-011  0.5930198E+02  0.7816164E-02  0.1266605E+00
        -11   -1    0    0    0    0  0.00000000000E+00  0.00000000000E+00  0.45593999997E+02  0.45594000000E+02  0.51100000000E-03 0. -1.
         11   -1    0    0    0    0 -0.00000000000E+00 -0.00000000000E+00 -0.45593999997E+02  0.45594000000E+02  0.51100000000E-03 0.  1.
    9900012    2    1    2    0    0  0.20648305298E+02 -0.19760554471E+02 -0.14138113871E+02  0.59301979732E+02  0.50000065116E+02 0.  0.
        -12    1    1    2    0    0 -0.20648305298E+02  0.19760554471E+02  0.14138113871E+02  0.31886020268E+02  0.00000000000E+00 0.  1.
         11    1    3    3    0    0  0.20980357067E+02 -0.21063397740E+02  0.11374655217E+02  0.31831193641E+02  0.51100000000E-03 0. -1.
        -11    1    3    3    0    0 -0.51169366524E+01  0.21605238554E+00 -0.15424257056E+02  0.16252305231E+02  0.51100000000E-03 0.  1.
         12    1    3    3    0    0  0.47848848838E+01  0.10867908834E+01 -0.10088512033E+02  0.11218480860E+02  0.00000000000E+00 0. -1.
</event>
<event>
 7    1  0.1113211E-011  0.5930195E+02  0.7816164E-02  0.1266605E+00
        -11   -1    0    0    0    0  0.00000000000E+00  0.00000000000E+00  0.45593999997E+02  0.45594000000E+02  0.51100000000E-03 0. -1.
         11   -1    0    0    0    0 -0.00000000000E+00 -0.00000000000E+00 -0.45593999997E+02  0.45594000000E+02  0.51100000000E-03 0.  1.
    9900012    2    1    2    0    0  0.11957858564E+02 -0.33418652725E+01  0.29369403588E+02  0.59301948001E+02  0.50000007247E+02 0.  0.
        -12    1    1    2    0    0 -0.11957858564E+02  0.33418652725E+01 -0.29369403588E+02  0.31886051999E+02  0.00000000000E+00 0.  1.
         11    1    3    3    0    0  0.25147034211E+02  0.10400109889E+02  0.22018948885E+02  0.35005281396E+02  0.51100000000E-03 0. -1.
        -11    1    3    3    0    0 -0.85379030582E+01 -0.15878873607E+02  0.60304769861E+01  0.19010551507E+02  0.51100000000E-03 0.  1.
         12    1    3    3    0    0 -0.46512725890E+01  0.21368984453E+01  0.13199777170E+01  0.52861150986E+01  0.00000000000E+00 0. -1.
</event>
<event>
 7    1  0.1113211E-011  0.5930195E+02  0.7816164E-02  0.1266605E+00
        -11   -1    0    0    0    0  0.00000000000E+00  0.00000000000E+00  0.45593999997E+02  0.45594000000E+02  0.51100000000E-03 0. -1.
         11   -1    0    0    0    0 -0.00000000000E+00 -0.00000000000E+00 -0.45593999997E+02  0.45594000000E+02  0.51100000000E-03 0.  1.
    9900012    2    1    2    0    0  0.29110928177E+02  0.12957602102E+02  0.11724985827E+01  0.59301947493E+02  0.50000006320E+02 0.  0.
        -12    1    1    2    0    0 -0.29110928177E+02 -0.12957602102E+02 -0.11724985827E+01  0.31886052507E+02  0.00000000000E+00 0.  1.
         11    1    3    3    0    0  0.19874089699E+02  0.13190567485E+02  0.25371469576E+01  0.23987655719E+02  0.51100000000E-03 0. -1.
        -11    1    3    3    0    0 -0.56200486241E+00  0.54006772300E+01 -0.15957526506E+02  0.16856032050E+02  0.51100000000E-03 0.  1.
        -12    1    3    3    0    0  0.97988433398E+01 -0.56336426131E+01  0.14592878131E+02  0.18458259724E+02  0.00000000000E+00 0.  1.
</event>
<event>
 7    1  0.1113211E-011  0.5930196E+02  0.7816164E-02  0.1266605E+00
        -11   -1    0    0    0    0  0.00000000000E+00  0.00000000000E+00  0.45593999997E+02  0.45594000000E+02  0.51100000000E-03 0. -1.
         11   -1    0    0    0    0 -0.00000000000E+00 -0.00000000000E+00 -0.45593999997E+02  0.45594000000E+02  0.51100000000E-03 0.  1.
    9900012    2    1    2    0    0  0.85747692369E+01  0.27122767547E+02  0.14406537036E+02  0.59301960794E+02  0.50000030578E+02 0.  0.
        -12    1    1    2    0    0 -0.85747692369E+01 -0.27122767547E+02 -0.14406537036E+02  0.31886039206E+02  0.00000000000E+00 0.  1.
         11    1    3    3    0    0 -0.91497676698E+01 -0.66429997103E+01 -0.14975344695E+00  0.11307967099E+02  0.51100000000E-03 0. -1.
        -11    1    3    3    0    0  0.21096642707E+02  0.15275355220E+02  0.37534850640E+01  0.26315270490E+02  0.51100000000E-03 0.  1.
         12    1    3    3    0    0 -0.33721058003E+01  0.18490412037E+02  0.10802805419E+02  0.21678723204E+02  0.00000000000E+00 0. -1.
</event>
<event>
 7    1  0.1113211E-011  0.5930195E+02  0.7816164E-02  0.1266605E+00
        -11   -1    0    0    0    0  0.00000000000E+00  0.00000000000E+00  0.45593999997E+02  0.45594000000E+02  0.51100000000E-03 0.  1.
         11   -1    0    0    0    0 -0.00000000000E+00 -0.00000000000E+00 -0.45593999997E+02  0.45594000000E+02  0.51100000000E-03 0. -1.
    9900012    2    1    2    0    0 -0.21712276578E+02  0.22242279728E+02 -0.71118277045E+01  0.59301952032E+02  0.50000014598E+02 0.  0.
        -12    1    1    2    0    0  0.21712276578E+02 -0.22242279728E+02  0.71118277045E+01  0.31886047968E+02  0.00000000000E+00 0.  1.
         11    1    3    3    0    0 -0.30948963709E+02  0.70101424817E+01 -0.99948628393E+01  0.33269772102E+02  0.51100000000E-03 0. -1.
        -11    1    3    3    0    0  0.10199865408E+02 -0.38065674292E+00  0.16707069550E+01  0.10342795361E+02  0.51100000000E-03 0.  1.
         12    1    3    3    0    0 -0.96317827694E+00  0.15612793989E+02  0.12123281798E+01  0.15689384569E+02  0.00000000000E+00 0. -1.
</event>
<event>
 7    1  0.1113211E-011  0.5930194E+02  0.7816164E-02  0.1266605E+00
        -11   -1    0    0    0    0  0.00000000000E+00  0.00000000000E+00  0.45593999997E+02  0.45594000000E+02  0.51100000000E-03 0. -1.
         11   -1    0    0    0    0 -0.00000000000E+00 -0.00000000000E+00 -0.45593999997E+02  0.45594000000E+02  0.51100000000E-03 0.  1.
    9900012    2    1    2    0    0 -0.16627029976E+02  0.26272848325E+02  0.70710777086E+01  0.59301939959E+02  0.49999992580E+02 0.  0.
        -12    1    1    2    0    0  0.16627029976E+02 -0.26272848325E+02 -0.70710777086E+01  0.31886060041E+02  0.00000000000E+00 0.  1.
         11    1    3    3    0    0 -0.26595369767E+01  0.15257005625E+02 -0.14660962595E+02  0.21325880570E+02  0.51100000000E-03 0. -1.
        -11    1    3    3    0    0  0.26344168580E+01 -0.64942517985E+01  0.51939729112E+01  0.87231194803E+01  0.51100000000E-03 0.  1.
         12    1    3    3    0    0 -0.16601909857E+02  0.17510094499E+02  0.16538067393E+02  0.29252939909E+02  0.00000000000E+00 0. -1.
</event>
<event>
 7    1  0.1113211E-011  0.5930194E+02  0.7816164E-02  0.1266605E+00
        -11   -1    0    0    0    0  0.00000000000E+00  0.00000000000E+00  0.45593999997E+02  0.45594000000E+02  0.51100000000E-03 0.  1.
         11   -1    0    0    0    0 -0.00000000000E+00 -0.00000000000E+00 -0.45593999997E+02  0.45594000000E+02  0.51100000000E-03 0. -1.
    9900012    2    1    2    0    0  0.37282266886E+00  0.26775534234E+02 -0.17310481319E+02  0.59301937312E+02  0.49999987752E+02 0.  0.
        -12    1    1    2    0    0 -0.37282266886E+00 -0.26775534234E+02  0.17310481319E+02  0.31886062688E+02  0.00000000000E+00 0.  1.
         11    1    3    3    0    0 -0.17351367462E+02  0.30243079554E+01 -0.16015849724E+01  0.17685628801E+02  0.51100000000E-03 0. -1.
        -11    1    3    3    0    0  0.22708586901E+02  0.11930462452E+02 -0.93960428867E+01  0.27318518912E+02  0.51100000000E-03 0.  1.
        -12    1    3    3    0    0 -0.49843967697E+01  0.11820763827E+02 -0.63128534599E+01  0.14297789599E+02  0.00000000000E+00 0.  1.
</event>
<event>
 7    1  0.1113211E-011  0.5930194E+02  0.7816164E-02  0.1266605E+00
        -11   -1    0    0    0    0  0.00000000000E+00  0.00000000000E+00  0.45593999997E+02  0.45594000000E+02  0.51100000000E-03 0. -1.
         11   -1    0    0    0    0 -0.00000000000E+00 -0.00000000000E+00 -0.45593999997E+02  0.45594000000E+02  0.51100000000E-03 0.  1.
    9900012    2    1    2    0    0 -0.20698093529E+02  0.41336832737E+01  0.23900258099E+02  0.59301941129E+02  0.49999994713E+02 0.  0.
        -12    1    1    2    0    0  0.20698093529E+02 -0.41336832737E+01 -0.23900258099E+02  0.31886058871E+02  0.00000000000E+00 0.  1.
         11    1    3    3    0    0 -0.24207598151E+02  0.21112061089E+01  0.22433503467E+02  0.33071544831E+02  0.51100000000E-03 0. -1.
        -11    1    3    3    0    0  0.32956788226E+01  0.10998213570E+02 -0.73616089719E+01  0.13638749486E+02  0.51100000000E-03 0.  1.
        -12    1    3    3    0    0  0.21382579970E+00 -0.89757364053E+01  0.88283636040E+01  0.12591646811E+02  0.00000000000E+00 0.  1.
</event>
<event>
 7    1  0.1113211E-011  0.5930193E+02  0.7816164E-02  0.1266605E+00
        -11   -1    0    0    0    0  0.00000000000E+00  0.00000000000E+00  0.45593999997E+02  0.45594000000E+02  0.51100000000E-03 0.  1.
         11   -1    0    0    0    0 -0.00000000000E+00 -0.00000000000E+00 -0.45593999997E+02  0.45594000000E+02  0.51100000000E-03 0. -1.
    9900012    2    1    2    0    0 -0.13223946310E+02 -0.62307957522E+01 -0.28337712622E+02  0.59301928928E+02  0.49999972463E+02 0.  0.
        -12    1    1    2    0    0  0.13223946310E+02  0.62307957522E+01  0.28337712622E+02  0.31886071072E+02  0.00000000000E+00 0.  1.
         11    1    3    3    0    0  0.12803003912E+02  0.99960770918E+01 -0.16463131137E+02  0.23127324824E+02  0.51100000000E-03 0. -1.
        -11    1    3    3    0    0 -0.77476426817E+01  0.19181370591E+01 -0.43794077420E+00  0.79935604885E+01  0.51100000000E-03 0.  1.
         12    1    3    3    0    0 -0.18279307540E+02 -0.18145009903E+02 -0.11436640711E+02  0.28181043616E+02  0.00000000000E+00 0. -1.
</event>
<event>
 7    1  0.1113211E-011  0.5930195E+02  0.7816164E-02  0.1266605E+00
        -11   -1    0    0    0    0  0.00000000000E+00  0.00000000000E+00  0.45593999997E+02  0.45594000000E+02  0.51100000000E-03 0. -1.
         11   -1    0    0    0    0 -0.00000000000E+00 -0.00000000000E+00 -0.45593999997E+02  0.45594000000E+02  0.51100000000E-03 0.  1.
    9900012    2    1    2    0    0 -0.24102294700E+02 -0.14928237977E+02  0.14592712262E+02  0.59301950542E+02  0.50000011880E+02 0.  0.
        -12    1    1    2    0    0  0.24102294700E+02  0.14928237977E+02 -0.14592712262E+02  0.31886049458E+02  0.00000000000E+00 0.  1.
         11    1    3    3    0    0 -0.20854522038E+02 -0.16208576348E+02 -0.40854000124E+01  0.26726756822E+02  0.51100000000E-03 0.  1.
        -11    1    3    3    0    0 -0.37401150714E+01  0.11728744791E+02  0.18366396312E+02  0.22110550171E+02  0.51100000000E-03 0. -1.
        -12    1    3    3    0    0  0.49234241011E+00 -0.10448406420E+02  0.31171596232E+00  0.10464643549E+02  0.00000000000E+00 0.  1.
</event>
<event>
 7    1  0.1113211E-011  0.5930194E+02  0.7816164E-02  0.1266605E+00
        -11   -1    0    0    0    0  0.00000000000E+00  0.00000000000E+00  0.45593999997E+02  0.45594000000E+02  0.51100000000E-03 0.  1.
         11   -1    0    0    0    0 -0.00000000000E+00 -0.00000000000E+00 -0.45593999997E+02  0.45594000000E+02  0.51100000000E-03 0. -1.
    9900012    2    1    2    0    0 -0.17435213201E+02 -0.18690329765E+02 -0.19063199925E+02  0.59301942271E+02  0.49999996797E+02 0.  0.
        -12    1    1    2    0    0  0.17435213201E+02  0.18690329765E+02  0.19063199925E+02  0.31886057729E+02  0.00000000000E+00 0.  1.
         11    1    3    3    0    0  0.10848552202E+02  0.60752133182E+01 -0.14890335552E+02  0.19399004997E+02  0.51100000000E-03 0. -1.
        -11    1    3    3    0    0 -0.14929494981E+02 -0.93333143827E+01  0.37659937583E+01  0.18005090586E+02  0.51100000000E-03 0.  1.
         12    1    3    3    0    0 -0.13354270422E+02 -0.15432228701E+02 -0.79388581304E+01  0.21897846688E+02  0.00000000000E+00 0. -1.
</event>
<event>
 7    1  0.1113211E-011  0.5930194E+02  0.7816164E-02  0.1266605E+00
        -11   -1    0    0    0    0  0.00000000000E+00  0.00000000000E+00  0.45593999997E+02  0.45594000000E+02  0.51100000000E-03 0. -1.
         11   -1    0    0    0    0 -0.00000000000E+00 -0.00000000000E+00 -0.45593999997E+02  0.45594000000E+02  0.51100000000E-03 0.  1.
    9900012    2    1    2    0    0  0.20435171231E+02 -0.24374135351E+02  0.22419700869E+01  0.59301935219E+02  0.49999983935E+02 0.  0.
        -12    1    1    2    0    0 -0.20435171231E+02  0.24374135351E+02 -0.22419700869E+01  0.31886064781E+02  0.00000000000E+00 0.  1.
         11    1    3    3    0    0  0.15874669601E+02 -0.19279769935E+02 -0.13668161224E+02  0.28469866441E+02  0.51100000000E-03 0. -1.
        -11    1    3    3    0    0 -0.29177247279E+01  0.91488341900E+01  0.95210212604E+01  0.13522726453E+02  0.51100000000E-03 0.  1.
        -12    1    3    3    0    0  0.74782263579E+01 -0.14243199606E+02  0.63891100503E+01  0.17309342325E+02  0.00000000000E+00 0.  1.
</event>
<event>
 7    1  0.1113211E-011  0.5930198E+02  0.7816164E-02  0.1266605E+00
        -11   -1    0    0    0    0  0.00000000000E+00  0.00000000000E+00  0.45593999997E+02  0.45594000000E+02  0.51100000000E-03 0.  1.
         11   -1    0    0    0    0 -0.00000000000E+00 -0.00000000000E+00 -0.45593999997E+02  0.45594000000E+02  0.51100000000E-03 0. -1.
    9900012    2    1    2    0    0 -0.62207711640E+00  0.30051387877E+02 -0.10641693814E+02  0.59301975781E+02  0.50000057910E+02 0.  0.
        -12    1    1    2    0    0  0.62207711640E+00 -0.30051387877E+02  0.10641693814E+02  0.31886024219E+02  0.00000000000E+00 0.  1.
         11    1    3    3    0    0  0.20786968627E+02  0.15693736034E+02 -0.12371584571E+02  0.28834831723E+02  0.51100000000E-03 0. -1.
        -11    1    3    3    0    0 -0.58743078227E+01 -0.33102730708E+01  0.16458302057E+01  0.69407605870E+01  0.51100000000E-03 0.  1.
         12    1    3    3    0    0 -0.15534737921E+02  0.17667924914E+02  0.84060550940E-01  0.23526383471E+02  0.00000000000E+00 0. -1.
</event>
<event>
 7    1  0.1113211E-011  0.5930195E+02  0.7816164E-02  0.1266605E+00
        -11   -1    0    0    0    0  0.00000000000E+00  0.00000000000E+00  0.45593999997E+02  0.45594000000E+02  0.51100000000E-03 0.  1.
         11   -1    0    0    0    0 -0.00000000000E+00 -0.00000000000E+00 -0.45593999997E+02  0.45594000000E+02  0.51100000000E-03 0. -1.
    9900012    2    1    2    0    0  0.12297836525E+02 -0.16867979512E+02 -0.24103004875E+02  0.59301947249E+02  0.50000005876E+02 0.  0.
        -12    1    1    2    0    0 -0.12297836525E+02  0.16867979512E+02  0.24103004875E+02  0.31886052751E+02  0.00000000000E+00 0.  1.
         11    1    3    3    0    0 -0.14823504990E+02 -0.93904794808E+01 -0.24110151530E+02  0.29819738633E+02  0.51100000000E-03 0. -1.
        -11    1    3    3    0    0  0.36024165143E+01 -0.26349352338E+01  0.28601591318E+01  0.53010186709E+01  0.51100000000E-03 0.  1.
         12    1    3    3    0    0  0.23518925001E+02 -0.48425647977E+01 -0.28530124766E+01  0.24181189946E+02  0.00000000000E+00 0. -1.
</event>
<event>
 7    1  0.1113211E-011  0.5930193E+02  0.7816164E-02  0.1266605E+00
        -11   -1    0    0    0    0  0.00000000000E+00  0.00000000000E+00  0.45593999997E+02  0.45594000000E+02  0.51100000000E-03 0.  1.
         11   -1    0    0    0    0 -0.00000000000E+00 -0.00000000000E+00 -0.45593999997E+02  0.45594000000E+02  0.51100000000E-03 0. -1.
    9900012    2    1    2    0    0 -0.71136831995E+01  0.89517520800E+01 -0.29765472132E+02  0.59301926470E+02  0.49999967978E+02 0.  0.
        -12    1    1    2    0    0  0.71136831995E+01 -0.89517520800E+01  0.29765472132E+02  0.31886073530E+02  0.00000000000E+00 0.  1.
         11    1    3    3    0    0 -0.15680522513E+02  0.39178927691E+01 -0.29563730219E+02  0.33693364551E+02  0.51100000000E-03 0. -1.
        -11    1    3    3    0    0  0.16357218647E+02  0.64071308824E+00  0.17227118893E+01  0.16460159526E+02  0.51100000000E-03 0.  1.
        -12    1    3    3    0    0 -0.77903793334E+01  0.43931462226E+01 -0.19244538015E+01  0.91484023920E+01  0.00000000000E+00 0.  1.
</event>
<event>
 7    1  0.1113211E-011  0.5930208E+02  0.7816164E-02  0.1266604E+00
        -11   -1    0    0    0    0  0.00000000000E+00  0.00000000000E+00  0.45593999997E+02  0.45594000000E+02  0.51100000000E-03 0.  1.
         11   -1    0    0    0    0 -0.00000000000E+00 -0.00000000000E+00 -0.45593999997E+02  0.45594000000E+02  0.51100000000E-03 0. -1.
    9900012    2    1    2    0    0  0.27739924200E+01 -0.14095812298E+02 -0.28466211677E+02  0.59302075746E+02  0.50000240223E+02 0.  0.
        -12    1    1    2    0    0 -0.27739924200E+01  0.14095812298E+02  0.28466211677E+02  0.31885924254E+02  0.00000000000E+00 0.  1.
         11    1    3    3    0    0  0.95140525107E+01 -0.25863058186E+02 -0.25009484151E+02  0.37214100442E+02  0.51100000000E-03 0. -1.
        -11    1    3    3    0    0 -0.46212690540E+01  0.18271834674E+01  0.62833403742E+01  0.80109358762E+01  0.51100000000E-03 0.  1.
         12    1    3    3    0    0 -0.21187910367E+01  0.99400624207E+01 -0.97400678997E+01  0.14077039429E+02  0.00000000000E+00 0. -1.
</event>
<event>
 7    1  0.1113211E-011  0.5930194E+02  0.7816164E-02  0.1266605E+00
        -11   -1    0    0    0    0  0.00000000000E+00  0.00000000000E+00  0.45593999997E+02  0.45594000000E+02  0.51100000000E-03 0. -1.
         11   -1    0    0    0    0 -0.00000000000E+00 -0.00000000000E+00 -0.45593999997E+02  0.45594000000E+02  0.51100000000E-03 0.  1.
    9900012    2    1    2    0    0  0.74699770414E+01  0.71595968370E+01  0.30160578247E+02  0.59301939345E+02  0.49999991461E+02 0.  0.
        -12    1    1    2    0    0 -0.74699770414E+01 -0.71595968370E+01 -0.30160578247E+02  0.31886060655E+02  0.00000000000E+00 0.  1.
         11    1    3    3    0    0  0.40365312179E+01  0.17628222863E+02  0.15412792274E+02  0.23761355002E+02  0.51100000000E-03 0. -1.
        -11    1    3    3    0    0  0.14045922004E+02 -0.14717741756E+02  0.62052113501E+01  0.21269802432E+02  0.51100000000E-03 0.  1.
        -12    1    3    3    0    0 -0.10612476181E+02  0.42491157304E+01  0.85425746229E+01  0.14270781911E+02  0.00000000000E+00 0.  1.
</event>
<event>
 7    1  0.1113211E-011  0.5930196E+02  0.7816164E-02  0.1266605E+00
        -11   -1    0    0    0    0  0.00000000000E+00  0.00000000000E+00  0.45593999997E+02  0.45594000000E+02  0.51100000000E-03 0.  1.
         11   -1    0    0    0    0 -0.00000000000E+00 -0.00000000000E+00 -0.45593999997E+02  0.45594000000E+02  0.51100000000E-03 0. -1.
    9900012    2    1    2    0    0  0.10244184504E+02  0.24438466334E+02 -0.17735211033E+02  0.59301958175E+02  0.50000025800E+02 0.  0.
        -12    1    1    2    0    0 -0.10244184504E+02 -0.24438466334E+02  0.17735211033E+02  0.31886041825E+02  0.00000000000E+00 0.  1.
         11    1    3    3    0    0 -0.83654774460E+01  0.17930173842E+02  0.38587307785E+01  0.20158426287E+02  0.51100000000E-03 0. -1.
        -11    1    3    3    0    0 -0.25610662276E+01 -0.61917329506E+01 -0.95719597262E+01  0.11684135844E+02  0.51100000000E-03 0.  1.
         12    1    3    3    0    0  0.21170728177E+02  0.12700025443E+02 -0.12021982085E+02  0.27459396043E+02  0.00000000000E+00 0. -1.
</event>
<event>
 7    1  0.1113211E-011  0.5930194E+02  0.7816164E-02  0.1266605E+00
        -11   -1    0    0    0    0  0.00000000000E+00  0.00000000000E+00  0.45593999997E+02  0.45594000000E+02  0.51100000000E-03 0.  1.
         11   -1    0    0    0    0 -0.00000000000E+00 -0.00000000000E+00 -0.45593999997E+02  0.45594000000E+02  0.51100000000E-03 0. -1.
    9900012    2    1    2    0    0  0.14216230254E+02  0.38569938007E+01 -0.28279731365E+02  0.59301940195E+02  0.49999993009E+02 0.  0.
        -12    1    1    2    0    0 -0.14216230254E+02 -0.38569938007E+01  0.28279731365E+02  0.31886059805E+02  0.00000000000E+00 0.  1.
         11    1    3    3    0    0  0.11910490377E+02 -0.83465260809E+00 -0.23459423183E+02  0.26323012030E+02  0.51100000000E-03 0. -1.
        -11    1    3    3    0    0  0.90808476270E+01 -0.71333426678E+01  0.81745519512E+01  0.14148133131E+02  0.51100000000E-03 0.  1.
        -12    1    3    3    0    0 -0.67751077500E+01  0.11824989077E+02 -0.12994860133E+02  0.18830795033E+02  0.00000000000E+00 0.  1.
</event>
<event>
 7    1  0.1113211E-011  0.5930187E+02  0.7816164E-02  0.1266605E+00
        -11   -1    0    0    0    0  0.00000000000E+00  0.00000000000E+00  0.45593999997E+02  0.45594000000E+02  0.51100000000E-03 0.  1.
         11   -1    0    0    0    0 -0.00000000000E+00 -0.00000000000E+00 -0.45593999997E+02  0.45594000000E+02  0.51100000000E-03 0. -1.
    9900012    2    1    2    0    0  0.17450834962E+02  0.33957971355E+01 -0.26470021999E+02  0.59301872238E+02  0.49999869073E+02 0.  0.
        -12    1    1    2    0    0 -0.17450834962E+02 -0.33957971355E+01  0.26470021999E+02  0.31886127762E+02  0.00000000000E+00 0.  1.
         11    1    3    3    0    0 -0.75984558504E+01  0.14406525849E+02 -0.19344230787E+02  0.25288016596E+02  0.51100000000E-03 0. -1.
        -11    1    3    3    0    0  0.61718166436E+01  0.47963429904E+01  0.14338376008E+01  0.79468306444E+01  0.51100000000E-03 0.  1.
         12    1    3    3    0    0  0.18877474169E+02 -0.15807071704E+02 -0.85596288126E+01  0.26067024998E+02  0.00000000000E+00 0. -1.
</event>
<event>
 7    1  0.1113211E-011  0.5930194E+02  0.7816164E-02  0.1266605E+00
        -11   -1    0    0    0    0  0.00000000000E+00  0.00000000000E+00  0.45593999997E+02  0.45594000000E+02  0.51100000000E-03 0.  1.
         11   -1    0    0    0    0 -0.00000000000E+00 -0.00000000000E+00 -0.45593999997E+02  0.45594000000E+02  0.51100000000E-03 0. -1.
    9900012    2    1    2    0    0 -0.10746732630E+00  0.26331030318E+02 -0.17982942457E+02  0.59301938370E+02  0.49999989682E+02 0.  0.
        -12    1    1    2    0    0  0.10746732630E+00 -0.26331030318E+02  0.17982942457E+02  0.31886061630E+02  0.00000000000E+00 0.  1.
         11    1    3    3    0    0  0.69839160047E+01  0.40158489608E+01  0.35152741364E+01  0.87897257154E+01  0.51100000000E-03 0. -1.
        -11    1    3    3    0    0 -0.22372730806E+01  0.29658659460E+02 -0.26967828669E+02  0.40148539888E+02  0.51100000000E-03 0.  1.
        -12    1    3    3    0    0 -0.48541102504E+01 -0.73434781022E+01  0.54696120749E+01  0.10363672766E+02  0.00000000000E+00 0.  1.
</event>
<event>
 7    1  0.1113211E-011  0.5930193E+02  0.7816164E-02  0.1266605E+00
        -11   -1    0    0    0    0  0.00000000000E+00  0.00000000000E+00  0.45593999997E+02  0.45594000000E+02  0.51100000000E-03 0. -1.
         11   -1    0    0    0    0 -0.00000000000E+00 -0.00000000000E+00 -0.45593999997E+02  0.45594000000E+02  0.51100000000E-03 0.  1.
    9900012    2    1    2    0    0  0.17342469204E+02  0.59718799606E+01  0.26082501839E+02  0.59301929522E+02  0.49999973544E+02 0.  0.
        -12    1    1    2    0    0 -0.17342469204E+02 -0.59718799606E+01 -0.26082501839E+02  0.31886070478E+02  0.00000000000E+00 0.  1.
         11    1    3    3    0    0 -0.14018600395E+01  0.50303360277E+01  0.18121755612E+02  0.18859149473E+02  0.51100000000E-03 0. -1.
        -11    1    3    3    0    0 -0.15891565760E+01 -0.89351708323E+01 -0.85353091358E+01  0.12458499056E+02  0.51100000000E-03 0.  1.
        -12    1    3    3    0    0  0.20333485820E+02  0.98767147653E+01  0.16496055363E+02  0.27984280993E+02  0.00000000000E+00 0.  1.
</event>
<event>
 7    1  0.1113211E-011  0.5930185E+02  0.7816164E-02  0.1266605E+00
        -11   -1    0    0    0    0  0.00000000000E+00  0.00000000000E+00  0.45593999997E+02  0.45594000000E+02  0.51100000000E-03 0.  1.
         11   -1    0    0    0    0 -0.00000000000E+00 -0.00000000000E+00 -0.45593999997E+02  0.45594000000E+02  0.51100000000E-03 0. -1.
    9900012    2    1    2    0    0 -0.83960651487E-01  0.11761631583E+02 -0.29637534526E+02  0.59301851289E+02  0.49999830866E+02 0.  0.
        -12    1    1    2    0    0  0.83960651487E-01 -0.11761631583E+02  0.29637534526E+02  0.31886148711E+02  0.00000000000E+00 0.  1.
         11    1    3    3    0    0 -0.64718684328E+00  0.54282006973E+01 -0.17223036034E+02  0.18069786499E+02  0.51100000000E-03 0. -1.
        -11    1    3    3    0    0 -0.12649750176E+02  0.68132135840E+01  0.83480970872E+01  0.16617063041E+02  0.51100000000E-03 0.  1.
        -12    1    3    3    0    0  0.13212976368E+02 -0.47978269816E+00 -0.20762595579E+02  0.24615001749E+02  0.00000000000E+00 0.  1.
</event>
<event>
 7    1  0.1113211E-011  0.5930194E+02  0.7816164E-02  0.1266605E+00
        -11   -1    0    0    0    0  0.00000000000E+00  0.00000000000E+00  0.45593999997E+02  0.45594000000E+02  0.51100000000E-03 0.  1.
         11   -1    0    0    0    0 -0.00000000000E+00 -0.00000000000E+00 -0.45593999997E+02  0.45594000000E+02  0.51100000000E-03 0. -1.
    9900012    2    1    2    0    0 -0.71267849746E+01 -0.10517519727E+02 -0.29245709188E+02  0.59301940489E+02  0.49999993546E+02 0.  0.
        -12    1    1    2    0    0  0.71267849746E+01  0.10517519727E+02  0.29245709188E+02  0.31886059511E+02  0.00000000000E+00 0.  1.
         11    1    3    3    0    0  0.10569264840E+01 -0.30948156435E+01 -0.74515263330E+01  0.81375808698E+01  0.51100000000E-03 0. -1.
        -11    1    3    3    0    0  0.49088936687E+01 -0.17382152026E+02  0.58587137210E+01  0.18988443138E+02  0.51100000000E-03 0.  1.
        -12    1    3    3    0    0 -0.13092605127E+02  0.99594479424E+01 -0.27652896576E+02  0.32175916481E+02  0.00000000000E+00 0.  1.
</event>
<event>
 7    1  0.1113211E-011  0.5930194E+02  0.7816164E-02  0.1266605E+00
        -11   -1    0    0    0    0  0.00000000000E+00  0.00000000000E+00  0.45593999997E+02  0.45594000000E+02  0.51100000000E-03 0.  1.
         11   -1    0    0    0    0 -0.00000000000E+00 -0.00000000000E+00 -0.45593999997E+02  0.45594000000E+02  0.51100000000E-03 0. -1.
    9900012    2    1    2    0    0 -0.23753295536E+02 -0.15322803457E+02 -0.14755127090E+02  0.59301935174E+02  0.49999983854E+02 0.  0.
        -12    1    1    2    0    0  0.23753295536E+02  0.15322803457E+02  0.14755127090E+02  0.31886064826E+02  0.00000000000E+00 0.  1.
         11    1    3    3    0    0 -0.22603365737E+02 -0.24203158532E+01 -0.15075423700E+02  0.27277068601E+02  0.51100000000E-03 0. -1.
        -11    1    3    3    0    0 -0.38097513189E+00  0.13328775741E+01  0.12922831127E+02  0.12996971543E+02  0.51100000000E-03 0.  1.
        -12    1    3    3    0    0 -0.76895466688E+00 -0.14235365178E+02 -0.12602534517E+02  0.19027895031E+02  0.00000000000E+00 0.  1.
</event>
<event>
 7    1  0.1113211E-011  0.5930186E+02  0.7816164E-02  0.1266605E+00
        -11   -1    0    0    0    0  0.00000000000E+00  0.00000000000E+00  0.45593999997E+02  0.45594000000E+02  0.51100000000E-03 0. -1.
         11   -1    0    0    0    0 -0.00000000000E+00 -0.00000000000E+00 -0.45593999997E+02  0.45594000000E+02  0.51100000000E-03 0.  1.
    9900012    2    1    2    0    0 -0.16318135084E+02  0.21113722594E+02  0.17454366864E+02  0.59301862933E+02  0.49999852103E+02 0.  0.
        -12    1    1    2    0    0  0.16318135084E+02 -0.21113722594E+02 -0.17454366864E+02  0.31886137067E+02  0.00000000000E+00 0.  1.
         11    1    3    3    0    0 -0.62096086390E+01 -0.66941637137E+01  0.15879895713E+02  0.18317809787E+02  0.51100000000E-03 0. -1.
        -11    1    3    3    0    0 -0.15833393617E+01  0.30611560134E+02  0.55802035257E+01  0.31156271424E+02  0.51100000000E-03 0.  1.
        -12    1    3    3    0    0 -0.85251870832E+01 -0.28036738264E+01 -0.40057323746E+01  0.98277817225E+01  0.00000000000E+00 0.  1.
</event>
<event>
 7    1  0.1113211E-011  0.5930193E+02  0.7816164E-02  0.1266605E+00
        -11   -1    0    0    0    0  0.00000000000E+00  0.00000000000E+00  0.45593999997E+02  0.45594000000E+02  0.51100000000E-03 0. -1.
         11   -1    0    0    0    0 -0.00000000000E+00 -0.00000000000E+00 -0.45593999997E+02  0.45594000000E+02  0.51100000000E-03 0.  1.
    9900012    2    1    2    0    0 -0.72308799795E+01  0.13368322866E+01  0.31026580612E+02  0.59301930153E+02  0.49999974695E+02 0.  0.
        -12    1    1    2    0    0  0.72308799795E+01 -0.13368322866E+01 -0.31026580612E+02  0.31886069847E+02  0.00000000000E+00 0.  1.
         11    1    3    3    0    0  0.45417766608E+01  0.12157415489E+02  0.94318026096E+01  0.16043359602E+02  0.51100000000E-03 0. -1.
        -11    1    3    3    0    0 -0.15647097429E+00 -0.13366157930E+02 -0.48845009161E+01  0.14231549825E+02  0.51100000000E-03 0.  1.
        -12    1    3    3    0    0 -0.11616185666E+02  0.25455747276E+01  0.26479278918E+02  0.29027020725E+02  0.00000000000E+00 0.  1.
</event>
<event>
 7    1  0.1113211E-011  0.5930194E+02  0.7816164E-02  0.1266605E+00
        -11   -1    0    0    0    0  0.00000000000E+00  0.00000000000E+00  0.45593999997E+02  0.45594000000E+02  0.51100000000E-03 0. -1.
         11   -1    0    0    0    0 -0.00000000000E+00 -0.00000000000E+00 -0.45593999997E+02  0.45594000000E+02  0.51100000000E-03 0.  1.
    9900012    2    1    2    0    0 -0.29590698029E+01 -0.52537473225E+00  0.31744115114E+02  0.59301937886E+02  0.49999988800E+02 0.  0.
        -12    1    1    2    0    0  0.29590698029E+01  0.52537473225E+00 -0.31744115114E+02  0.31886062114E+02  0.00000000000E+00 0.  1.
         11    1    3    3    0    0 -0.17149579662E+02  0.50118605366E+01  0.11967155271E+02  0.21504409645E+02  0.51100000000E-03 0. -1.
        -11    1    3    3    0    0  0.46371663566E+01 -0.48814151656E+01 -0.67871474038E+01  0.95601723823E+01  0.51100000000E-03 0.  1.
         12    1    3    3    0    0  0.95533435027E+01 -0.65582010326E+00  0.26564107247E+02  0.28237355860E+02  0.00000000000E+00 0. -1.
</event>
<event>
 7    1  0.1113211E-011  0.5930193E+02  0.7816164E-02  0.1266605E+00
        -11   -1    0    0    0    0  0.00000000000E+00  0.00000000000E+00  0.45593999997E+02  0.45594000000E+02  0.51100000000E-03 0.  1.
         11   -1    0    0    0    0 -0.00000000000E+00 -0.00000000000E+00 -0.45593999997E+02  0.45594000000E+02  0.51100000000E-03 0. -1.
    9900012    2    1    2    0    0 -0.12086167216E+02 -0.26087714208E+02 -0.13786840001E+02  0.59301933642E+02  0.49999981058E+02 0.  0.
        -12    1    1    2    0    0  0.12086167216E+02  0.26087714208E+02  0.13786840001E+02  0.31886066358E+02  0.00000000000E+00 0.  1.
         11    1    3    3    0    0  0.74702800586E+01  0.57342977882E+01 -0.17440308886E+02  0.19820485100E+02  0.51100000000E-03 0. -1.
        -11    1    3    3    0    0 -0.62263568704E+01 -0.52679549159E+01  0.52950763292E+01  0.97240270704E+01  0.51100000000E-03 0.  1.
         12    1    3    3    0    0 -0.13330090405E+02 -0.26554057081E+02 -0.16416074441E+01  0.29757421471E+02  0.00000000000E+00 0. -1.
</event>
<event>
 7    1  0.1113211E-011  0.5930195E+02  0.7816164E-02  0.1266605E+00
        -11   -1    0    0    0    0  0.00000000000E+00  0.00000000000E+00  0.45593999997E+02  0.45594000000E+02  0.51100000000E-03 0. -1.
         11   -1    0    0    0    0 -0.00000000000E+00 -0.00000000000E+00 -0.45593999997E+02  0.45594000000E+02  0.51100000000E-03 0.  1.
    9900012    2    1    2    0    0  0.42236663298E+01  0.31334770796E+02  0.41247030600E+01  0.59301946725E+02  0.50000004919E+02 0.  0.
        -12    1    1    2    0    0 -0.42236663298E+01 -0.31334770796E+02 -0.41247030600E+01  0.31886053275E+02  0.00000000000E+00 0.  1.
         11    1    3    3    0    0 -0.88299430414E+01  0.23918955939E+02  0.16774893196E+02  0.30520180034E+02  0.51100000000E-03 0. -1.
        -11    1    3    3    0    0 -0.29364172769E+01 -0.41377614805E+01 -0.62328734351E+01  0.80369352375E+01  0.51100000000E-03 0.  1.
        -12    1    3    3    0    0  0.15990026648E+02  0.11553576337E+02 -0.64173167006E+01  0.20744831453E+02  0.00000000000E+00 0.  1.
</event>
<event>
 7    1  0.1113211E-011  0.5930195E+02  0.7816164E-02  0.1266605E+00
        -11   -1    0    0    0    0  0.00000000000E+00  0.00000000000E+00  0.45593999997E+02  0.45594000000E+02  0.51100000000E-03 0.  1.
         11   -1    0    0    0    0 -0.00000000000E+00 -0.00000000000E+00 -0.45593999997E+02  0.45594000000E+02  0.51100000000E-03 0. -1.
    9900012    2    1    2    0    0  0.60917058313E+01 -0.66047576043E+01 -0.30593933513E+02  0.59301945513E+02  0.50000002709E+02 0.  0.
        -12    1    1    2    0    0 -0.60917058313E+01  0.66047576043E+01  0.30593933513E+02  0.31886054487E+02  0.00000000000E+00 0.  1.
         11    1    3    3    0    0 -0.66276193783E+01  0.64153310856E+01 -0.31356419879E+02  0.32684964119E+02  0.51100000000E-03 0. -1.
        -11    1    3    3    0    0 -0.61560169331E+00 -0.13245640967E+02  0.73170546410E+00  0.13280111567E+02  0.51100000000E-03 0.  1.
         12    1    3    3    0    0  0.13334926903E+02  0.22555227745E+00  0.30780901955E-01  0.13336869828E+02  0.00000000000E+00 0. -1.
</event>
<event>
 7    1  0.1113211E-011  0.5930205E+02  0.7816164E-02  0.1266604E+00
        -11   -1    0    0    0    0  0.00000000000E+00  0.00000000000E+00  0.45593999997E+02  0.45594000000E+02  0.51100000000E-03 0. -1.
         11   -1    0    0    0    0 -0.00000000000E+00 -0.00000000000E+00 -0.45593999997E+02  0.45594000000E+02  0.51100000000E-03 0.  1.
    9900012    2    1    2    0    0  0.15130097887E+02  0.27426928109E+02 -0.59630417046E+01  0.59302045193E+02  0.50000184501E+02 0.  0.
        -12    1    1    2    0    0 -0.15130097887E+02 -0.27426928109E+02  0.59630417046E+01  0.31885954807E+02  0.00000000000E+00 0.  1.
         11    1    3    3    0    0 -0.10345155524E+01  0.36849946200E+01 -0.19035718903E+02  0.19416693905E+02  0.51100000000E-03 0. -1.
        -11    1    3    3    0    0  0.48294322938E+01  0.25436052779E+02  0.65822037465E+01  0.26714071267E+02  0.51100000000E-03 0.  1.
         12    1    3    3    0    0  0.11335181146E+02 -0.16941192892E+01  0.64904734516E+01  0.13171280021E+02  0.00000000000E+00 0. -1.
</event>
<event>
 7    1  0.1113211E-011  0.5930195E+02  0.7816164E-02  0.1266605E+00
        -11   -1    0    0    0    0  0.00000000000E+00  0.00000000000E+00  0.45593999997E+02  0.45594000000E+02  0.51100000000E-03 0. -1.
         11   -1    0    0    0    0 -0.00000000000E+00 -0.00000000000E+00 -0.45593999997E+02  0.45594000000E+02  0.51100000000E-03 0.  1.
    9900012    2    1    2    0    0 -0.95752135034E+01  0.10281123399E+02  0.28624007434E+02  0.59301952682E+02  0.50000015783E+02 0.  0.
        -12    1    1    2    0    0  0.95752135034E+01 -0.10281123399E+02 -0.28624007434E+02  0.31886047318E+02  0.00000000000E+00 0.  1.
         11    1    3    3    0    0 -0.17293461699E+02  0.18486519806E+02  0.20080382220E+02  0.32311561127E+02  0.51100000000E-03 0. -1.
        -11    1    3    3    0    0  0.67498100250E+00 -0.11242265006E+02  0.13709824376E+02  0.17742700090E+02  0.51100000000E-03 0.  1.
         12    1    3    3    0    0  0.70432671931E+01  0.30368685994E+01 -0.51661991616E+01  0.92476914644E+01  0.00000000000E+00 0. -1.
</event>
<event>
 7    1  0.1113211E-011  0.5930193E+02  0.7816164E-02  0.1266605E+00
        -11   -1    0    0    0    0  0.00000000000E+00  0.00000000000E+00  0.45593999997E+02  0.45594000000E+02  0.51100000000E-03 0.  1.
         11   -1    0    0    0    0 -0.00000000000E+00 -0.00000000000E+00 -0.45593999997E+02  0.45594000000E+02  0.51100000000E-03 0. -1.
    9900012    2    1    2    0    0  0.82010987709E+01 -0.97174456299E+01 -0.29240979732E+02  0.59301926765E+02  0.49999968518E+02 0.  0.
        -12    1    1    2    0    0 -0.82010987709E+01  0.97174456299E+01  0.29240979732E+02  0.31886073235E+02  0.00000000000E+00 0.  1.
         11    1    3    3    0    0 -0.76917963472E+01 -0.22703223201E+02 -0.80853173040E+01  0.25297676394E+02  0.51100000000E-03 0. -1.
        -11    1    3    3    0    0  0.14211390727E+02  0.85967166231E+01 -0.52508524801E+01  0.17419489520E+02  0.51100000000E-03 0.  1.
         12    1    3    3    0    0  0.16815043907E+01  0.43890609478E+01 -0.15904809948E+02  0.16584760852E+02  0.00000000000E+00 0. -1.
</event>
<event>
 7    1  0.1113211E-011  0.5930202E+02  0.7816164E-02  0.1266605E+00
        -11   -1    0    0    0    0  0.00000000000E+00  0.00000000000E+00  0.45593999997E+02  0.45594000000E+02  0.51100000000E-03 0.  1.
         11   -1    0    0    0    0 -0.00000000000E+00 -0.00000000000E+00 -0.45593999997E+02  0.45594000000E+02  0.51100000000E-03 0. -1.
    9900012    2    1    2    0    0  0.45295782731E+00 -0.65986939620E+01 -0.31192432864E+02  0.59302018742E+02  0.50000136261E+02 0.  0.
        -12    1    1    2    0    0 -0.45295782731E+00  0.65986939620E+01  0.31192432864E+02  0.31885981258E+02  0.00000000000E+00 0.  1.
         11    1    3    3    0    0 -0.11263260313E+02  0.13863417069E+01 -0.18319099766E+02  0.21549301443E+02  0.51100000000E-03 0. -1.
        -11    1    3    3    0    0  0.15451128280E+02 -0.18515253507E+02 -0.68993136143E+01  0.25082912633E+02  0.51100000000E-03 0.  1.
        -12    1    3    3    0    0 -0.37349101398E+01  0.10530217838E+02 -0.59740194839E+01  0.12669804666E+02  0.00000000000E+00 0.  1.
</event>
<event>
 7    1  0.1113211E-011  0.5930183E+02  0.7816164E-02  0.1266605E+00
        -11   -1    0    0    0    0  0.00000000000E+00  0.00000000000E+00  0.45593999997E+02  0.45594000000E+02  0.51100000000E-03 0. -1.
         11   -1    0    0    0    0 -0.00000000000E+00 -0.00000000000E+00 -0.45593999997E+02  0.45594000000E+02  0.51100000000E-03 0.  1.
    9900012    2    1    2    0    0 -0.30911336747E+02  0.46960878806E+01  0.62581260659E+01  0.59301825524E+02  0.49999783877E+02 0.  0.
        -12    1    1    2    0    0  0.30911336747E+02 -0.46960878806E+01 -0.62581260659E+01  0.31886174476E+02  0.00000000000E+00 0.  1.
         11    1    3    3    0    0 -0.16917751335E+02  0.58707674360E+00  0.10423498976E+02  0.19879745987E+02  0.51100000000E-03 0. -1.
        -11    1    3    3    0    0 -0.97665657863E+01  0.13249998733E+01 -0.20270880472E+02  0.22539965113E+02  0.51100000000E-03 0.  1.
        -12    1    3    3    0    0 -0.42270196260E+01  0.27840112637E+01  0.16105507561E+02  0.16882114425E+02  0.00000000000E+00 0.  1.
</event>
<event>
 7    1  0.1113211E-011  0.5930193E+02  0.7816164E-02  0.1266605E+00
        -11   -1    0    0    0    0  0.00000000000E+00  0.00000000000E+00  0.45593999997E+02  0.45594000000E+02  0.51100000000E-03 0.  1.
         11   -1    0    0    0    0 -0.00000000000E+00 -0.00000000000E+00 -0.45593999997E+02  0.45594000000E+02  0.51100000000E-03 0. -1.
    9900012    2    1    2    0    0  0.31727227621E+02  0.31733264607E+01 -0.18503870517E+00  0.59301933879E+02  0.49999981491E+02 0.  0.
        -12    1    1    2    0    0 -0.31727227621E+02 -0.31733264607E+01  0.18503870517E+00  0.31886066121E+02  0.00000000000E+00 0.  1.
         11    1    3    3    0    0  0.32014857225E+02  0.77464708618E+01  0.17733382290E+02  0.37408979426E+02  0.51100000000E-03 0. -1.
        -11    1    3    3    0    0 -0.22879565348E+00  0.87609069353E+00 -0.16132984174E+02  0.16158374330E+02  0.51100000000E-03 0.  1.
        -12    1    3    3    0    0 -0.58833950834E-01 -0.54492350947E+01 -0.17854368209E+01  0.57345801235E+01  0.00000000000E+00 0.  1.
</event>
<event>
 7    1  0.1113211E-011  0.5930193E+02  0.7816164E-02  0.1266605E+00
        -11   -1    0    0    0    0  0.00000000000E+00  0.00000000000E+00  0.45593999997E+02  0.45594000000E+02  0.51100000000E-03 0.  1.
         11   -1    0    0    0    0 -0.00000000000E+00 -0.00000000000E+00 -0.45593999997E+02  0.45594000000E+02  0.51100000000E-03 0. -1.
    9900012    2    1    2    0    0  0.76691708581E+01 -0.24308606599E+02 -0.19157163120E+02  0.59301930389E+02  0.49999975126E+02 0.  0.
        -12    1    1    2    0    0 -0.76691708581E+01  0.24308606599E+02  0.19157163120E+02  0.31886069611E+02  0.00000000000E+00 0.  1.
         11    1    3    3    0    0 -0.35857603653E+01 -0.27213173677E+02 -0.13728835899E+02  0.30690314993E+02  0.51100000000E-03 0. -1.
        -11    1    3    3    0    0  0.12134401535E+02  0.12888145078E+02 -0.56667023002E+01  0.18586540813E+02  0.51100000000E-03 0.  1.
        -12    1    3    3    0    0 -0.87947031140E+00 -0.99835780007E+01  0.23837507947E+00  0.10025074583E+02  0.00000000000E+00 0.  1.
</event>
<event>
 7    1  0.1113211E-011  0.5930198E+02  0.7816164E-02  0.1266605E+00
        -11   -1    0    0    0    0  0.00000000000E+00  0.00000000000E+00  0.45593999997E+02  0.45594000000E+02  0.51100000000E-03 0.  1.
         11   -1    0    0    0    0 -0.00000000000E+00 -0.00000000000E+00 -0.45593999997E+02  0.45594000000E+02  0.51100000000E-03 0. -1.
    9900012    2    1    2    0    0  0.15267749918E+02  0.26718602369E+02 -0.83504802712E+01  0.59301977657E+02  0.50000061331E+02 0.  0.
        -12    1    1    2    0    0 -0.15267749918E+02 -0.26718602369E+02  0.83504802712E+01  0.31886022343E+02  0.00000000000E+00 0.  1.
         11    1    3    3    0    0  0.24585801996E+02 -0.43541239511E+01  0.22357718009E+01  0.25068281372E+02  0.51100000000E-03 0. -1.
        -11    1    3    3    0    0 -0.18423798362E+01  0.52289493750E+01 -0.77846514167E+00  0.55984179252E+01  0.51100000000E-03 0.  1.
         12    1    3    3    0    0 -0.74756722412E+01  0.25843776945E+02 -0.98077869305E+01  0.28635278359E+02  0.00000000000E+00 0. -1.
</event>
<event>
 7    1  0.1113211E-011  0.5930196E+02  0.7816164E-02  0.1266605E+00
        -11   -1    0    0    0    0  0.00000000000E+00  0.00000000000E+00  0.45593999997E+02  0.45594000000E+02  0.51100000000E-03 0.  1.
         11   -1    0    0    0    0 -0.00000000000E+00 -0.00000000000E+00 -0.45593999997E+02  0.45594000000E+02  0.51100000000E-03 0. -1.
    9900012    2    1    2    0    0  0.10044185058E+02 -0.16411026717E+02 -0.25426596637E+02  0.59301964374E+02  0.50000037107E+02 0.  0.
        -12    1    1    2    0    0 -0.10044185058E+02  0.16411026717E+02  0.25426596637E+02  0.31886035626E+02  0.00000000000E+00 0.  1.
         11    1    3    3    0    0  0.12241550155E+02  0.41374121305E+01 -0.33449784294E+02  0.35858915194E+02  0.51100000000E-03 0. -1.
        -11    1    3    3    0    0 -0.11325723593E+01 -0.15745417448E+02  0.93504380709E+01  0.18347522534E+02  0.51100000000E-03 0.  1.
         12    1    3    3    0    0 -0.10647927382E+01 -0.48030213990E+01 -0.13272504145E+01  0.50955266457E+01  0.00000000000E+00 0. -1.
</event>
<event>
 7    1  0.1113211E-011  0.5930193E+02  0.7816164E-02  0.1266605E+00
        -11   -1    0    0    0    0  0.00000000000E+00  0.00000000000E+00  0.45593999997E+02  0.45594000000E+02  0.51100000000E-03 0.  1.
         11   -1    0    0    0    0 -0.00000000000E+00 -0.00000000000E+00 -0.45593999997E+02  0.45594000000E+02  0.51100000000E-03 0. -1.
    9900012    2    1    2    0    0 -0.21002908488E+02  0.23597802033E+02 -0.43293510499E+01  0.59301926139E+02  0.49999967375E+02 0.  0.
        -12    1    1    2    0    0  0.21002908488E+02 -0.23597802033E+02  0.43293510499E+01  0.31886073861E+02  0.00000000000E+00 0.  1.
         11    1    3    3    0    0 -0.19813195637E+02  0.22123682049E+02  0.16457715119E+02  0.33954033869E+02  0.51100000000E-03 0.  1.
        -11    1    3    3    0    0 -0.16879948909E+01 -0.55569685368E+01 -0.15453236202E+02  0.16508535230E+02  0.51100000000E-03 0. -1.
        -12    1    3    3    0    0  0.49828203971E+00  0.70310885208E+01 -0.53338299669E+01  0.88393570407E+01  0.00000000000E+00 0.  1.
</event>
<event>
 7    1  0.1113211E-011  0.5930194E+02  0.7816164E-02  0.1266605E+00
        -11   -1    0    0    0    0  0.00000000000E+00  0.00000000000E+00  0.45593999997E+02  0.45594000000E+02  0.51100000000E-03 0. -1.
         11   -1    0    0    0    0 -0.00000000000E+00 -0.00000000000E+00 -0.45593999997E+02  0.45594000000E+02  0.51100000000E-03 0.  1.
    9900012    2    1    2    0    0  0.18430070550E+02 -0.16969276759E+01  0.25964854575E+02  0.59301941336E+02  0.49999995091E+02 0.  0.
        -12    1    1    2    0    0 -0.18430070550E+02  0.16969276759E+01 -0.25964854575E+02  0.31886058664E+02  0.00000000000E+00 0.  1.
         11    1    3    3    0    0  0.44813078830E+00 -0.46674520550E+01  0.48900086360E+00  0.47143453411E+01  0.51100000000E-03 0.  1.
        -11    1    3    3    0    0  0.14390390292E+02  0.68927810007E+01  0.37873512104E+02  0.41097404809E+02  0.51100000000E-03 0. -1.
        -12    1    3    3    0    0  0.35915494698E+01 -0.39222566216E+01 -0.12397658393E+02  0.13490191186E+02  0.00000000000E+00 0.  1.
</event>
<event>
 7    1  0.1113211E-011  0.5930196E+02  0.7816164E-02  0.1266605E+00
        -11   -1    0    0    0    0  0.00000000000E+00  0.00000000000E+00  0.45593999997E+02  0.45594000000E+02  0.51100000000E-03 0.  1.
         11   -1    0    0    0    0 -0.00000000000E+00 -0.00000000000E+00 -0.45593999997E+02  0.45594000000E+02  0.51100000000E-03 0. -1.
    9900012    2    1    2    0    0  0.14553105879E+02  0.11062213954E+02  0.26125736660E+02  0.59301959413E+02  0.50000028059E+02 0.  0.
        -12    1    1    2    0    0 -0.14553105879E+02 -0.11062213954E+02 -0.26125736660E+02  0.31886040587E+02  0.00000000000E+00 0.  1.
         11    1    3    3    0    0  0.97545211764E+01  0.14189660952E+02  0.51269703356E+00  0.17226724001E+02  0.51100000000E-03 0. -1.
        -11    1    3    3    0    0  0.15672164078E+02 -0.11498105074E+02  0.17366199003E+02  0.26065456360E+02  0.51100000000E-03 0.  1.
        -12    1    3    3    0    0 -0.10873579375E+02  0.83706580759E+01  0.82468406231E+01  0.16009779052E+02  0.00000000000E+00 0.  1.
</event>
<event>
 7    1  0.1113211E-011  0.5930196E+02  0.7816164E-02  0.1266605E+00
        -11   -1    0    0    0    0  0.00000000000E+00  0.00000000000E+00  0.45593999997E+02  0.45594000000E+02  0.51100000000E-03 0. -1.
         11   -1    0    0    0    0 -0.00000000000E+00 -0.00000000000E+00 -0.45593999997E+02  0.45594000000E+02  0.51100000000E-03 0.  1.
    9900012    2    1    2    0    0 -0.20688450432E+01  0.25259704744E+02  0.19349082949E+02  0.59301955803E+02  0.50000021475E+02 0.  0.
        -12    1    1    2    0    0  0.20688450432E+01 -0.25259704744E+02 -0.19349082949E+02  0.31886044197E+02  0.00000000000E+00 0.  1.
         11    1    3    3    0    0 -0.18381154725E+02  0.11197521843E+02  0.11809969727E+00  0.21523598497E+02  0.51100000000E-03 0. -1.
        -11    1    3    3    0    0  0.16540287154E+02  0.20266931027E+02  0.16912666159E+02  0.31150728230E+02  0.51100000000E-03 0.  1.
        -12    1    3    3    0    0 -0.22797747240E+00 -0.62047481250E+01  0.23183170925E+01  0.66276290756E+01  0.00000000000E+00 0.  1.
</event>
<event>
 7    1  0.1113211E-011  0.5930200E+02  0.7816164E-02  0.1266605E+00
        -11   -1    0    0    0    0  0.00000000000E+00  0.00000000000E+00  0.45593999997E+02  0.45594000000E+02  0.51100000000E-03 0. -1.
         11   -1    0    0    0    0 -0.00000000000E+00 -0.00000000000E+00 -0.45593999997E+02  0.45594000000E+02  0.51100000000E-03 0.  1.
    9900012    2    1    2    0    0  0.51139071889E+01  0.80313252203E+01  0.30431282985E+02  0.59301996556E+02  0.50000095799E+02 0.  0.
        -12    1    1    2    0    0 -0.51139071889E+01 -0.80313252203E+01 -0.30431282985E+02  0.31886003444E+02  0.00000000000E+00 0.  1.
         11    1    3    3    0    0 -0.83739751606E+00 -0.19212634807E+02  0.19109716361E+02  0.27111027839E+02  0.51100000000E-03 0. -1.
        -11    1    3    3    0    0  0.52335555418E+01  0.11689662926E+02 -0.21903367084E+00  0.12809617440E+02  0.51100000000E-03 0.  1.
         12    1    3    3    0    0  0.71774916309E+00  0.15554297101E+02  0.11540600294E+02  0.19381351277E+02  0.00000000000E+00 0. -1.
</event>
<event>
 7    1  0.1113211E-011  0.5930195E+02  0.7816164E-02  0.1266605E+00
        -11   -1    0    0    0    0  0.00000000000E+00  0.00000000000E+00  0.45593999997E+02  0.45594000000E+02  0.51100000000E-03 0.  1.
         11   -1    0    0    0    0 -0.00000000000E+00 -0.00000000000E+00 -0.45593999997E+02  0.45594000000E+02  0.51100000000E-03 0. -1.
    9900012    2    1    2    0    0  0.17086807084E+02 -0.22206584528E+01 -0.26829649844E+02  0.59301946450E+02  0.50000004417E+02 0.  0.
        -12    1    1    2    0    0 -0.17086807084E+02  0.22206584528E+01  0.26829649844E+02  0.31886053550E+02  0.00000000000E+00 0.  1.
         11    1    3    3    0    0 -0.34082934560E+01 -0.90110733478E+01 -0.10314883354E+02  0.14114273840E+02  0.51100000000E-03 0. -1.
        -11    1    3    3    0    0  0.20508324029E+02  0.17060538654E+02 -0.21029504330E+02  0.33969006260E+02  0.51100000000E-03 0.  1.
        -12    1    3    3    0    0 -0.13223488438E-01 -0.10270123759E+02  0.45147378407E+01  0.11218666350E+02  0.00000000000E+00 0.  1.
</event>
<event>
 7    1  0.1113211E-011  0.5930193E+02  0.7816164E-02  0.1266605E+00
        -11   -1    0    0    0    0  0.00000000000E+00  0.00000000000E+00  0.45593999997E+02  0.45594000000E+02  0.51100000000E-03 0.  1.
         11   -1    0    0    0    0 -0.00000000000E+00 -0.00000000000E+00 -0.45593999997E+02  0.45594000000E+02  0.51100000000E-03 0. -1.
    9900012    2    1    2    0    0 -0.98029600537E+01 -0.19707057685E+02 -0.23070662250E+02  0.59301927726E+02  0.49999970270E+02 0.  0.
        -12    1    1    2    0    0  0.98029600537E+01  0.19707057685E+02  0.23070662250E+02  0.31886072274E+02  0.00000000000E+00 0.  1.
         11    1    3    3    0    0  0.80376156517E+01 -0.13340704329E+02 -0.55025489363E+01  0.16518344421E+02  0.51100000000E-03 0. -1.
        -11    1    3    3    0    0 -0.57325891011E+01  0.56645877775E+01 -0.23397607398E+02  0.24746679873E+02  0.51100000000E-03 0.  1.
        -12    1    3    3    0    0 -0.12107986604E+02 -0.12030941133E+02  0.58294940845E+01  0.18036903433E+02  0.00000000000E+00 0.  1.
</event>
<event>
 7    1  0.1113211E-011  0.5930196E+02  0.7816164E-02  0.1266605E+00
        -11   -1    0    0    0    0  0.00000000000E+00  0.00000000000E+00  0.45593999997E+02  0.45594000000E+02  0.51100000000E-03 0.  1.
         11   -1    0    0    0    0 -0.00000000000E+00 -0.00000000000E+00 -0.45593999997E+02  0.45594000000E+02  0.51100000000E-03 0. -1.
    9900012    2    1    2    0    0 -0.31397031815E+02 -0.32959939912E+01  0.44813168388E+01  0.59301962557E+02  0.50000033793E+02 0.  0.
        -12    1    1    2    0    0  0.31397031815E+02  0.32959939912E+01 -0.44813168388E+01  0.31886037443E+02  0.00000000000E+00 0.  1.
         11    1    3    3    0    0 -0.23042912847E+02  0.15440138965E+02  0.85903159146E+01  0.29037342363E+02  0.51100000000E-03 0. -1.
        -11    1    3    3    0    0  0.17845162558E+01 -0.15431712436E+02 -0.96090109100E+01  0.18266234913E+02  0.51100000000E-03 0.  1.
        -12    1    3    3    0    0 -0.10138635224E+02 -0.33044205198E+01  0.55000118342E+01  0.11998385281E+02  0.00000000000E+00 0.  1.
</event>
<event>
 7    1  0.1113211E-011  0.5930195E+02  0.7816164E-02  0.1266605E+00
        -11   -1    0    0    0    0  0.00000000000E+00  0.00000000000E+00  0.45593999997E+02  0.45594000000E+02  0.51100000000E-03 0. -1.
         11   -1    0    0    0    0 -0.00000000000E+00 -0.00000000000E+00 -0.45593999997E+02  0.45594000000E+02  0.51100000000E-03 0.  1.
    9900012    2    1    2    0    0 -0.11904051805E+02 -0.23383583991E+02  0.18116892361E+02  0.59301949155E+02  0.50000009351E+02 0.  0.
        -12    1    1    2    0    0  0.11904051805E+02  0.23383583991E+02 -0.18116892361E+02  0.31886050845E+02  0.00000000000E+00 0.  1.
         11    1    3    3    0    0 -0.97004759867E+01 -0.39529399699E+01  0.13655422187E+02  0.17210331901E+02  0.51100000000E-03 0. -1.
        -11    1    3    3    0    0 -0.99348832629E+01 -0.35866171170E+01 -0.13354968963E+02  0.17027064458E+02  0.51100000000E-03 0.  1.
        -12    1    3    3    0    0  0.77313074444E+01 -0.15844026905E+02  0.17816439137E+02  0.25064552796E+02  0.00000000000E+00 0.  1.
</event>
<event>
 7    1  0.1113211E-011  0.5930194E+02  0.7816164E-02  0.1266605E+00
        -11   -1    0    0    0    0  0.00000000000E+00  0.00000000000E+00  0.45593999997E+02  0.45594000000E+02  0.51100000000E-03 0.  1.
         11   -1    0    0    0    0 -0.00000000000E+00 -0.00000000000E+00 -0.45593999997E+02  0.45594000000E+02  0.51100000000E-03 0. -1.
    9900012    2    1    2    0    0  0.25347839949E+02  0.19264083052E+02  0.17615289485E+01  0.59301939250E+02  0.49999991287E+02 0.  0.
        -12    1    1    2    0    0 -0.25347839949E+02 -0.19264083052E+02 -0.17615289485E+01  0.31886060750E+02  0.00000000000E+00 0.  1.
         11    1    3    3    0    0  0.18663720797E+02  0.22182826820E+02 -0.15365647245E+02  0.32810294043E+02  0.51100000000E-03 0. -1.
        -11    1    3    3    0    0  0.12259488789E+02  0.87833560531E+00  0.15054947840E+02  0.19434968318E+02  0.51100000000E-03 0.  1.
         12    1    3    3    0    0 -0.55753696374E+01 -0.37970793733E+01  0.20722283534E+01  0.70566768886E+01  0.00000000000E+00 0. -1.
</event>
<event>
 7    1  0.1113211E-011  0.5930195E+02  0.7816164E-02  0.1266605E+00
        -11   -1    0    0    0    0  0.00000000000E+00  0.00000000000E+00  0.45593999997E+02  0.45594000000E+02  0.51100000000E-03 0.  1.
         11   -1    0    0    0    0 -0.00000000000E+00 -0.00000000000E+00 -0.45593999997E+02  0.45594000000E+02  0.51100000000E-03 0. -1.
    9900012    2    1    2    0    0 -0.15112646949E+02  0.16648525769E+02  0.22608734469E+02  0.59301946899E+02  0.50000005237E+02 0.  0.
        -12    1    1    2    0    0  0.15112646949E+02 -0.16648525769E+02 -0.22608734469E+02  0.31886053101E+02  0.00000000000E+00 0.  1.
         11    1    3    3    0    0 -0.15151596569E+01  0.21577930032E+02  0.27433810507E+01  0.21804332439E+02  0.51100000000E-03 0. -1.
        -11    1    3    3    0    0  0.29254275317E+01 -0.13052777099E+02  0.77980814030E+01  0.15483642661E+02  0.51100000000E-03 0.  1.
        -12    1    3    3    0    0 -0.16522914823E+02  0.81233728353E+01  0.12067272015E+02  0.22013971799E+02  0.00000000000E+00 0.  1.
</event>
<event>
 7    1  0.1113211E-011  0.5930193E+02  0.7816164E-02  0.1266605E+00
        -11   -1    0    0    0    0  0.00000000000E+00  0.00000000000E+00  0.45593999997E+02  0.45594000000E+02  0.51100000000E-03 0.  1.
         11   -1    0    0    0    0 -0.00000000000E+00 -0.00000000000E+00 -0.45593999997E+02  0.45594000000E+02  0.51100000000E-03 0. -1.
    9900012    2    1    2    0    0 -0.97125575701E+01 -0.27402727555E+02 -0.13094958562E+02  0.59301934208E+02  0.49999982090E+02 0.  0.
        -12    1    1    2    0    0  0.97125575701E+01  0.27402727555E+02  0.13094958562E+02  0.31886065792E+02  0.00000000000E+00 0.  1.
         11    1    3    3    0    0  0.11281176829E+02 -0.27296712886E+02 -0.92620463708E+01  0.30954175619E+02  0.51100000000E-03 0. -1.
        -11    1    3    3    0    0 -0.34637290329E+01  0.80361875330E+01 -0.88307493758E+00  0.87953141209E+01  0.51100000000E-03 0.  1.
         12    1    3    3    0    0 -0.17530005366E+02 -0.81422022019E+01 -0.29498372532E+01  0.19552444468E+02  0.00000000000E+00 0. -1.
</event>
<event>
 7    1  0.1113211E-011  0.5930173E+02  0.7816164E-02  0.1266606E+00
        -11   -1    0    0    0    0  0.00000000000E+00  0.00000000000E+00  0.45593999997E+02  0.45594000000E+02  0.51100000000E-03 0. -1.
         11   -1    0    0    0    0 -0.00000000000E+00 -0.00000000000E+00 -0.45593999997E+02  0.45594000000E+02  0.51100000000E-03 0.  1.
    9900012    2    1    2    0    0  0.14427950143E+02  0.46912999156E+01  0.28045683241E+02  0.59301727269E+02  0.49999604683E+02 0.  0.
        -12    1    1    2    0    0 -0.14427950143E+02 -0.46912999156E+01 -0.28045683241E+02  0.31886272731E+02  0.00000000000E+00 0.  1.
         11    1    3    3    0    0  0.86219157526E+01  0.14944219209E+01  0.42005270022E+02  0.42907032501E+02  0.51100000000E-03 0. -1.
        -11    1    3    3    0    0 -0.83028576304E+00  0.20475689629E-01 -0.35607261929E+01  0.36563048264E+01  0.51100000000E-03 0.  1.
         12    1    3    3    0    0  0.66363201531E+01  0.31764023050E+01 -0.10398860589E+02  0.12738389942E+02  0.00000000000E+00 0. -1.
</event>
<event>
 7    1  0.1113211E-011  0.5930195E+02  0.7816164E-02  0.1266605E+00
        -11   -1    0    0    0    0  0.00000000000E+00  0.00000000000E+00  0.45593999997E+02  0.45594000000E+02  0.51100000000E-03 0.  1.
         11   -1    0    0    0    0 -0.00000000000E+00 -0.00000000000E+00 -0.45593999997E+02  0.45594000000E+02  0.51100000000E-03 0. -1.
    9900012    2    1    2    0    0  0.21637311910E+02  0.20625116771E+02  0.11097360627E+02  0.59301950991E+02  0.50000012700E+02 0.  0.
        -12    1    1    2    0    0 -0.21637311910E+02 -0.20625116771E+02 -0.11097360627E+02  0.31886049009E+02  0.00000000000E+00 0.  1.
         11    1    3    3    0    0  0.14063990991E+02  0.21815925785E+02  0.23246528363E+02  0.34844390390E+02  0.51100000000E-03 0. -1.
        -11    1    3    3    0    0 -0.44444481889E+01 -0.65201775265E+01 -0.30050896289E+01  0.84437194778E+01  0.51100000000E-03 0.  1.
         12    1    3    3    0    0  0.12017769108E+02  0.53293685122E+01 -0.91440781077E+01  0.16013841123E+02  0.00000000000E+00 0. -1.
</event>
<event>
 7    1  0.1113211E-011  0.5930198E+02  0.7816164E-02  0.1266605E+00
        -11   -1    0    0    0    0  0.00000000000E+00  0.00000000000E+00  0.45593999997E+02  0.45594000000E+02  0.51100000000E-03 0.  1.
         11   -1    0    0    0    0 -0.00000000000E+00 -0.00000000000E+00 -0.45593999997E+02  0.45594000000E+02  0.51100000000E-03 0. -1.
    9900012    2    1    2    0    0 -0.28010546159E+02 -0.11103142920E+02 -0.10433028415E+02  0.59301975463E+02  0.50000057331E+02 0.  0.
        -12    1    1    2    0    0  0.28010546159E+02  0.11103142920E+02  0.10433028415E+02  0.31886024537E+02  0.00000000000E+00 0.  1.
         11    1    3    3    0    0 -0.16766577067E+02  0.14397122678E+02  0.40601688415E+00  0.22103395620E+02  0.51100000000E-03 0. -1.
        -11    1    3    3    0    0 -0.30028053046E+01 -0.10271625330E+02  0.66405329457E+01  0.12594435465E+02  0.51100000000E-03 0.  1.
         12    1    3    3    0    0 -0.82411637877E+01 -0.15228640268E+02 -0.17479578245E+02  0.24604144378E+02  0.00000000000E+00 0. -1.
</event>
<event>
 7    1  0.1113211E-011  0.5930194E+02  0.7816164E-02  0.1266605E+00
        -11   -1    0    0    0    0  0.00000000000E+00  0.00000000000E+00  0.45593999997E+02  0.45594000000E+02  0.51100000000E-03 0. -1.
         11   -1    0    0    0    0 -0.00000000000E+00 -0.00000000000E+00 -0.45593999997E+02  0.45594000000E+02  0.51100000000E-03 0.  1.
    9900012    2    1    2    0    0 -0.41819489273E+01  0.28429179657E+02  0.13820776421E+02  0.59301940135E+02  0.49999992901E+02 0.  0.
        -12    1    1    2    0    0  0.41819489273E+01 -0.28429179657E+02 -0.13820776421E+02  0.31886059865E+02  0.00000000000E+00 0.  1.
         11    1    3    3    0    0  0.74494646403E+01  0.28617618562E+02  0.24458025237E+01  0.29672286158E+02  0.51100000000E-03 0. -1.
        -11    1    3    3    0    0 -0.34811150756E+01 -0.11269149179E+02  0.10591222398E+02  0.15851999165E+02  0.51100000000E-03 0.  1.
        -12    1    3    3    0    0 -0.81502984920E+01  0.11080710274E+02  0.78375149937E+00  0.13777654811E+02  0.00000000000E+00 0.  1.
</event>
<event>
 7    1  0.1113211E-011  0.5930202E+02  0.7816164E-02  0.1266604E+00
        -11   -1    0    0    0    0  0.00000000000E+00  0.00000000000E+00  0.45593999997E+02  0.45594000000E+02  0.51100000000E-03 0.  1.
         11   -1    0    0    0    0 -0.00000000000E+00 -0.00000000000E+00 -0.45593999997E+02  0.45594000000E+02  0.51100000000E-03 0. -1.
    9900012    2    1    2    0    0 -0.28052140826E+02 -0.12524221505E+02 -0.85403115800E+01  0.59302021089E+02  0.50000140541E+02 0.  0.
        -12    1    1    2    0    0  0.28052140826E+02  0.12524221505E+02  0.85403115800E+01  0.31885978911E+02  0.00000000000E+00 0.  1.
         11    1    3    3    0    0  0.28921868849E+01 -0.50668542095E+01  0.56373387970E+01  0.81127890106E+01  0.51100000000E-03 0.  1.
        -11    1    3    3    0    0 -0.86152339849E+01 -0.43222719678E+01 -0.24546639699E+02  0.26371230771E+02  0.51100000000E-03 0. -1.
         12    1    3    3    0    0 -0.22329093726E+02 -0.31350953280E+01  0.10368989323E+02  0.24818001307E+02  0.00000000000E+00 0. -1.
</event>
<event>
 7    1  0.1113211E-011  0.5930195E+02  0.7816164E-02  0.1266605E+00
        -11   -1    0    0    0    0  0.00000000000E+00  0.00000000000E+00  0.45593999997E+02  0.45594000000E+02  0.51100000000E-03 0. -1.
         11   -1    0    0    0    0 -0.00000000000E+00 -0.00000000000E+00 -0.45593999997E+02  0.45594000000E+02  0.51100000000E-03 0.  1.
    9900012    2    1    2    0    0 -0.11940255551E+02  0.28320320086E+02 -0.84917695689E+01  0.59301946892E+02  0.50000005223E+02 0.  0.
        -12    1    1    2    0    0  0.11940255551E+02 -0.28320320086E+02  0.84917695689E+01  0.31886053108E+02  0.00000000000E+00 0.  1.
         11    1    3    3    0    0 -0.56211228243E+01  0.17307198527E+02 -0.26346301257E+02  0.32019739737E+02  0.51100000000E-03 0.  1.
        -11    1    3    3    0    0 -0.11615857131E+02  0.52609570509E+01  0.12043369229E+02  0.17539913017E+02  0.51100000000E-03 0. -1.
        -12    1    3    3    0    0  0.52967244044E+01  0.57521645084E+01  0.58111624585E+01  0.97422941378E+01  0.00000000000E+00 0.  1.
</event>
<event>
 7    1  0.1113211E-011  0.5930194E+02  0.7816164E-02  0.1266605E+00
        -11   -1    0    0    0    0  0.00000000000E+00  0.00000000000E+00  0.45593999997E+02  0.45594000000E+02  0.51100000000E-03 0.  1.
         11   -1    0    0    0    0 -0.00000000000E+00 -0.00000000000E+00 -0.45593999997E+02  0.45594000000E+02  0.51100000000E-03 0. -1.
    9900012    2    1    2    0    0 -0.14965860023E+01  0.30864651964E+02 -0.78647357674E+01  0.59301943813E+02  0.49999999608E+02 0.  0.
        -12    1    1    2    0    0  0.14965860023E+01 -0.30864651964E+02  0.78647357674E+01  0.31886056187E+02  0.00000000000E+00 0.  1.
         11    1    3    3    0    0  0.95362062753E+01 -0.68879859611E+01 -0.26437468564E+01  0.12057071719E+02  0.51100000000E-03 0.  1.
        -11    1    3    3    0    0 -0.13385527095E+02  0.29160894223E+02 -0.13753451647E+02  0.34909705240E+02  0.51100000000E-03 0. -1.
         12    1    3    3    0    0  0.23527348176E+01  0.85917437020E+01  0.85324627364E+01  0.12335166854E+02  0.00000000000E+00 0. -1.
</event>
<event>
 7    1  0.1113211E-011  0.5930194E+02  0.7816164E-02  0.1266605E+00
        -11   -1    0    0    0    0  0.00000000000E+00  0.00000000000E+00  0.45593999997E+02  0.45594000000E+02  0.51100000000E-03 0.  1.
         11   -1    0    0    0    0 -0.00000000000E+00 -0.00000000000E+00 -0.45593999997E+02  0.45594000000E+02  0.51100000000E-03 0. -1.
    9900012    2    1    2    0    0 -0.23269408761E+02  0.53763650934E+01 -0.21126996015E+02  0.59301942760E+02  0.49999997688E+02 0.  0.
        -12    1    1    2    0    0  0.23269408761E+02 -0.53763650934E+01  0.21126996015E+02  0.31886057240E+02  0.00000000000E+00 0.  1.
         11    1    3    3    0    0 -0.15292743782E+02  0.13196857832E+02 -0.11652681823E+02  0.23319735482E+02  0.51100000000E-03 0. -1.
        -11    1    3    3    0    0 -0.12181162780E+02 -0.18744171386E+02 -0.94690636914E+01  0.24277311529E+02  0.51100000000E-03 0.  1.
        -12    1    3    3    0    0  0.42044978008E+01  0.10923678647E+02 -0.52505001062E-02  0.11704895749E+02  0.00000000000E+00 0.  1.
</event>
<event>
 7    1  0.1113211E-011  0.5930203E+02  0.7816164E-02  0.1266604E+00
        -11   -1    0    0    0    0  0.00000000000E+00  0.00000000000E+00  0.45593999997E+02  0.45594000000E+02  0.51100000000E-03 0. -1.
         11   -1    0    0    0    0 -0.00000000000E+00 -0.00000000000E+00 -0.45593999997E+02  0.45594000000E+02  0.51100000000E-03 0.  1.
    9900012    2    1    2    0    0 -0.18574983271E+02 -0.65018451706E+00  0.25908725292E+02  0.59302034598E+02  0.50000165177E+02 0.  0.
        -12    1    1    2    0    0  0.18574983271E+02  0.65018451706E+00 -0.25908725292E+02  0.31885965402E+02  0.00000000000E+00 0.  1.
         11    1    3    3    0    0 -0.17426809692E+02  0.18890740697E+02  0.96729953209E+01  0.27461256688E+02  0.51100000000E-03 0. -1.
        -11    1    3    3    0    0 -0.42007685922E+01 -0.13540953033E+02 -0.93980390190E-01  0.14177894709E+02  0.51100000000E-03 0.  1.
        -12    1    3    3    0    0  0.30525950139E+01 -0.59999721806E+01  0.16329710361E+02  0.17662883200E+02  0.00000000000E+00 0.  1.
</event>
<event>
 7    1  0.1113211E-011  0.5930193E+02  0.7816164E-02  0.1266605E+00
        -11   -1    0    0    0    0  0.00000000000E+00  0.00000000000E+00  0.45593999997E+02  0.45594000000E+02  0.51100000000E-03 0.  1.
         11   -1    0    0    0    0 -0.00000000000E+00 -0.00000000000E+00 -0.45593999997E+02  0.45594000000E+02  0.51100000000E-03 0. -1.
    9900012    2    1    2    0    0 -0.24026266225E+02  0.20542710168E+02 -0.41781387042E+01  0.59301933250E+02  0.49999980344E+02 0.  0.
        -12    1    1    2    0    0  0.24026266225E+02 -0.20542710168E+02  0.41781387042E+01  0.31886066750E+02  0.00000000000E+00 0.  1.
         11    1    3    3    0    0 -0.30564105924E+02  0.19752247389E+02 -0.11184666334E+02  0.38071151927E+02  0.51100000000E-03 0. -1.
        -11    1    3    3    0    0  0.48021627761E+01 -0.83183473085E+01 -0.60454912897E-02  0.96049833983E+01  0.51100000000E-03 0.  1.
         12    1    3    3    0    0  0.17356769231E+01  0.91088100880E+01  0.70125731208E+01  0.11625797924E+02  0.00000000000E+00 0. -1.
</event>
<event>
 7    1  0.1113211E-011  0.5930192E+02  0.7816164E-02  0.1266605E+00
        -11   -1    0    0    0    0  0.00000000000E+00  0.00000000000E+00  0.45593999997E+02  0.45594000000E+02  0.51100000000E-03 0. -1.
         11   -1    0    0    0    0 -0.00000000000E+00 -0.00000000000E+00 -0.45593999997E+02  0.45594000000E+02  0.51100000000E-03 0.  1.
    9900012    2    1    2    0    0 -0.19405549361E+02  0.26083563952E+01 -0.25166306818E+02  0.59301923604E+02  0.49999962753E+02 0.  0.
        -12    1    1    2    0    0  0.19405549361E+02 -0.26083563952E+01  0.25166306818E+02  0.31886076396E+02  0.00000000000E+00 0.  1.
         11    1    3    3    0    0  0.10784726022E+02  0.42307272383E+01 -0.55105074182E+00  0.11597975061E+02  0.51100000000E-03 0.  1.
        -11    1    3    3    0    0 -0.15416864896E+02 -0.34410628519E+00 -0.28473925429E+02  0.32381515745E+02  0.51100000000E-03 0. -1.
         12    1    3    3    0    0 -0.14773410486E+02 -0.12782645580E+01  0.38586693531E+01  0.15322432798E+02  0.00000000000E+00 0. -1.
</event>
<event>
 7    1  0.1113211E-011  0.5930195E+02  0.7816164E-02  0.1266605E+00
        -11   -1    0    0    0    0  0.00000000000E+00  0.00000000000E+00  0.45593999997E+02  0.45594000000E+02  0.51100000000E-03 0.  1.
         11   -1    0    0    0    0 -0.00000000000E+00 -0.00000000000E+00 -0.45593999997E+02  0.45594000000E+02  0.51100000000E-03 0. -1.
    9900012    2    1    2    0    0  0.11551691076E+02 -0.12539417415E+02  0.26945156560E+02  0.59301952615E+02  0.50000015661E+02 0.  0.
        -12    1    1    2    0    0 -0.11551691076E+02  0.12539417415E+02 -0.26945156560E+02  0.31886047385E+02  0.00000000000E+00 0.  1.
         11    1    3    3    0    0  0.64798661966E+01  0.61964899284E+01 -0.27749231525E+01  0.93853797004E+01  0.51100000000E-03 0. -1.
        -11    1    3    3    0    0 -0.46248614944E+01 -0.25645388669E+02  0.12299654345E+02  0.28815912290E+02  0.51100000000E-03 0.  1.
        -12    1    3    3    0    0  0.96966863736E+01  0.69094813257E+01  0.17420425368E+02  0.21100660625E+02  0.00000000000E+00 0.  1.
</event>
<event>
 7    1  0.1113211E-011  0.5930196E+02  0.7816164E-02  0.1266605E+00
        -11   -1    0    0    0    0  0.00000000000E+00  0.00000000000E+00  0.45593999997E+02  0.45594000000E+02  0.51100000000E-03 0. -1.
         11   -1    0    0    0    0 -0.00000000000E+00 -0.00000000000E+00 -0.45593999997E+02  0.45594000000E+02  0.51100000000E-03 0.  1.
    9900012    2    1    2    0    0 -0.30830003552E+02  0.32875373371E+01 -0.74446341684E+01  0.59301959189E+02  0.50000027650E+02 0.  0.
        -12    1    1    2    0    0  0.30830003552E+02 -0.32875373371E+01  0.74446341684E+01  0.31886040811E+02  0.00000000000E+00 0.  1.
         11    1    3    3    0    0 -0.29750400680E+02  0.10116966777E+02 -0.17220430436E+02  0.35832702690E+02  0.51100000000E-03 0. -1.
        -11    1    3    3    0    0  0.93189497553E+01 -0.22849600428E+01  0.22589741813E+01  0.98573237520E+01  0.51100000000E-03 0.  1.
         12    1    3    3    0    0 -0.10398552627E+02 -0.45444693973E+01  0.75168220859E+01  0.13611932747E+02  0.00000000000E+00 0. -1.
</event>
<event>
 7    1  0.1113211E-011  0.5930196E+02  0.7816164E-02  0.1266605E+00
        -11   -1    0    0    0    0  0.00000000000E+00  0.00000000000E+00  0.45593999997E+02  0.45594000000E+02  0.51100000000E-03 0.  1.
         11   -1    0    0    0    0 -0.00000000000E+00 -0.00000000000E+00 -0.45593999997E+02  0.45594000000E+02  0.51100000000E-03 0. -1.
    9900012    2    1    2    0    0  0.21773973720E+01 -0.30732143589E+02 -0.82166962770E+01  0.59301955927E+02  0.50000021702E+02 0.  0.
        -12    1    1    2    0    0 -0.21773973720E+01  0.30732143589E+02  0.82166962770E+01  0.31886044073E+02  0.00000000000E+00 0.  1.
         11    1    3    3    0    0 -0.18211860360E+02 -0.21061681424E+02 -0.17372336474E+02  0.32818658671E+02  0.51100000000E-03 0. -1.
        -11    1    3    3    0    0  0.95118694717E+01 -0.77492828988E+01  0.93663700501E+01  0.15435541276E+02  0.51100000000E-03 0.  1.
         12    1    3    3    0    0  0.10877388260E+02 -0.19211792664E+01 -0.21072985291E+00  0.11047755980E+02  0.00000000000E+00 0. -1.
</event>
<event>
 7    1  0.1113211E-011  0.5930190E+02  0.7816164E-02  0.1266605E+00
        -11   -1    0    0    0    0  0.00000000000E+00  0.00000000000E+00  0.45593999997E+02  0.45594000000E+02  0.51100000000E-03 0. -1.
         11   -1    0    0    0    0 -0.00000000000E+00 -0.00000000000E+00 -0.45593999997E+02  0.45594000000E+02  0.51100000000E-03 0.  1.
    9900012    2    1    2    0    0  0.13626152196E+02  0.27038305347E+02  0.99990836847E+01  0.59301895593E+02  0.49999911667E+02 0.  0.
        -12    1    1    2    0    0 -0.13626152196E+02 -0.27038305347E+02 -0.99990836847E+01  0.31886104407E+02  0.00000000000E+00 0.  1.
         11    1    3    3    0    0 -0.23326313809E+01  0.13893760944E+02 -0.29036061592E+01  0.14384321024E+02  0.51100000000E-03 0. -1.
        -11    1    3    3    0    0  0.27083224733E+02  0.11305404933E+02  0.15723319250E+02  0.33294684427E+02  0.51100000000E-03 0.  1.
        -12    1    3    3    0    0 -0.11124441155E+02  0.18391394693E+01 -0.28206294063E+01  0.11622890142E+02  0.00000000000E+00 0.  1.
</event>
<event>
 7    1  0.1113211E-011  0.5930195E+02  0.7816164E-02  0.1266605E+00
        -11   -1    0    0    0    0  0.00000000000E+00  0.00000000000E+00  0.45593999997E+02  0.45594000000E+02  0.51100000000E-03 0. -1.
         11   -1    0    0    0    0 -0.00000000000E+00 -0.00000000000E+00 -0.45593999997E+02  0.45594000000E+02  0.51100000000E-03 0.  1.
    9900012    2    1    2    0    0  0.84717070499E-01  0.30872189574E+02  0.79762625835E+01  0.59301952410E+02  0.50000015288E+02 0.  0.
        -12    1    1    2    0    0 -0.84717070499E-01 -0.30872189574E+02 -0.79762625835E+01  0.31886047590E+02  0.00000000000E+00 0.  1.
         11    1    3    3    0    0 -0.69020698171E+01  0.20219352757E+02 -0.19267008387E+01  0.21451642595E+02  0.51100000000E-03 0. -1.
        -11    1    3    3    0    0  0.15206064032E+02  0.43665817673E+00 -0.67602345176E+01  0.16646796229E+02  0.51100000000E-03 0.  1.
        -12    1    3    3    0    0 -0.82192771441E+01  0.10216178641E+02  0.16663197940E+02  0.21203513586E+02  0.00000000000E+00 0.  1.
</event>
<event>
 7    1  0.1113211E-011  0.5930193E+02  0.7816164E-02  0.1266605E+00
        -11   -1    0    0    0    0  0.00000000000E+00  0.00000000000E+00  0.45593999997E+02  0.45594000000E+02  0.51100000000E-03 0.  1.
         11   -1    0    0    0    0 -0.00000000000E+00 -0.00000000000E+00 -0.45593999997E+02  0.45594000000E+02  0.51100000000E-03 0. -1.
    9900012    2    1    2    0    0 -0.31172512558E+01  0.10816849561E+02 -0.29832866685E+02  0.59301930558E+02  0.49999975435E+02 0.  0.
        -12    1    1    2    0    0  0.31172512558E+01 -0.10816849561E+02  0.29832866685E+02  0.31886069442E+02  0.00000000000E+00 0.  1.
         11    1    3    3    0    0  0.58443376686E+01  0.34710729369E+01 -0.29996942448E+02  0.30757457414E+02  0.51100000000E-03 0. -1.
        -11    1    3    3    0    0  0.31455609508E+01 -0.24831009149E+01  0.95405711735E+01  0.10348083998E+02  0.51100000000E-03 0.  1.
        -12    1    3    3    0    0 -0.12107149875E+02  0.98288775390E+01 -0.93764954101E+01  0.18196389146E+02  0.00000000000E+00 0.  1.
</event>
<event>
 7    1  0.1113211E-011  0.5930194E+02  0.7816164E-02  0.1266605E+00
        -11   -1    0    0    0    0  0.00000000000E+00  0.00000000000E+00  0.45593999997E+02  0.45594000000E+02  0.51100000000E-03 0.  1.
         11   -1    0    0    0    0 -0.00000000000E+00 -0.00000000000E+00 -0.45593999997E+02  0.45594000000E+02  0.51100000000E-03 0. -1.
    9900012    2    1    2    0    0 -0.14543750959E+02 -0.24606111346E+02 -0.14132908444E+02  0.59301944919E+02  0.50000001626E+02 0.  0.
        -12    1    1    2    0    0  0.14543750959E+02  0.24606111346E+02  0.14132908444E+02  0.31886055081E+02  0.00000000000E+00 0.  1.
         11    1    3    3    0    0 -0.76174582655E+01 -0.10222132257E+02 -0.31363663631E+02  0.33855532117E+02  0.51100000000E-03 0. -1.
        -11    1    3    3    0    0 -0.18203405276E+01 -0.11723179967E+02  0.15327297513E+02  0.19382276376E+02  0.51100000000E-03 0.  1.
         12    1    3    3    0    0 -0.51059521657E+01 -0.26607991216E+01  0.19034576736E+01  0.60641364265E+01  0.00000000000E+00 0. -1.
</event>
<event>
 7    1  0.1113211E-011  0.5930201E+02  0.7816164E-02  0.1266605E+00
        -11   -1    0    0    0    0  0.00000000000E+00  0.00000000000E+00  0.45593999997E+02  0.45594000000E+02  0.51100000000E-03 0.  1.
         11   -1    0    0    0    0 -0.00000000000E+00 -0.00000000000E+00 -0.45593999997E+02  0.45594000000E+02  0.51100000000E-03 0. -1.
    9900012    2    1    2    0    0  0.46770051227E+01 -0.17139841350E+02 -0.26477687035E+02  0.59302008575E+02  0.50000117718E+02 0.  0.
        -12    1    1    2    0    0 -0.46770051227E+01  0.17139841350E+02  0.26477687035E+02  0.31885991425E+02  0.00000000000E+00 0.  1.
         11    1    3    3    0    0  0.85551496999E+01 -0.25934744260E+01 -0.27812976575E+02  0.29214351990E+02  0.51100000000E-03 0. -1.
        -11    1    3    3    0    0  0.30643651769E+01 -0.16362752227E+02  0.95403298222E+01  0.19187180297E+02  0.51100000000E-03 0.  1.
         12    1    3    3    0    0 -0.69425097542E+01  0.18163853030E+01 -0.82050402830E+01  0.10900476288E+02  0.00000000000E+00 0. -1.
</event>
<event>
 7    1  0.1113211E-011  0.5930194E+02  0.7816164E-02  0.1266605E+00
        -11   -1    0    0    0    0  0.00000000000E+00  0.00000000000E+00  0.45593999997E+02  0.45594000000E+02  0.51100000000E-03 0.  1.
         11   -1    0    0    0    0 -0.00000000000E+00 -0.00000000000E+00 -0.45593999997E+02  0.45594000000E+02  0.51100000000E-03 0. -1.
    9900012    2    1    2    0    0 -0.21597102137E+02 -0.17268165803E+02 -0.15877542984E+02  0.59301941258E+02  0.49999994948E+02 0.  0.
        -12    1    1    2    0    0  0.21597102137E+02  0.17268165803E+02  0.15877542984E+02  0.31886058742E+02  0.00000000000E+00 0.  1.
         11    1    3    3    0    0 -0.10592260584E+02 -0.16218871670E+02 -0.10376798374E+02  0.21975571148E+02  0.51100000000E-03 0. -1.
        -11    1    3    3    0    0 -0.13943501242E+02  0.16383372112E+01  0.12556401465E+02  0.18835301796E+02  0.51100000000E-03 0.  1.
        -12    1    3    3    0    0  0.29386596894E+01 -0.26876313437E+01 -0.18057146076E+02  0.18491068314E+02  0.00000000000E+00 0.  1.
</event>
<event>
 7    1  0.1113211E-011  0.5930195E+02  0.7816164E-02  0.1266605E+00
        -11   -1    0    0    0    0  0.00000000000E+00  0.00000000000E+00  0.45593999997E+02  0.45594000000E+02  0.51100000000E-03 0.  1.
         11   -1    0    0    0    0 -0.00000000000E+00 -0.00000000000E+00 -0.45593999997E+02  0.45594000000E+02  0.51100000000E-03 0. -1.
    9900012    2    1    2    0    0 -0.13499341835E+02 -0.72187613207E+01 -0.27971007631E+02  0.59301952693E+02  0.50000015803E+02 0.  0.
        -12    1    1    2    0    0  0.13499341835E+02  0.72187613207E+01  0.27971007631E+02  0.31886047307E+02  0.00000000000E+00 0.  1.
         11    1    3    3    0    0 -0.20517640558E+02 -0.94940909936E+01 -0.60042723282E+01  0.23391507526E+02  0.51100000000E-03 0. -1.
        -11    1    3    3    0    0  0.17179733309E+02 -0.41494437307E+00 -0.17381340591E+02  0.24442307919E+02  0.51100000000E-03 0.  1.
        -12    1    3    3    0    0 -0.10161434586E+02  0.26902740459E+01 -0.45853947111E+01  0.11468137248E+02  0.00000000000E+00 0.  1.
</event>
<event>
 7    1  0.1113211E-011  0.5930195E+02  0.7816164E-02  0.1266605E+00
        -11   -1    0    0    0    0  0.00000000000E+00  0.00000000000E+00  0.45593999997E+02  0.45594000000E+02  0.51100000000E-03 0. -1.
         11   -1    0    0    0    0 -0.00000000000E+00 -0.00000000000E+00 -0.45593999997E+02  0.45594000000E+02  0.51100000000E-03 0.  1.
    9900012    2    1    2    0    0  0.90410414995E+00 -0.13267374336E+02  0.28980680444E+02  0.59301945602E+02  0.50000002871E+02 0.  0.
        -12    1    1    2    0    0 -0.90410414995E+00  0.13267374336E+02 -0.28980680444E+02  0.31886054398E+02  0.00000000000E+00 0.  1.
         11    1    3    3    0    0 -0.84172732843E+01 -0.16277256095E+02  0.26389006019E+02  0.32127545727E+02  0.51100000000E-03 0. -1.
        -11    1    3    3    0    0  0.12226785871E+02 -0.49365391120E+01  0.94998542026E+01  0.16251490432E+02  0.51100000000E-03 0.  1.
         12    1    3    3    0    0 -0.29054084366E+01  0.79464208711E+01 -0.69081797781E+01  0.10922909443E+02  0.00000000000E+00 0. -1.
</event>
<event>
 7    1  0.1113211E-011  0.5930197E+02  0.7816164E-02  0.1266605E+00
        -11   -1    0    0    0    0  0.00000000000E+00  0.00000000000E+00  0.45593999997E+02  0.45594000000E+02  0.51100000000E-03 0.  1.
         11   -1    0    0    0    0 -0.00000000000E+00 -0.00000000000E+00 -0.45593999997E+02  0.45594000000E+02  0.51100000000E-03 0. -1.
    9900012    2    1    2    0    0  0.24911985159E+02  0.62567524915E+01 -0.18893518996E+02  0.59301968319E+02  0.50000044301E+02 0.  0.
        -12    1    1    2    0    0 -0.24911985159E+02 -0.62567524915E+01  0.18893518996E+02  0.31886031681E+02  0.00000000000E+00 0.  1.
         11    1    3    3    0    0 -0.39858351980E+01 -0.83632626428E+01  0.51097012956E+01  0.10580174472E+02  0.51100000000E-03 0. -1.
        -11    1    3    3    0    0  0.26264256958E+02  0.22113954139E+02 -0.20892203132E+02  0.40191072556E+02  0.51100000000E-03 0.  1.
         12    1    3    3    0    0  0.26335633992E+01 -0.74939390047E+01 -0.31110171597E+01  0.85307212914E+01  0.00000000000E+00 0. -1.
</event>
<event>
 7    1  0.1113211E-011  0.5930192E+02  0.7816164E-02  0.1266605E+00
        -11   -1    0    0    0    0  0.00000000000E+00  0.00000000000E+00  0.45593999997E+02  0.45594000000E+02  0.51100000000E-03 0.  1.
         11   -1    0    0    0    0 -0.00000000000E+00 -0.00000000000E+00 -0.45593999997E+02  0.45594000000E+02  0.51100000000E-03 0. -1.
    9900012    2    1    2    0    0 -0.62690286081E+01 -0.31097453308E+02 -0.32202502152E+01  0.59301916305E+02  0.49999949441E+02 0.  0.
        -12    1    1    2    0    0  0.62690286081E+01  0.31097453308E+02  0.32202502152E+01  0.31886083695E+02  0.00000000000E+00 0.  1.
         11    1    3    3    0    0  0.36519307313E+01 -0.19971145364E+02 -0.40894525429E+01  0.20710066817E+02  0.51100000000E-03 0. -1.
        -11    1    3    3    0    0 -0.51541895249E+01  0.18791041952E+01  0.16687485723E+02  0.17566128835E+02  0.51100000000E-03 0.  1.
        -12    1    3    3    0    0 -0.47667698145E+01 -0.13005412140E+02 -0.15818283396E+02  0.21025720653E+02  0.00000000000E+00 0.  1.
</event>
<event>
 7    1  0.1113211E-011  0.5930191E+02  0.7816164E-02  0.1266605E+00
        -11   -1    0    0    0    0  0.00000000000E+00  0.00000000000E+00  0.45593999997E+02  0.45594000000E+02  0.51100000000E-03 0. -1.
         11   -1    0    0    0    0 -0.00000000000E+00 -0.00000000000E+00 -0.45593999997E+02  0.45594000000E+02  0.51100000000E-03 0.  1.
    9900012    2    1    2    0    0  0.75794072167E+01 -0.24130228620E+02  0.19416675363E+02  0.59301911667E+02  0.49999940982E+02 0.  0.
        -12    1    1    2    0    0 -0.75794072167E+01  0.24130228620E+02 -0.19416675363E+02  0.31886088333E+02  0.00000000000E+00 0.  1.
         11    1    3    3    0    0 -0.21254853790E+01 -0.14607958453E+02  0.11087591118E+02  0.18461982974E+02  0.51100000000E-03 0. -1.
        -11    1    3    3    0    0 -0.91141507161E+01  0.12930248183E+01 -0.91441992013E+01  0.12975208505E+02  0.51100000000E-03 0.  1.
        -12    1    3    3    0    0  0.18819043312E+02 -0.10815294986E+02  0.17473283446E+02  0.27864720188E+02  0.00000000000E+00 0.  1.
</event>
<event>
 7    1  0.1113211E-011  0.5930193E+02  0.7816164E-02  0.1266605E+00
        -11   -1    0    0    0    0  0.00000000000E+00  0.00000000000E+00  0.45593999997E+02  0.45594000000E+02  0.51100000000E-03 0.  1.
         11   -1    0    0    0    0 -0.00000000000E+00 -0.00000000000E+00 -0.45593999997E+02  0.45594000000E+02  0.51100000000E-03 0. -1.
    9900012    2    1    2    0    0  0.25365267933E+02 -0.92425889755E+01 -0.16967599326E+02  0.59301926313E+02  0.49999967693E+02 0.  0.
        -12    1    1    2    0    0 -0.25365267933E+02  0.92425889755E+01  0.16967599326E+02  0.31886073687E+02  0.00000000000E+00 0.  1.
         11    1    3    3    0    0 -0.98883376268E+01  0.10477192761E+02 -0.26599440331E+01  0.14650122583E+02  0.51100000000E-03 0. -1.
        -11    1    3    3    0    0  0.26215133280E+02 -0.17194722973E+02 -0.55952261507E+01  0.31846479663E+02  0.51100000000E-03 0.  1.
         12    1    3    3    0    0  0.90384722795E+01 -0.25250587630E+01 -0.87124291422E+01  0.12805324067E+02  0.00000000000E+00 0. -1.
</event>
<event>
 7    1  0.1113211E-011  0.5930199E+02  0.7816164E-02  0.1266605E+00
        -11   -1    0    0    0    0  0.00000000000E+00  0.00000000000E+00  0.45593999997E+02  0.45594000000E+02  0.51100000000E-03 0. -1.
         11   -1    0    0    0    0 -0.00000000000E+00 -0.00000000000E+00 -0.45593999997E+02  0.45594000000E+02  0.51100000000E-03 0.  1.
    9900012    2    1    2    0    0 -0.21488240263E+02 -0.75699104591E+01  0.22308507788E+02  0.59301991569E+02  0.50000086704E+02 0.  0.
        -12    1    1    2    0    0  0.21488240263E+02  0.75699104591E+01 -0.22308507788E+02  0.31886008431E+02  0.00000000000E+00 0.  1.
         11    1    3    3    0    0 -0.47709165000E+01 -0.10055695910E+02  0.21540814028E+02  0.24246346812E+02  0.51100000000E-03 0. -1.
        -11    1    3    3    0    0 -0.11562661359E+02  0.22513334782E+01 -0.14649319388E+02  0.18798037103E+02  0.51100000000E-03 0.  1.
        -12    1    3    3    0    0 -0.51546624032E+01  0.23445197294E+00  0.15417013148E+02  0.16257607653E+02  0.00000000000E+00 0.  1.
</event>
<event>
 7    1  0.1113211E-011  0.5930192E+02  0.7816164E-02  0.1266605E+00
        -11   -1    0    0    0    0  0.00000000000E+00  0.00000000000E+00  0.45593999997E+02  0.45594000000E+02  0.51100000000E-03 0.  1.
         11   -1    0    0    0    0 -0.00000000000E+00 -0.00000000000E+00 -0.45593999997E+02  0.45594000000E+02  0.51100000000E-03 0. -1.
    9900012    2    1    2    0    0  0.15392752315E+02 -0.29458121868E+01 -0.27768817926E+02  0.59301923379E+02  0.49999962341E+02 0.  0.
        -12    1    1    2    0    0 -0.15392752315E+02  0.29458121868E+01  0.27768817926E+02  0.31886076621E+02  0.00000000000E+00 0.  1.
         11    1    3    3    0    0  0.18769185028E+02 -0.82588707730E-01 -0.37720065348E+02  0.42131846122E+02  0.51100000000E-03 0. -1.
        -11    1    3    3    0    0 -0.56863130976E+01 -0.33458733460E+01 -0.34520393419E+00  0.66066777663E+01  0.51100000000E-03 0.  1.
         12    1    3    3    0    0  0.23098803842E+01  0.48264986693E+00  0.10296451356E+02  0.10563399491E+02  0.00000000000E+00 0. -1.
</event>
<event>
 7    1  0.1113211E-011  0.5930197E+02  0.7816164E-02  0.1266605E+00
        -11   -1    0    0    0    0  0.00000000000E+00  0.00000000000E+00  0.45593999997E+02  0.45594000000E+02  0.51100000000E-03 0.  1.
         11   -1    0    0    0    0 -0.00000000000E+00 -0.00000000000E+00 -0.45593999997E+02  0.45594000000E+02  0.51100000000E-03 0. -1.
    9900012    2    1    2    0    0  0.13708979013E+02  0.23803869583E+02 -0.16191315261E+02  0.59301968535E+02  0.50000044696E+02 0.  0.
        -12    1    1    2    0    0 -0.13708979013E+02 -0.23803869583E+02  0.16191315261E+02  0.31886031465E+02  0.00000000000E+00 0.  1.
         11    1    3    3    0    0  0.14782687834E+02  0.83382691913E+01 -0.23013495628E+02  0.28595027085E+02  0.51100000000E-03 0. -1.
        -11    1    3    3    0    0  0.81135078341E+01  0.14676857123E+02  0.11532189945E+02  0.20352654607E+02  0.51100000000E-03 0.  1.
        -12    1    3    3    0    0 -0.91872166553E+01  0.78874326893E+00 -0.47100095776E+01  0.10354286843E+02  0.00000000000E+00 0.  1.
</event>
<event>
 7    1  0.1113211E-011  0.5930203E+02  0.7816164E-02  0.1266604E+00
        -11   -1    0    0    0    0  0.00000000000E+00  0.00000000000E+00  0.45593999997E+02  0.45594000000E+02  0.51100000000E-03 0. -1.
         11   -1    0    0    0    0 -0.00000000000E+00 -0.00000000000E+00 -0.45593999997E+02  0.45594000000E+02  0.51100000000E-03 0.  1.
    9900012    2    1    2    0    0 -0.17741716953E+02 -0.75862376148E+01  0.25384952692E+02  0.59302025893E+02  0.50000149302E+02 0.  0.
        -12    1    1    2    0    0  0.17741716953E+02  0.75862376148E+01 -0.25384952692E+02  0.31885974107E+02  0.00000000000E+00 0.  1.
         11    1    3    3    0    0 -0.15699189482E+02  0.48303871106E-02 -0.98248546999E+01  0.18520052480E+02  0.51100000000E-03 0. -1.
        -11    1    3    3    0    0  0.19404946935E+01  0.58164442504E+01  0.14994834808E+02  0.16200049832E+02  0.51100000000E-03 0.  1.
         12    1    3    3    0    0 -0.39830221639E+01 -0.13407512252E+02  0.20214972584E+02  0.24581923581E+02  0.00000000000E+00 0. -1.
</event>
<event>
 7    1  0.1113211E-011  0.5930196E+02  0.7816164E-02  0.1266605E+00
        -11   -1    0    0    0    0  0.00000000000E+00  0.00000000000E+00  0.45593999997E+02  0.45594000000E+02  0.51100000000E-03 0.  1.
         11   -1    0    0    0    0 -0.00000000000E+00 -0.00000000000E+00 -0.45593999997E+02  0.45594000000E+02  0.51100000000E-03 0. -1.
    9900012    2    1    2    0    0 -0.21651959160E+02 -0.57290698173E+01 -0.22695591522E+02  0.59301961504E+02  0.50000031872E+02 0.  0.
        -12    1    1    2    0    0  0.21651959160E+02  0.57290698173E+01  0.22695591522E+02  0.31886038496E+02  0.00000000000E+00 0.  1.
         11    1    3    3    0    0  0.30170165918E+01  0.77143894334E+01 -0.43752970917E+01  0.93678929513E+01  0.51100000000E-03 0. -1.
        -11    1    3    3    0    0 -0.31770936990E+02 -0.69881067107E+01 -0.22409301618E+02  0.39501935040E+02  0.51100000000E-03 0.  1.
        -12    1    3    3    0    0  0.71019612383E+01 -0.64553525400E+01  0.40890071875E+01  0.10432133513E+02  0.00000000000E+00 0.  1.
</event>
<event>
 7    1  0.1113211E-011  0.5930194E+02  0.7816164E-02  0.1266605E+00
        -11   -1    0    0    0    0  0.00000000000E+00  0.00000000000E+00  0.45593999997E+02  0.45594000000E+02  0.51100000000E-03 0. -1.
         11   -1    0    0    0    0 -0.00000000000E+00 -0.00000000000E+00 -0.45593999997E+02  0.45594000000E+02  0.51100000000E-03 0.  1.
    9900012    2    1    2    0    0  0.23571322460E+02 -0.21415467280E+02  0.15784930696E+01  0.59301935305E+02  0.49999984093E+02 0.  0.
        -12    1    1    2    0    0 -0.23571322460E+02  0.21415467280E+02 -0.15784930696E+01  0.31886064695E+02  0.00000000000E+00 0.  1.
         11    1    3    3    0    0  0.23791167342E+02 -0.49515740777E+00 -0.15929262727E+02  0.28635751005E+02  0.51100000000E-03 0. -1.
        -11    1    3    3    0    0  0.36216837270E+01 -0.19986016046E+02  0.11126214618E+02  0.23159233200E+02  0.51100000000E-03 0.  1.
         12    1    3    3    0    0 -0.38415286087E+01 -0.93429382573E+00  0.63815411790E+01  0.75069511004E+01  0.00000000000E+00 0. -1.
</event>
<event>
 7    1  0.1113211E-011  0.5930195E+02  0.7816164E-02  0.1266605E+00
        -11   -1    0    0    0    0  0.00000000000E+00  0.00000000000E+00  0.45593999997E+02  0.45594000000E+02  0.51100000000E-03 0.  1.
         11   -1    0    0    0    0 -0.00000000000E+00 -0.00000000000E+00 -0.45593999997E+02  0.45594000000E+02  0.51100000000E-03 0. -1.
    9900012    2    1    2    0    0  0.65038855162E+00  0.30580973694E+02  0.90056204778E+01  0.59301950425E+02  0.50000011667E+02 0.  0.
        -12    1    1    2    0    0 -0.65038855162E+00 -0.30580973694E+02 -0.90056204778E+01  0.31886049575E+02  0.00000000000E+00 0.  1.
         11    1    3    3    0    0  0.11978985606E+02  0.55794873837E+00 -0.34457850423E+01  0.12477212740E+02  0.51100000000E-03 0. -1.
        -11    1    3    3    0    0 -0.47698933816E+01  0.15375510260E+02 -0.10204699523E+02  0.19060275214E+02  0.51100000000E-03 0.  1.
        -12    1    3    3    0    0 -0.65587036724E+01  0.14647514695E+02  0.22656105043E+02  0.27764462471E+02  0.00000000000E+00 0.  1.
</event>
<event>
 7    1  0.1113211E-011  0.5930198E+02  0.7816164E-02  0.1266605E+00
        -11   -1    0    0    0    0  0.00000000000E+00  0.00000000000E+00  0.45593999997E+02  0.45594000000E+02  0.51100000000E-03 0.  1.
         11   -1    0    0    0    0 -0.00000000000E+00 -0.00000000000E+00 -0.45593999997E+02  0.45594000000E+02  0.51100000000E-03 0. -1.
    9900012    2    1    2    0    0  0.22040369835E+01  0.50255300147E+01 -0.31410266615E+02  0.59301975165E+02  0.50000056788E+02 0.  0.
        -12    1    1    2    0    0 -0.22040369835E+01 -0.50255300147E+01  0.31410266615E+02  0.31886024835E+02  0.00000000000E+00 0.  1.
         11    1    3    3    0    0  0.18634087283E+02  0.12515983848E+02 -0.85941250164E+01  0.24036182010E+02  0.51100000000E-03 0. -1.
        -11    1    3    3    0    0 -0.13185374026E+02 -0.12570001154E+02 -0.92716356615E+01  0.20440700705E+02  0.51100000000E-03 0.  1.
         12    1    3    3    0    0 -0.32446762740E+01  0.50795473209E+01 -0.13544505937E+02  0.14825092451E+02  0.00000000000E+00 0. -1.
</event>
<event>
 7    1  0.1113211E-011  0.5930194E+02  0.7816164E-02  0.1266605E+00
        -11   -1    0    0    0    0  0.00000000000E+00  0.00000000000E+00  0.45593999997E+02  0.45594000000E+02  0.51100000000E-03 0.  1.
         11   -1    0    0    0    0 -0.00000000000E+00 -0.00000000000E+00 -0.45593999997E+02  0.45594000000E+02  0.51100000000E-03 0. -1.
    9900012    2    1    2    0    0 -0.29926619828E+02 -0.85333102742E+01 -0.69498887598E+01  0.59301938588E+02  0.49999990080E+02 0.  0.
        -12    1    1    2    0    0  0.29926619828E+02  0.85333102742E+01  0.69498887598E+01  0.31886061412E+02  0.00000000000E+00 0.  1.
         11    1    3    3    0    0 -0.35133465360E+02 -0.94647237355E+01 -0.15249979288E+02  0.39452544305E+02  0.51100000000E-03 0. -1.
        -11    1    3    3    0    0  0.17247170030E+01  0.57299549830E+01  0.11608431233E+02  0.13059965880E+02  0.51100000000E-03 0.  1.
         12    1    3    3    0    0  0.34821285282E+01 -0.47985415217E+01 -0.33083407047E+01  0.67894284031E+01  0.00000000000E+00 0. -1.
</event>
<event>
 7    1  0.1113211E-011  0.5930190E+02  0.7816164E-02  0.1266605E+00
        -11   -1    0    0    0    0  0.00000000000E+00  0.00000000000E+00  0.45593999997E+02  0.45594000000E+02  0.51100000000E-03 0. -1.
         11   -1    0    0    0    0 -0.00000000000E+00 -0.00000000000E+00 -0.45593999997E+02  0.45594000000E+02  0.51100000000E-03 0.  1.
    9900012    2    1    2    0    0 -0.82629992191E+01 -0.20087954344E+02  0.23343530465E+02  0.59301898319E+02  0.49999916638E+02 0.  0.
        -12    1    1    2    0    0  0.82629992191E+01  0.20087954344E+02 -0.23343530465E+02  0.31886101681E+02  0.00000000000E+00 0.  1.
         11    1    3    3    0    0 -0.21973475743E+02 -0.22337236548E+02  0.23007306463E+02  0.38873151708E+02  0.51100000000E-03 0. -1.
        -11    1    3    3    0    0 -0.10731796065E+01  0.40405397877E+01 -0.30275866686E+01  0.51617785250E+01  0.51100000000E-03 0.  1.
         12    1    3    3    0    0  0.14783656130E+02 -0.17912575841E+01  0.33638106708E+01  0.15266968086E+02  0.00000000000E+00 0. -1.
</event>
<event>
 7    1  0.1113211E-011  0.5930193E+02  0.7816164E-02  0.1266605E+00
        -11   -1    0    0    0    0  0.00000000000E+00  0.00000000000E+00  0.45593999997E+02  0.45594000000E+02  0.51100000000E-03 0.  1.
         11   -1    0    0    0    0 -0.00000000000E+00 -0.00000000000E+00 -0.45593999997E+02  0.45594000000E+02  0.51100000000E-03 0. -1.
    9900012    2    1    2    0    0  0.22939772615E+02  0.21221619516E+02 -0.63349007957E+01  0.59301932970E+02  0.49999979833E+02 0.  0.
        -12    1    1    2    0    0 -0.22939772615E+02 -0.21221619516E+02  0.63349007957E+01  0.31886067030E+02  0.00000000000E+00 0.  1.
         11    1    3    3    0    0  0.10821440464E+02  0.81091635750E+01 -0.10930405792E+02  0.17387808333E+02  0.51100000000E-03 0. -1.
        -11    1    3    3    0    0 -0.28460003836E+01  0.92842972238E+01  0.18652629381E+02  0.21028991327E+02  0.51100000000E-03 0.  1.
        -12    1    3    3    0    0  0.14964332535E+02  0.38281587176E+01 -0.14057124385E+02  0.20885133310E+02  0.00000000000E+00 0.  1.
</event>
<event>
 7    1  0.1113211E-011  0.5930196E+02  0.7816164E-02  0.1266605E+00
        -11   -1    0    0    0    0  0.00000000000E+00  0.00000000000E+00  0.45593999997E+02  0.45594000000E+02  0.51100000000E-03 0.  1.
         11   -1    0    0    0    0 -0.00000000000E+00 -0.00000000000E+00 -0.45593999997E+02  0.45594000000E+02  0.51100000000E-03 0. -1.
    9900012    2    1    2    0    0 -0.15585963780E+02  0.65163922451E+00 -0.27809576174E+02  0.59301961871E+02  0.50000032541E+02 0.  0.
        -12    1    1    2    0    0  0.15585963780E+02 -0.65163922451E+00  0.27809576174E+02  0.31886038129E+02  0.00000000000E+00 0.  1.
         11    1    3    3    0    0 -0.96648640302E+01  0.21147607419E+02 -0.21990332944E+02  0.32003212956E+02  0.51100000000E-03 0. -1.
        -11    1    3    3    0    0  0.37152394748E+01 -0.22587116480E+01  0.25481150945E+01  0.50396104472E+01  0.51100000000E-03 0.  1.
         12    1    3    3    0    0 -0.96363392241E+01 -0.18237256546E+02 -0.83673583239E+01  0.22259138467E+02  0.00000000000E+00 0. -1.
</event>
<event>
 7    1  0.1113211E-011  0.5930193E+02  0.7816164E-02  0.1266605E+00
        -11   -1    0    0    0    0  0.00000000000E+00  0.00000000000E+00  0.45593999997E+02  0.45594000000E+02  0.51100000000E-03 0.  1.
         11   -1    0    0    0    0 -0.00000000000E+00 -0.00000000000E+00 -0.45593999997E+02  0.45594000000E+02  0.51100000000E-03 0. -1.
    9900012    2    1    2    0    0 -0.84592478267E+01  0.18921584786E+02 -0.24230889061E+02  0.59301933619E+02  0.49999981016E+02 0.  0.
        -12    1    1    2    0    0  0.84592478267E+01 -0.18921584786E+02  0.24230889061E+02  0.31886066381E+02  0.00000000000E+00 0.  1.
         11    1    3    3    0    0  0.68947229471E+00  0.95968418875E+01 -0.29043672492E+02  0.30595909177E+02  0.51100000000E-03 0. -1.
        -11    1    3    3    0    0 -0.66089535032E+01 -0.69984499074E+01  0.71921265006E+01  0.12015958196E+02  0.51100000000E-03 0.  1.
        -12    1    3    3    0    0 -0.25397666182E+01  0.16323192806E+02 -0.23793430693E+01  0.16690066246E+02  0.00000000000E+00 0.  1.
</event>
<event>
 7    1  0.1113211E-011  0.5930195E+02  0.7816164E-02  0.1266605E+00
        -11   -1    0    0    0    0  0.00000000000E+00  0.00000000000E+00  0.45593999997E+02  0.45594000000E+02  0.51100000000E-03 0. -1.
         11   -1    0    0    0    0 -0.00000000000E+00 -0.00000000000E+00 -0.45593999997E+02  0.45594000000E+02  0.51100000000E-03 0.  1.
    9900012    2    1    2    0    0 -0.12765137768E+02 -0.57584419576E+01  0.28646321681E+02  0.59301950670E+02  0.50000012113E+02 0.  0.
        -12    1    1    2    0    0  0.12765137768E+02  0.57584419576E+01 -0.28646321681E+02  0.31886049330E+02  0.00000000000E+00 0.  1.
         11    1    3    3    0    0 -0.27474782735E+02 -0.19836955809E+00  0.31222588896E+02  0.41590300485E+02  0.51100000000E-03 0. -1.
        -11    1    3    3    0    0  0.76833671408E+01  0.11213566604E+01 -0.40313157739E+00  0.77752226148E+01  0.51100000000E-03 0.  1.
         12    1    3    3    0    0  0.70262778256E+01 -0.66814290599E+01 -0.21731356368E+01  0.99364275704E+01  0.00000000000E+00 0. -1.
</event>
<event>
 7    1  0.1113211E-011  0.5930188E+02  0.7816164E-02  0.1266605E+00
        -11   -1    0    0    0    0  0.00000000000E+00  0.00000000000E+00  0.45593999997E+02  0.45594000000E+02  0.51100000000E-03 0.  1.
         11   -1    0    0    0    0 -0.00000000000E+00 -0.00000000000E+00 -0.45593999997E+02  0.45594000000E+02  0.51100000000E-03 0. -1.
    9900012    2    1    2    0    0 -0.13452597216E+00  0.31856238865E+02  0.13736192725E+01  0.59301876344E+02  0.49999876562E+02 0.  0.
        -12    1    1    2    0    0  0.13452597216E+00 -0.31856238865E+02 -0.13736192725E+01  0.31886123656E+02  0.00000000000E+00 0.  1.
         11    1    3    3    0    0  0.92554411212E+01  0.28208290857E+02 -0.75202044516E+00  0.29697414003E+02  0.51100000000E-03 0. -1.
        -11    1    3    3    0    0 -0.14661973886E+02 -0.54252406334E+01  0.80179262666E+01  0.17569685712E+02  0.51100000000E-03 0.  1.
        -12    1    3    3    0    0  0.52720067923E+01  0.90731886415E+01 -0.58922865489E+01  0.12034776629E+02  0.00000000000E+00 0.  1.
</event>
<event>
 7    1  0.1113211E-011  0.5930204E+02  0.7816164E-02  0.1266604E+00
        -11   -1    0    0    0    0  0.00000000000E+00  0.00000000000E+00  0.45593999997E+02  0.45594000000E+02  0.51100000000E-03 0. -1.
         11   -1    0    0    0    0 -0.00000000000E+00 -0.00000000000E+00 -0.45593999997E+02  0.45594000000E+02  0.51100000000E-03 0.  1.
    9900012    2    1    2    0    0  0.11227807357E+02  0.28313295106E+02 -0.94344019382E+01  0.59302042625E+02  0.50000179817E+02 0.  0.
        -12    1    1    2    0    0 -0.11227807357E+02 -0.28313295106E+02  0.94344019382E+01  0.31885957375E+02  0.00000000000E+00 0.  1.
         11    1    3    3    0    0  0.18845974416E+02  0.23995585300E+02  0.68450128185E+01  0.31270002660E+02  0.51100000000E-03 0. -1.
        -11    1    3    3    0    0 -0.81155501489E+01  0.72789954018E+01 -0.20283262308E+02  0.23027302456E+02  0.51100000000E-03 0.  1.
        -12    1    3    3    0    0  0.49738308979E+00 -0.29612855966E+01  0.40038475511E+01  0.50047375091E+01  0.00000000000E+00 0.  1.
</event>
<event>
 7    1  0.1113211E-011  0.5930193E+02  0.7816164E-02  0.1266605E+00
        -11   -1    0    0    0    0  0.00000000000E+00  0.00000000000E+00  0.45593999997E+02  0.45594000000E+02  0.51100000000E-03 0.  1.
         11   -1    0    0    0    0 -0.00000000000E+00 -0.00000000000E+00 -0.45593999997E+02  0.45594000000E+02  0.51100000000E-03 0. -1.
    9900012    2    1    2    0    0 -0.29835529180E+02  0.87764815848E+01 -0.70381749766E+01  0.59301931922E+02  0.49999977922E+02 0.  0.
        -12    1    1    2    0    0  0.29835529180E+02 -0.87764815848E+01  0.70381749766E+01  0.31886068078E+02  0.00000000000E+00 0.  1.
         11    1    3    3    0    0 -0.21200420121E+02 -0.12406019545E+02  0.12957174164E+02  0.27771487120E+02  0.51100000000E-03 0. -1.
        -11    1    3    3    0    0 -0.41445963697E+01  0.16208861756E+02 -0.17919085877E+02  0.24515271106E+02  0.51100000000E-03 0.  1.
        -12    1    3    3    0    0 -0.44905126900E+01  0.49736393744E+01 -0.20762632644E+01  0.70151736963E+01  0.00000000000E+00 0.  1.
</event>
<event>
 7    1  0.1113211E-011  0.5930193E+02  0.7816164E-02  0.1266605E+00
        -11   -1    0    0    0    0  0.00000000000E+00  0.00000000000E+00  0.45593999997E+02  0.45594000000E+02  0.51100000000E-03 0. -1.
         11   -1    0    0    0    0 -0.00000000000E+00 -0.00000000000E+00 -0.45593999997E+02  0.45594000000E+02  0.51100000000E-03 0.  1.
    9900012    2    1    2    0    0  0.16364131807E+02  0.41158747124E+01  0.27055433621E+02  0.59301925879E+02  0.49999966900E+02 0.  0.
        -12    1    1    2    0    0 -0.16364131807E+02 -0.41158747124E+01 -0.27055433621E+02  0.31886074121E+02  0.00000000000E+00 0.  1.
         11    1    3    3    0    0  0.16667813685E+02 -0.19365091897E+02  0.19362958248E+02  0.32058492628E+02  0.51100000000E-03 0. -1.
        -11    1    3    3    0    0 -0.41950783272E+01  0.27062737277E+01  0.12304338011E+01  0.51416502468E+01  0.51100000000E-03 0.  1.
         12    1    3    3    0    0  0.38913964487E+01  0.20774692882E+02  0.64620415721E+01  0.22101783003E+02  0.00000000000E+00 0. -1.
</event>
<event>
 7    1  0.1223597E-011  0.5930197E+02  0.7816164E-02  0.1266605E+00
        -11   -1    0    0    0    0  0.00000000000E+00  0.00000000000E+00  0.45593999997E+02  0.45594000000E+02  0.51100000000E-03 0. -1.
         11   -1    0    0    0    0 -0.00000000000E+00 -0.00000000000E+00 -0.45593999997E+02  0.45594000000E+02  0.51100000000E-03 0.  1.
    9900012    2    1    2    0    0 -0.95682717826E+00 -0.86090339717E+01  0.30686937515E+02  0.59301966721E+02  0.50000041388E+02 0.  0.
        -12    1    1    2    0    0  0.95682717826E+00  0.86090339717E+01 -0.30686937515E+02  0.31886033279E+02  0.00000000000E+00 0.  1.
         11    1    3    3    0    0  0.97645207784E+00 -0.77507832719E+01  0.34551655802E+02  0.35423791707E+02  0.51100000000E-03 0. -1.
        -11    1    3    3    0    0 -0.28533972348E+01 -0.11486573425E+02 -0.55594191576E+01  0.13076329242E+02  0.51100000000E-03 0.  1.
         12    1    3    3    0    0  0.92011797870E+00  0.10628322725E+02  0.16947008708E+01  0.10801845772E+02  0.00000000000E+00 0. -1.
</event>
<event>
 7    1  0.1113211E-011  0.5930193E+02  0.7816164E-02  0.1266605E+00
        -11   -1    0    0    0    0  0.00000000000E+00  0.00000000000E+00  0.45593999997E+02  0.45594000000E+02  0.51100000000E-03 0. -1.
         11   -1    0    0    0    0 -0.00000000000E+00 -0.00000000000E+00 -0.45593999997E+02  0.45594000000E+02  0.51100000000E-03 0.  1.
    9900012    2    1    2    0    0  0.13769621397E+02 -0.26779998353E+02  0.10485748952E+02  0.59301925982E+02  0.49999967088E+02 0.  0.
        -12    1    1    2    0    0 -0.13769621397E+02  0.26779998353E+02 -0.10485748952E+02  0.31886074018E+02  0.00000000000E+00 0.  1.
         11    1    3    3    0    0 -0.10826303705E+02 -0.23035979971E+02  0.73837634439E+00  0.25463904355E+02  0.51100000000E-03 0. -1.
        -11    1    3    3    0    0  0.11452250040E+01  0.66421095820E+01  0.16016175609E+01  0.69277946766E+01  0.51100000000E-03 0.  1.
         12    1    3    3    0    0  0.23450700098E+02 -0.10386127965E+02  0.81457550472E+01  0.26910226950E+02  0.00000000000E+00 0. -1.
</event>
<event>
 7    1  0.1113211E-011  0.5930196E+02  0.7816164E-02  0.1266605E+00
        -11   -1    0    0    0    0  0.00000000000E+00  0.00000000000E+00  0.45593999997E+02  0.45594000000E+02  0.51100000000E-03 0.  1.
         11   -1    0    0    0    0 -0.00000000000E+00 -0.00000000000E+00 -0.45593999997E+02  0.45594000000E+02  0.51100000000E-03 0. -1.
    9900012    2    1    2    0    0 -0.26695009783E+02 -0.17405937052E+02  0.10625651037E+01  0.59301964866E+02  0.50000038003E+02 0.  0.
        -12    1    1    2    0    0  0.26695009783E+02  0.17405937052E+02 -0.10625651037E+01  0.31886035134E+02  0.00000000000E+00 0.  1.
         11    1    3    3    0    0 -0.87717355861E+01  0.15893207868E+02  0.12496098011E+01  0.18196123940E+02  0.51100000000E-03 0. -1.
        -11    1    3    3    0    0 -0.13028491146E+02 -0.20825056370E+02  0.74661631709E+01  0.25674270138E+02  0.51100000000E-03 0.  1.
         12    1    3    3    0    0 -0.48947830513E+01 -0.12474088550E+02 -0.76532078683E+01  0.15431570787E+02  0.00000000000E+00 0. -1.
</event>
<event>
 7    1  0.1113211E-011  0.5930194E+02  0.7816164E-02  0.1266605E+00
        -11   -1    0    0    0    0  0.00000000000E+00  0.00000000000E+00  0.45593999997E+02  0.45594000000E+02  0.51100000000E-03 0. -1.
         11   -1    0    0    0    0 -0.00000000000E+00 -0.00000000000E+00 -0.45593999997E+02  0.45594000000E+02  0.51100000000E-03 0.  1.
    9900012    2    1    2    0    0 -0.32985396678E+01 -0.16065375694E+02 -0.27344913828E+02  0.59301937647E+02  0.49999988364E+02 0.  0.
        -12    1    1    2    0    0  0.32985396678E+01  0.16065375694E+02  0.27344913828E+02  0.31886062353E+02  0.00000000000E+00 0.  1.
         11    1    3    3    0    0  0.93272893901E+01 -0.17779284928E+02 -0.32688632408E+02  0.38362064450E+02  0.51100000000E-03 0. -1.
        -11    1    3    3    0    0  0.35868225415E+01  0.66210926103E+00  0.25605713928E+01  0.44564796349E+01  0.51100000000E-03 0.  1.
         12    1    3    3    0    0 -0.16212651599E+02  0.10517999731E+01  0.27831471875E+01  0.16483393562E+02  0.00000000000E+00 0. -1.
</event>
<event>
 7    1  0.1113211E-011  0.5930190E+02  0.7816164E-02  0.1266605E+00
        -11   -1    0    0    0    0  0.00000000000E+00  0.00000000000E+00  0.45593999997E+02  0.45594000000E+02  0.51100000000E-03 0.  1.
         11   -1    0    0    0    0 -0.00000000000E+00 -0.00000000000E+00 -0.45593999997E+02  0.45594000000E+02  0.51100000000E-03 0. -1.
    9900012    2    1    2    0    0  0.29103470375E+02  0.15468665035E+01 -0.12935167373E+02  0.59301900540E+02  0.49999920688E+02 0.  0.
        -12    1    1    2    0    0 -0.29103470375E+02 -0.15468665035E+01  0.12935167373E+02  0.31886099460E+02  0.00000000000E+00 0.  1.
         11    1    3    3    0    0  0.20145912526E+01  0.14289302538E+02 -0.18289068001E+02  0.23296625368E+02  0.51100000000E-03 0. -1.
        -11    1    3    3    0    0  0.49906844239E+00 -0.81226766639E+01 -0.12176036461E+01  0.82285785162E+01  0.51100000000E-03 0.  1.
         12    1    3    3    0    0  0.26589810680E+02 -0.46197593709E+01  0.65715042744E+01  0.27776696655E+02  0.00000000000E+00 0. -1.
</event>
<event>
 7    1  0.1113211E-011  0.5930195E+02  0.7816164E-02  0.1266605E+00
        -11   -1    0    0    0    0  0.00000000000E+00  0.00000000000E+00  0.45593999997E+02  0.45594000000E+02  0.51100000000E-03 0.  1.
         11   -1    0    0    0    0 -0.00000000000E+00 -0.00000000000E+00 -0.45593999997E+02  0.45594000000E+02  0.51100000000E-03 0. -1.
    9900012    2    1    2    0    0  0.19178516680E+02  0.11647787446E+02 -0.22654668781E+02  0.59301945493E+02  0.50000002673E+02 0.  0.
        -12    1    1    2    0    0 -0.19178516680E+02 -0.11647787446E+02  0.22654668781E+02  0.31886054507E+02  0.00000000000E+00 0.  1.
         11    1    3    3    0    0  0.13514059478E+02  0.59046479494E+01 -0.18162836403E+02  0.23396224000E+02  0.51100000000E-03 0. -1.
        -11    1    3    3    0    0  0.16082557495E+01  0.13661456072E+02  0.11285509932E+02  0.17792824487E+02  0.51100000000E-03 0.  1.
        -12    1    3    3    0    0  0.40562014529E+01 -0.79183165751E+01 -0.15777342309E+02  0.18112897006E+02  0.00000000000E+00 0.  1.
</event>
<event>
 7    1  0.1113211E-011  0.5930191E+02  0.7816164E-02  0.1266605E+00
        -11   -1    0    0    0    0  0.00000000000E+00  0.00000000000E+00  0.45593999997E+02  0.45594000000E+02  0.51100000000E-03 0. -1.
         11   -1    0    0    0    0 -0.00000000000E+00 -0.00000000000E+00 -0.45593999997E+02  0.45594000000E+02  0.51100000000E-03 0.  1.
    9900012    2    1    2    0    0 -0.22663670788E+02 -0.16243778694E+01  0.22370561361E+02  0.59301912240E+02  0.49999942027E+02 0.  0.
        -12    1    1    2    0    0  0.22663670788E+02  0.16243778694E+01 -0.22370561361E+02  0.31886087760E+02  0.00000000000E+00 0.  1.
         11    1    3    3    0    0 -0.33547302286E+01  0.18239028199E+02  0.11417783446E+02  0.21778019737E+02  0.51100000000E-03 0. -1.
        -11    1    3    3    0    0 -0.15214494400E+02 -0.70133361979E+01 -0.41665827372E+01  0.17263491433E+02  0.51100000000E-03 0.  1.
         12    1    3    3    0    0 -0.40944461588E+01 -0.12850069871E+02  0.15119360652E+02  0.20260401071E+02  0.00000000000E+00 0. -1.
</event>
<event>
 7    1  0.1113211E-011  0.5930194E+02  0.7816164E-02  0.1266605E+00
        -11   -1    0    0    0    0  0.00000000000E+00  0.00000000000E+00  0.45593999997E+02  0.45594000000E+02  0.51100000000E-03 0.  1.
         11   -1    0    0    0    0 -0.00000000000E+00 -0.00000000000E+00 -0.45593999997E+02  0.45594000000E+02  0.51100000000E-03 0. -1.
    9900012    2    1    2    0    0  0.23656640065E+02  0.77027548402E+01 -0.19943713082E+02  0.59301941248E+02  0.49999994930E+02 0.  0.
        -12    1    1    2    0    0 -0.23656640065E+02 -0.77027548402E+01  0.19943713082E+02  0.31886058752E+02  0.00000000000E+00 0.  1.
         11    1    3    3    0    0  0.27196745608E+02  0.10413361679E+02 -0.19295204493E+01  0.29186026152E+02  0.51100000000E-03 0.  1.
        -11    1    3    3    0    0 -0.40494941583E+01 -0.11317352155E+02 -0.17816233565E+02  0.21491836623E+02  0.51100000000E-03 0. -1.
        -12    1    3    3    0    0  0.50938861470E+00  0.86067453162E+01 -0.19795906752E+00  0.86240784720E+01  0.00000000000E+00 0.  1.
</event>
<event>
 7    1  0.1113211E-011  0.5930193E+02  0.7816164E-02  0.1266605E+00
        -11   -1    0    0    0    0  0.00000000000E+00  0.00000000000E+00  0.45593999997E+02  0.45594000000E+02  0.51100000000E-03 0. -1.
         11   -1    0    0    0    0 -0.00000000000E+00 -0.00000000000E+00 -0.45593999997E+02  0.45594000000E+02  0.51100000000E-03 0.  1.
    9900012    2    1    2    0    0  0.51940640206E+00 -0.12954505490E+02  0.29131294143E+02  0.59301932605E+02  0.49999979167E+02 0.  0.
        -12    1    1    2    0    0 -0.51940640206E+00  0.12954505490E+02 -0.29131294143E+02  0.31886067395E+02  0.00000000000E+00 0.  1.
         11    1    3    3    0    0  0.11003934983E+02 -0.13047865575E+02  0.38226810392E+02  0.41864333438E+02  0.51100000000E-03 0. -1.
        -11    1    3    3    0    0 -0.25501403605E+00  0.39376325204E+01 -0.22432965925E+01  0.45389824726E+01  0.51100000000E-03 0.  1.
         12    1    3    3    0    0 -0.10229514545E+02 -0.38442724356E+01 -0.68522196570E+01  0.12898616694E+02  0.00000000000E+00 0. -1.
</event>
<event>
 7    1  0.1113211E-011  0.5930198E+02  0.7816164E-02  0.1266605E+00
        -11   -1    0    0    0    0  0.00000000000E+00  0.00000000000E+00  0.45593999997E+02  0.45594000000E+02  0.51100000000E-03 0.  1.
         11   -1    0    0    0    0 -0.00000000000E+00 -0.00000000000E+00 -0.45593999997E+02  0.45594000000E+02  0.51100000000E-03 0. -1.
    9900012    2    1    2    0    0  0.97316326999E+01  0.14613414671E+02 -0.26616946808E+02  0.59301977658E+02  0.50000061334E+02 0.  0.
        -12    1    1    2    0    0 -0.97316326999E+01 -0.14613414671E+02  0.26616946808E+02  0.31886022342E+02  0.00000000000E+00 0.  1.
         11    1    3    3    0    0 -0.15863247440E+00  0.14802886473E+02 -0.37795135623E+02  0.40590921266E+02  0.51100000000E-03 0. -1.
        -11    1    3    3    0    0  0.64957523330E+01 -0.39511214046E+01  0.14466005376E+01  0.77394322855E+01  0.51100000000E-03 0.  1.
         12    1    3    3    0    0  0.33945128413E+01  0.37616496025E+01  0.97315882767E+01  0.10971624107E+02  0.00000000000E+00 0. -1.
</event>
<event>
 7    1  0.1113211E-011  0.5930193E+02  0.7816164E-02  0.1266605E+00
        -11   -1    0    0    0    0  0.00000000000E+00  0.00000000000E+00  0.45593999997E+02  0.45594000000E+02  0.51100000000E-03 0. -1.
         11   -1    0    0    0    0 -0.00000000000E+00 -0.00000000000E+00 -0.45593999997E+02  0.45594000000E+02  0.51100000000E-03 0.  1.
    9900012    2    1    2    0    0  0.12767369658E+02  0.25688913538E+02  0.13921053727E+02  0.59301925553E+02  0.49999966307E+02 0.  0.
        -12    1    1    2    0    0 -0.12767369658E+02 -0.25688913538E+02 -0.13921053727E+02  0.31886074447E+02  0.00000000000E+00 0.  1.
         11    1    3    3    0    0  0.10053200927E+01  0.10051740932E+02  0.26102742848E+02  0.27989307757E+02  0.51100000000E-03 0. -1.
        -11    1    3    3    0    0  0.30291562794E+01  0.50587956149E+01 -0.16018113935E+02  0.17068894959E+02  0.51100000000E-03 0.  1.
        -12    1    3    3    0    0  0.87328932859E+01  0.10578376991E+02  0.38364248133E+01  0.14243722837E+02  0.00000000000E+00 0.  1.
</event>
<event>
 7    1  0.1113211E-011  0.5930196E+02  0.7816164E-02  0.1266605E+00
        -11   -1    0    0    0    0  0.00000000000E+00  0.00000000000E+00  0.45593999997E+02  0.45594000000E+02  0.51100000000E-03 0. -1.
         11   -1    0    0    0    0 -0.00000000000E+00 -0.00000000000E+00 -0.45593999997E+02  0.45594000000E+02  0.51100000000E-03 0.  1.
    9900012    2    1    2    0    0 -0.10826366749E+02 -0.17630063125E+02  0.24262937630E+02  0.59301960967E+02  0.50000030894E+02 0.  0.
        -12    1    1    2    0    0  0.10826366749E+02  0.17630063125E+02 -0.24262937630E+02  0.31886039033E+02  0.00000000000E+00 0.  1.
         11    1    3    3    0    0  0.21114617742E+01 -0.30433557023E+02  0.24034736078E+02  0.38837201270E+02  0.51100000000E-03 0. -1.
        -11    1    3    3    0    0 -0.83911761956E+01  0.33781305407E+01 -0.29725349814E+01  0.95215318291E+01  0.51100000000E-03 0.  1.
         12    1    3    3    0    0 -0.45466523273E+01  0.94253633579E+01  0.32007365335E+01  0.10943227868E+02  0.00000000000E+00 0. -1.
</event>
<event>
 7    1  0.1113211E-011  0.5930192E+02  0.7816164E-02  0.1266605E+00
        -11   -1    0    0    0    0  0.00000000000E+00  0.00000000000E+00  0.45593999997E+02  0.45594000000E+02  0.51100000000E-03 0. -1.
         11   -1    0    0    0    0 -0.00000000000E+00 -0.00000000000E+00 -0.45593999997E+02  0.45594000000E+02  0.51100000000E-03 0.  1.
    9900012    2    1    2    0    0 -0.54718244943E+01 -0.16822022689E+01  0.31367995118E+02  0.59301924896E+02  0.49999965109E+02 0.  0.
        -12    1    1    2    0    0  0.54718244943E+01  0.16822022689E+01 -0.31367995118E+02  0.31886075104E+02  0.00000000000E+00 0.  1.
         11    1    3    3    0    0 -0.14279194399E+02 -0.20228418363E+02  0.23788452635E+02  0.34336202195E+02  0.51100000000E-03 0.  1.
        -11    1    3    3    0    0  0.82207029639E+01  0.96979863693E+01  0.95267627271E+01  0.15886790272E+02  0.51100000000E-03 0. -1.
        -12    1    3    3    0    0  0.58666694132E+00  0.88482297249E+01 -0.19472202439E+01  0.90789324286E+01  0.00000000000E+00 0.  1.
</event>
<event>
 7    1  0.1113211E-011  0.5930192E+02  0.7816164E-02  0.1266605E+00
        -11   -1    0    0    0    0  0.00000000000E+00  0.00000000000E+00  0.45593999997E+02  0.45594000000E+02  0.51100000000E-03 0. -1.
         11   -1    0    0    0    0 -0.00000000000E+00 -0.00000000000E+00 -0.45593999997E+02  0.45594000000E+02  0.51100000000E-03 0.  1.
    9900012    2    1    2    0    0 -0.22732321453E+02  0.19241969784E+02  0.11389050276E+02  0.59301916735E+02  0.49999950225E+02 0.  0.
        -12    1    1    2    0    0  0.22732321453E+02 -0.19241969784E+02 -0.11389050276E+02  0.31886083265E+02  0.00000000000E+00 0.  1.
         11    1    3    3    0    0 -0.32440294651E+02 -0.25328455037E+01  0.39138653401E+01  0.32773561990E+02  0.51100000000E-03 0.  1.
        -11    1    3    3    0    0  0.32440262790E+01  0.15773990409E+02  0.73632866860E+01  0.17707638776E+02  0.51100000000E-03 0. -1.
        -12    1    3    3    0    0  0.64639469190E+01  0.60008248782E+01  0.11189825023E+00  0.88207159692E+01  0.00000000000E+00 0.  1.
</event>
<event>
 7    1  0.1113211E-011  0.5930197E+02  0.7816164E-02  0.1266605E+00
        -11   -1    0    0    0    0  0.00000000000E+00  0.00000000000E+00  0.45593999997E+02  0.45594000000E+02  0.51100000000E-03 0.  1.
         11   -1    0    0    0    0 -0.00000000000E+00 -0.00000000000E+00 -0.45593999997E+02  0.45594000000E+02  0.51100000000E-03 0. -1.
    9900012    2    1    2    0    0  0.76785312222E+01 -0.30256986398E+02 -0.65018467249E+01  0.59301967346E+02  0.50000042526E+02 0.  0.
        -12    1    1    2    0    0 -0.76785312222E+01  0.30256986398E+02  0.65018467249E+01  0.31886032654E+02  0.00000000000E+00 0.  1.
         11    1    3    3    0    0  0.82143393167E+01 -0.28451923578E+02 -0.19495263455E+02  0.35454937923E+02  0.51100000000E-03 0. -1.
        -11    1    3    3    0    0 -0.10930343457E+01 -0.69347672670E+01  0.16280111201E+02  0.17729290513E+02  0.51100000000E-03 0.  1.
        -12    1    3    3    0    0  0.55722625122E+00  0.51297044474E+01 -0.32866944708E+01  0.61177389089E+01  0.00000000000E+00 0.  1.
</event>
<event>
 7    1  0.1113211E-011  0.5930193E+02  0.7816164E-02  0.1266605E+00
        -11   -1    0    0    0    0  0.00000000000E+00  0.00000000000E+00  0.45593999997E+02  0.45594000000E+02  0.51100000000E-03 0. -1.
         11   -1    0    0    0    0 -0.00000000000E+00 -0.00000000000E+00 -0.45593999997E+02  0.45594000000E+02  0.51100000000E-03 0.  1.
    9900012    2    1    2    0    0  0.22735715846E+02  0.16225755877E+02 -0.15379643505E+02  0.59301931520E+02  0.49999977188E+02 0.  0.
        -12    1    1    2    0    0 -0.22735715846E+02 -0.16225755877E+02  0.15379643505E+02  0.31886068480E+02  0.00000000000E+00 0.  1.
         11    1    3    3    0    0  0.18965346699E+02 -0.66154692050E+01  0.41483148964E+01  0.20509932349E+02  0.51100000000E-03 0. -1.
        -11    1    3    3    0    0 -0.46472811784E+01  0.47080840908E+01 -0.17486900060E+02  0.18696388746E+02  0.51100000000E-03 0.  1.
        -12    1    3    3    0    0  0.84176503253E+01  0.18133140992E+02 -0.20410583413E+01  0.20095610426E+02  0.00000000000E+00 0.  1.
</event>
<event>
 7    1  0.1113211E-011  0.5930194E+02  0.7816164E-02  0.1266605E+00
        -11   -1    0    0    0    0  0.00000000000E+00  0.00000000000E+00  0.45593999997E+02  0.45594000000E+02  0.51100000000E-03 0.  1.
         11   -1    0    0    0    0 -0.00000000000E+00 -0.00000000000E+00 -0.45593999997E+02  0.45594000000E+02  0.51100000000E-03 0. -1.
    9900012    2    1    2    0    0 -0.86599559837E+01 -0.10864737766E+02 -0.28699887203E+02  0.59301938941E+02  0.49999990723E+02 0.  0.
        -12    1    1    2    0    0  0.86599559837E+01  0.10864737766E+02  0.28699887203E+02  0.31886061059E+02  0.00000000000E+00 0.  1.
         11    1    3    3    0    0 -0.36814818673E+01 -0.23684262494E+02 -0.52443443117E+01  0.24535703498E+02  0.51100000000E-03 0. -1.
        -11    1    3    3    0    0 -0.13455269216E+02  0.70055460128E+01 -0.11750198461E+02  0.19188254447E+02  0.51100000000E-03 0.  1.
         12    1    3    3    0    0  0.84767950995E+01  0.58139787149E+01 -0.11705344431E+02  0.15577980996E+02  0.00000000000E+00 0. -1.
</event>
<event>
 7    1  0.1113211E-011  0.5930194E+02  0.7816164E-02  0.1266605E+00
        -11   -1    0    0    0    0  0.00000000000E+00  0.00000000000E+00  0.45593999997E+02  0.45594000000E+02  0.51100000000E-03 0.  1.
         11   -1    0    0    0    0 -0.00000000000E+00 -0.00000000000E+00 -0.45593999997E+02  0.45594000000E+02  0.51100000000E-03 0. -1.
    9900012    2    1    2    0    0 -0.18858728315E+02  0.19350927698E+02 -0.16929587735E+02  0.59301937569E+02  0.49999988221E+02 0.  0.
        -12    1    1    2    0    0  0.18858728315E+02 -0.19350927698E+02  0.16929587735E+02  0.31886062431E+02  0.00000000000E+00 0.  1.
         11    1    3    3    0    0  0.13463711033E+02  0.11499500841E+02 -0.16412126649E+02  0.24142658009E+02  0.51100000000E-03 0. -1.
        -11    1    3    3    0    0 -0.18237616361E+02  0.69566708649E+01  0.47604067324E+01  0.20091475619E+02  0.51100000000E-03 0.  1.
         12    1    3    3    0    0 -0.14084822988E+02  0.89475599291E+00 -0.52778678185E+01  0.15067803940E+02  0.00000000000E+00 0. -1.
</event>
<event>
 7    1  0.1113211E-011  0.5930195E+02  0.7816164E-02  0.1266605E+00
        -11   -1    0    0    0    0  0.00000000000E+00  0.00000000000E+00  0.45593999997E+02  0.45594000000E+02  0.51100000000E-03 0. -1.
         11   -1    0    0    0    0 -0.00000000000E+00 -0.00000000000E+00 -0.45593999997E+02  0.45594000000E+02  0.51100000000E-03 0.  1.
    9900012    2    1    2    0    0 -0.30026383244E+02  0.71442049488E+01  0.80060374645E+01  0.59301953036E+02  0.50000016429E+02 0.  0.
        -12    1    1    2    0    0  0.30026383244E+02 -0.71442049488E+01 -0.80060374645E+01  0.31886046964E+02  0.00000000000E+00 0.  1.
         11    1    3    3    0    0 -0.27807997587E+02  0.16469765539E+02  0.38324865102E+01  0.32545750257E+02  0.51100000000E-03 0. -1.
        -11    1    3    3    0    0 -0.46449802922E+01 -0.16698037741E+02  0.67175985583E+01  0.18588341426E+02  0.51100000000E-03 0.  1.
        -12    1    3    3    0    0  0.24265946345E+01  0.73724771511E+01 -0.25440476040E+01  0.81678613526E+01  0.00000000000E+00 0.  1.
</event>
<event>
 7    1  0.1113211E-011  0.5930194E+02  0.7816164E-02  0.1266605E+00
        -11   -1    0    0    0    0  0.00000000000E+00  0.00000000000E+00  0.45593999997E+02  0.45594000000E+02  0.51100000000E-03 0. -1.
         11   -1    0    0    0    0 -0.00000000000E+00 -0.00000000000E+00 -0.45593999997E+02  0.45594000000E+02  0.51100000000E-03 0.  1.
    9900012    2    1    2    0    0 -0.13472543551E+02 -0.19258269890E+02  0.21548324455E+02  0.59301942299E+02  0.49999996848E+02 0.  0.
        -12    1    1    2    0    0  0.13472543551E+02  0.19258269890E+02 -0.21548324455E+02  0.31886057701E+02  0.00000000000E+00 0.  1.
         11    1    3    3    0    0  0.99254409025E+00 -0.20404012023E+02  0.28961732969E+02  0.35441371689E+02  0.51100000000E-03 0. -1.
        -11    1    3    3    0    0 -0.38898740296E+00  0.69945870853E+01 -0.22828372282E+00  0.70091135968E+01  0.51100000000E-03 0.  1.
         12    1    3    3    0    0 -0.14076100238E+02 -0.58488449526E+01 -0.71851247915E+01  0.16851457013E+02  0.00000000000E+00 0. -1.
</event>
<event>
 7    1  0.1113211E-011  0.5930194E+02  0.7816164E-02  0.1266605E+00
        -11   -1    0    0    0    0  0.00000000000E+00  0.00000000000E+00  0.45593999997E+02  0.45594000000E+02  0.51100000000E-03 0.  1.
         11   -1    0    0    0    0 -0.00000000000E+00 -0.00000000000E+00 -0.45593999997E+02  0.45594000000E+02  0.51100000000E-03 0. -1.
    9900012    2    1    2    0    0  0.21817570285E+02 -0.65942004364E+00 -0.23243910629E+02  0.59301943655E+02  0.49999999320E+02 0.  0.
        -12    1    1    2    0    0 -0.21817570285E+02  0.65942004364E+00  0.23243910629E+02  0.31886056345E+02  0.00000000000E+00 0.  1.
         11    1    3    3    0    0 -0.62021818528E+00 -0.16793043593E+00 -0.29118913124E+01  0.29819427400E+01  0.51100000000E-03 0. -1.
        -11    1    3    3    0    0  0.23664589922E+02 -0.20630240489E+02 -0.70860440746E+01  0.32184338733E+02  0.51100000000E-03 0.  1.
        -12    1    3    3    0    0 -0.12268014519E+01  0.20138750881E+02 -0.13245975242E+02  0.24135662182E+02  0.00000000000E+00 0.  1.
</event>
<event>
 7    1  0.1113211E-011  0.5930193E+02  0.7816164E-02  0.1266605E+00
        -11   -1    0    0    0    0  0.00000000000E+00  0.00000000000E+00  0.45593999997E+02  0.45594000000E+02  0.51100000000E-03 0. -1.
         11   -1    0    0    0    0 -0.00000000000E+00 -0.00000000000E+00 -0.45593999997E+02  0.45594000000E+02  0.51100000000E-03 0.  1.
    9900012    2    1    2    0    0  0.21740188089E+02  0.22456847825E+02  0.63067898970E+01  0.59301931080E+02  0.49999976386E+02 0.  0.
        -12    1    1    2    0    0 -0.21740188089E+02 -0.22456847825E+02 -0.63067898970E+01  0.31886068920E+02  0.00000000000E+00 0.  1.
         11    1    3    3    0    0  0.77542709276E+00 -0.13521181765E+02  0.82739011510E+01  0.15870761923E+02  0.51100000000E-03 0.  1.
        -11    1    3    3    0    0  0.52068732843E+00  0.78481680081E+01  0.27631540252E+01  0.83366586115E+01  0.51100000000E-03 0. -1.
         12    1    3    3    0    0  0.20444073668E+02  0.28129861582E+02 -0.47302652792E+01  0.35094510545E+02  0.00000000000E+00 0. -1.
</event>
<event>
 7    1  0.1113211E-011  0.5930194E+02  0.7816164E-02  0.1266605E+00
        -11   -1    0    0    0    0  0.00000000000E+00  0.00000000000E+00  0.45593999997E+02  0.45594000000E+02  0.51100000000E-03 0.  1.
         11   -1    0    0    0    0 -0.00000000000E+00 -0.00000000000E+00 -0.45593999997E+02  0.45594000000E+02  0.51100000000E-03 0. -1.
    9900012    2    1    2    0    0 -0.27840722878E+02 -0.14014112745E+02 -0.67245615340E+01  0.59301938245E+02  0.49999989454E+02 0.  0.
        -12    1    1    2    0    0  0.27840722878E+02  0.14014112745E+02  0.67245615340E+01  0.31886061755E+02  0.00000000000E+00 0.  1.
         11    1    3    3    0    0  0.12373205093E+02 -0.36654374613E+01  0.52215440443E+00  0.12915273188E+02  0.51100000000E-03 0. -1.
        -11    1    3    3    0    0 -0.15713793245E+02 -0.79607201101E+00  0.61268698569E+01  0.16884773120E+02  0.51100000000E-03 0.  1.
         12    1    3    3    0    0 -0.24500134725E+02 -0.95526032727E+01 -0.13373585795E+02  0.29501891937E+02  0.00000000000E+00 0. -1.
</event>
<event>
 7    1  0.1113211E-011  0.5930210E+02  0.7816164E-02  0.1266604E+00
        -11   -1    0    0    0    0  0.00000000000E+00  0.00000000000E+00  0.45593999997E+02  0.45594000000E+02  0.51100000000E-03 0.  1.
         11   -1    0    0    0    0 -0.00000000000E+00 -0.00000000000E+00 -0.45593999997E+02  0.45594000000E+02  0.51100000000E-03 0. -1.
    9900012    2    1    2    0    0 -0.14369615221E+02 -0.25789866876E+02 -0.12046055518E+02  0.59302101414E+02  0.50000287035E+02 0.  0.
        -12    1    1    2    0    0  0.14369615221E+02  0.25789866876E+02  0.12046055518E+02  0.31885898586E+02  0.00000000000E+00 0.  1.
         11    1    3    3    0    0 -0.17853571547E+02 -0.23025220972E+02 -0.66828176492E+00  0.29143737210E+02  0.51100000000E-03 0. -1.
        -11    1    3    3    0    0  0.11527965476E+02  0.14402129431E+01  0.40123993090E+01  0.12290953983E+02  0.51100000000E-03 0.  1.
        -12    1    3    3    0    0 -0.80440091501E+01 -0.42048588468E+01 -0.15390173062E+02  0.17867410221E+02  0.00000000000E+00 0.  1.
</event>
<event>
 7    1  0.1113211E-011  0.5930194E+02  0.7816164E-02  0.1266605E+00
        -11   -1    0    0    0    0  0.00000000000E+00  0.00000000000E+00  0.45593999997E+02  0.45594000000E+02  0.51100000000E-03 0. -1.
         11   -1    0    0    0    0 -0.00000000000E+00 -0.00000000000E+00 -0.45593999997E+02  0.45594000000E+02  0.51100000000E-03 0.  1.
    9900012    2    1    2    0    0 -0.21546813449E+02  0.26800117317E+01  0.23351084712E+02  0.59301940508E+02  0.49999993580E+02 0.  0.
        -12    1    1    2    0    0  0.21546813449E+02 -0.26800117317E+01 -0.23351084712E+02  0.31886059492E+02  0.00000000000E+00 0.  1.
         11    1    3    3    0    0 -0.10438846550E+02 -0.75491397909E+01  0.13329181081E+02  0.18537154513E+02  0.51100000000E-03 0. -1.
        -11    1    3    3    0    0  0.64108943016E+01  0.50745538534E+01 -0.10491118317E+02  0.13300910734E+02  0.51100000000E-03 0.  1.
        -12    1    3    3    0    0 -0.17518861201E+02  0.51545976692E+01  0.20513021948E+02  0.27463875261E+02  0.00000000000E+00 0.  1.
</event>
<event>
 7    1  0.1113211E-011  0.5930196E+02  0.7816164E-02  0.1266605E+00
        -11   -1    0    0    0    0  0.00000000000E+00  0.00000000000E+00  0.45593999997E+02  0.45594000000E+02  0.51100000000E-03 0. -1.
         11   -1    0    0    0    0 -0.00000000000E+00 -0.00000000000E+00 -0.45593999997E+02  0.45594000000E+02  0.51100000000E-03 0.  1.
    9900012    2    1    2    0    0  0.55804954311E+01  0.19474837604E+02  0.24623324929E+02  0.59301962938E+02  0.50000034488E+02 0.  0.
        -12    1    1    2    0    0 -0.55804954311E+01 -0.19474837604E+02 -0.24623324929E+02  0.31886037062E+02  0.00000000000E+00 0.  1.
         11    1    3    3    0    0  0.13364429268E+02  0.15088387742E+02  0.10432043164E+02  0.22695703099E+02  0.51100000000E-03 0. -1.
        -11    1    3    3    0    0 -0.67960656040E+01 -0.13373288563E+02  0.22168003382E+01  0.15163955905E+02  0.51100000000E-03 0.  1.
        -12    1    3    3    0    0 -0.98786823265E+00  0.17759738426E+02  0.11974481426E+02  0.21442303935E+02  0.00000000000E+00 0.  1.
</event>
<event>
 7    1  0.1113211E-011  0.5930192E+02  0.7816164E-02  0.1266605E+00
        -11   -1    0    0    0    0  0.00000000000E+00  0.00000000000E+00  0.45593999997E+02  0.45594000000E+02  0.51100000000E-03 0.  1.
         11   -1    0    0    0    0 -0.00000000000E+00 -0.00000000000E+00 -0.45593999997E+02  0.45594000000E+02  0.51100000000E-03 0. -1.
    9900012    2    1    2    0    0 -0.63359665088E+00  0.26288233389E+02 -0.18034668992E+02  0.59301922395E+02  0.49999960546E+02 0.  0.
        -12    1    1    2    0    0  0.63359665088E+00 -0.26288233389E+02  0.18034668992E+02  0.31886077605E+02  0.00000000000E+00 0.  1.
         11    1    3    3    0    0 -0.78180607571E+01  0.20997898931E+02 -0.83370482292E+01  0.23906907097E+02  0.51100000000E-03 0. -1.
        -11    1    3    3    0    0 -0.53118865605E+00 -0.57357919639E+01 -0.18458878899E+02  0.19336796046E+02  0.51100000000E-03 0.  1.
        -12    1    3    3    0    0  0.77156527622E+01  0.11026126421E+02  0.87612581362E+01  0.16058219252E+02  0.00000000000E+00 0.  1.
</event>
<event>
 7    1  0.1113211E-011  0.5930199E+02  0.7816164E-02  0.1266605E+00
        -11   -1    0    0    0    0  0.00000000000E+00  0.00000000000E+00  0.45593999997E+02  0.45594000000E+02  0.51100000000E-03 0.  1.
         11   -1    0    0    0    0 -0.00000000000E+00 -0.00000000000E+00 -0.45593999997E+02  0.45594000000E+02  0.51100000000E-03 0. -1.
    9900012    2    1    2    0    0  0.18109037685E+02 -0.10805254822E+02 -0.23917082567E+02  0.59301990275E+02  0.50000084344E+02 0.  0.
        -12    1    1    2    0    0 -0.18109037685E+02  0.10805254822E+02  0.23917082567E+02  0.31886009725E+02  0.00000000000E+00 0.  1.
         11    1    3    3    0    0  0.60367505567E+01 -0.10680590674E+02 -0.25160002136E+02  0.27991839564E+02  0.51100000000E-03 0. -1.
        -11    1    3    3    0    0  0.51303447682E+01  0.66600747418E-01  0.15025225154E+02  0.15877098737E+02  0.51100000000E-03 0.  1.
        -12    1    3    3    0    0  0.69419423606E+01 -0.19126489528E+00 -0.13782305585E+02  0.15433051974E+02  0.00000000000E+00 0.  1.
</event>
<event>
 7    1  0.1113211E-011  0.5930191E+02  0.7816164E-02  0.1266605E+00
        -11   -1    0    0    0    0  0.00000000000E+00  0.00000000000E+00  0.45593999997E+02  0.45594000000E+02  0.51100000000E-03 0.  1.
         11   -1    0    0    0    0 -0.00000000000E+00 -0.00000000000E+00 -0.45593999997E+02  0.45594000000E+02  0.51100000000E-03 0. -1.
    9900012    2    1    2    0    0 -0.12080349737E+02  0.29384478355E+02  0.27092599633E+01  0.59301913575E+02  0.49999944461E+02 0.  0.
        -12    1    1    2    0    0  0.12080349737E+02 -0.29384478355E+02 -0.27092599633E+01  0.31886086425E+02  0.00000000000E+00 0.  1.
         11    1    3    3    0    0 -0.18304285952E+02  0.23234976625E+02 -0.14721011573E+02  0.33039661091E+02  0.51100000000E-03 0. -1.
        -11    1    3    3    0    0 -0.57433665088E+01  0.81041579787E+00  0.89099761813E+01  0.10631590118E+02  0.51100000000E-03 0.  1.
         12    1    3    3    0    0  0.11967302724E+02  0.53390859322E+01  0.85202953553E+01  0.15630662366E+02  0.00000000000E+00 0. -1.
</event>
<event>
 7    1  0.1113211E-011  0.5930195E+02  0.7816164E-02  0.1266605E+00
        -11   -1    0    0    0    0  0.00000000000E+00  0.00000000000E+00  0.45593999997E+02  0.45594000000E+02  0.51100000000E-03 0. -1.
         11   -1    0    0    0    0 -0.00000000000E+00 -0.00000000000E+00 -0.45593999997E+02  0.45594000000E+02  0.51100000000E-03 0.  1.
    9900012    2    1    2    0    0 -0.17819995662E+02 -0.24285503928E+02  0.10458604406E+02  0.59301947366E+02  0.50000006089E+02 0.  0.
        -12    1    1    2    0    0  0.17819995662E+02  0.24285503928E+02 -0.10458604406E+02  0.31886052634E+02  0.00000000000E+00 0.  1.
         11    1    3    3    0    0 -0.24993598577E+01 -0.42313256538E+01  0.20582341586E+02  0.21160900310E+02  0.51100000000E-03 0. -1.
        -11    1    3    3    0    0 -0.85416721526E+01 -0.28303311271E+01 -0.16307636037E+02  0.18625518270E+02  0.51100000000E-03 0.  1.
         12    1    3    3    0    0 -0.67789636516E+01 -0.17223847147E+02  0.61838988576E+01  0.19515528786E+02  0.00000000000E+00 0. -1.
</event>
<event>
 7    1  0.1113211E-011  0.5930197E+02  0.7816164E-02  0.1266605E+00
        -11   -1    0    0    0    0  0.00000000000E+00  0.00000000000E+00  0.45593999997E+02  0.45594000000E+02  0.51100000000E-03 0. -1.
         11   -1    0    0    0    0 -0.00000000000E+00 -0.00000000000E+00 -0.45593999997E+02  0.45594000000E+02  0.51100000000E-03 0.  1.
    9900012    2    1    2    0    0 -0.14051116551E+02 -0.16443844895E+02  0.23428300615E+02  0.59301965737E+02  0.50000039593E+02 0.  0.
        -12    1    1    2    0    0  0.14051116551E+02  0.16443844895E+02 -0.23428300615E+02  0.31886034263E+02  0.00000000000E+00 0.  1.
         11    1    3    3    0    0 -0.17445617886E+02  0.61804042212E+01  0.26702429126E+02  0.32489486011E+02  0.51100000000E-03 0. -1.
        -11    1    3    3    0    0  0.63856034604E+01 -0.43019447380E+01  0.99371748044E+00  0.77633842346E+01  0.51100000000E-03 0.  1.
         12    1    3    3    0    0 -0.29911021256E+01 -0.18322304379E+02 -0.42678459909E+01  0.19049095492E+02  0.00000000000E+00 0. -1.
</event>
<event>
 7    1  0.1113211E-011  0.5930205E+02  0.7816164E-02  0.1266604E+00
        -11   -1    0    0    0    0  0.00000000000E+00  0.00000000000E+00  0.45593999997E+02  0.45594000000E+02  0.51100000000E-03 0.  1.
         11   -1    0    0    0    0 -0.00000000000E+00 -0.00000000000E+00 -0.45593999997E+02  0.45594000000E+02  0.51100000000E-03 0. -1.
    9900012    2    1    2    0    0 -0.29324066082E+02  0.11474135357E+02 -0.50156730949E+01  0.59302053090E+02  0.50000198903E+02 0.  0.
        -12    1    1    2    0    0  0.29324066082E+02 -0.11474135357E+02  0.50156730949E+01  0.31885946910E+02  0.00000000000E+00 0.  1.
         11    1    3    3    0    0 -0.17150266207E+02  0.11250461345E+02  0.14623465842E+02  0.25190281160E+02  0.51100000000E-03 0. -1.
        -11    1    3    3    0    0  0.51413578812E+00 -0.80252527692E+01  0.14329180941E+01  0.81683702257E+01  0.51100000000E-03 0.  1.
         12    1    3    3    0    0 -0.12687935663E+02  0.82489267808E+01 -0.21072057031E+02  0.25943401704E+02  0.00000000000E+00 0. -1.
</event>
<event>
 7    1  0.1113211E-011  0.5930194E+02  0.7816164E-02  0.1266605E+00
        -11   -1    0    0    0    0  0.00000000000E+00  0.00000000000E+00  0.45593999997E+02  0.45594000000E+02  0.51100000000E-03 0.  1.
         11   -1    0    0    0    0 -0.00000000000E+00 -0.00000000000E+00 -0.45593999997E+02  0.45594000000E+02  0.51100000000E-03 0. -1.
    9900012    2    1    2    0    0 -0.28102026876E+02 -0.71589880840E+01 -0.13256923423E+02  0.59301936531E+02  0.49999986327E+02 0.  0.
        -12    1    1    2    0    0  0.28102026876E+02  0.71589880840E+01  0.13256923423E+02  0.31886063469E+02  0.00000000000E+00 0.  1.
         11    1    3    3    0    0 -0.38799791500E+02 -0.77998408614E+01 -0.33893420746E+01  0.39720888433E+02  0.51100000000E-03 0. -1.
        -11    1    3    3    0    0 -0.10844237912E+01  0.41490425270E+01 -0.94601764795E+00  0.43915234829E+01  0.51100000000E-03 0.  1.
         12    1    3    3    0    0  0.11782188415E+02 -0.35081897496E+01 -0.89215637006E+01  0.15189524615E+02  0.00000000000E+00 0. -1.
</event>
<event>
 7    1  0.1113211E-011  0.5930189E+02  0.7816164E-02  0.1266605E+00
        -11   -1    0    0    0    0  0.00000000000E+00  0.00000000000E+00  0.45593999997E+02  0.45594000000E+02  0.51100000000E-03 0.  1.
         11   -1    0    0    0    0 -0.00000000000E+00 -0.00000000000E+00 -0.45593999997E+02  0.45594000000E+02  0.51100000000E-03 0. -1.
    9900012    2    1    2    0    0  0.10877749669E+02 -0.14455183973E+02 -0.26257307603E+02  0.59301890420E+02  0.49999902232E+02 0.  0.
        -12    1    1    2    0    0 -0.10877749669E+02  0.14455183973E+02  0.26257307603E+02  0.31886109580E+02  0.00000000000E+00 0.  1.
         11    1    3    3    0    0  0.24067387374E-01 -0.69727293559E+01  0.28946475983E+01  0.75497363457E+01  0.51100000000E-03 0. -1.
        -11    1    3    3    0    0 -0.25876972597E+01  0.15423205022E+02 -0.14950493858E+02  0.21635357568E+02  0.51100000000E-03 0.  1.
        -12    1    3    3    0    0  0.13441379542E+02 -0.22905659639E+02 -0.14201461344E+02  0.30116796506E+02  0.00000000000E+00 0.  1.
</event>
<event>
 7    1  0.1113211E-011  0.5930193E+02  0.7816164E-02  0.1266605E+00
        -11   -1    0    0    0    0  0.00000000000E+00  0.00000000000E+00  0.45593999997E+02  0.45594000000E+02  0.51100000000E-03 0. -1.
         11   -1    0    0    0    0 -0.00000000000E+00 -0.00000000000E+00 -0.45593999997E+02  0.45594000000E+02  0.51100000000E-03 0.  1.
    9900012    2    1    2    0    0  0.18530304014E+02  0.12506692538E+02  0.22736130782E+02  0.59301934579E+02  0.49999982768E+02 0.  0.
        -12    1    1    2    0    0 -0.18530304014E+02 -0.12506692538E+02 -0.22736130782E+02  0.31886065421E+02  0.00000000000E+00 0.  1.
         11    1    3    3    0    0  0.35276060010E+01  0.76563440014E+01  0.27935829764E+02  0.29180030714E+02  0.51100000000E-03 0. -1.
        -11    1    3    3    0    0  0.21459847834E+02  0.54782402636E+01 -0.72720517669E+01  0.23311347508E+02  0.51100000000E-03 0.  1.
        -12    1    3    3    0    0 -0.64571498216E+01 -0.62789172743E+00  0.20723527846E+01  0.68105563578E+01  0.00000000000E+00 0.  1.
</event>
<event>
 7    1  0.1113211E-011  0.5930190E+02  0.7816164E-02  0.1266605E+00
        -11   -1    0    0    0    0  0.00000000000E+00  0.00000000000E+00  0.45593999997E+02  0.45594000000E+02  0.51100000000E-03 0.  1.
         11   -1    0    0    0    0 -0.00000000000E+00 -0.00000000000E+00 -0.45593999997E+02  0.45594000000E+02  0.51100000000E-03 0. -1.
    9900012    2    1    2    0    0  0.20681616908E+02 -0.23333556024E+02 -0.66737857497E+01  0.59301897527E+02  0.49999915194E+02 0.  0.
        -12    1    1    2    0    0 -0.20681616908E+02  0.23333556024E+02  0.66737857497E+01  0.31886102473E+02  0.00000000000E+00 0.  1.
         11    1    3    3    0    0  0.19657379005E+02 -0.88083059244E+01  0.87525664388E+01  0.23250940242E+02  0.51100000000E-03 0. -1.
        -11    1    3    3    0    0 -0.54780184249E+01  0.23921560535E+01 -0.16842463735E+02  0.17871756527E+02  0.51100000000E-03 0.  1.
        -12    1    3    3    0    0  0.65022563285E+01 -0.16917406153E+02  0.14161115460E+01  0.18179200759E+02  0.00000000000E+00 0.  1.
</event>
<event>
 7    1  0.1113211E-011  0.5930193E+02  0.7816164E-02  0.1266605E+00
        -11   -1    0    0    0    0  0.00000000000E+00  0.00000000000E+00  0.45593999997E+02  0.45594000000E+02  0.51100000000E-03 0. -1.
         11   -1    0    0    0    0 -0.00000000000E+00 -0.00000000000E+00 -0.45593999997E+02  0.45594000000E+02  0.51100000000E-03 0.  1.
    9900012    2    1    2    0    0  0.17620157084E+02 -0.26354478193E+02 -0.34194708734E+01  0.59301933489E+02  0.49999980781E+02 0.  0.
        -12    1    1    2    0    0 -0.17620157084E+02  0.26354478193E+02  0.34194708734E+01  0.31886066511E+02  0.00000000000E+00 0.  1.
         11    1    3    3    0    0 -0.12702298527E+02 -0.24582032019E+02  0.41710519477E+01  0.27982536709E+02  0.51100000000E-03 0. -1.
        -11    1    3    3    0    0  0.19789360969E+02 -0.97658293341E+00 -0.53153856256E+01  0.20514040226E+02  0.51100000000E-03 0.  1.
         12    1    3    3    0    0  0.10533094641E+02 -0.79586324032E+00 -0.22751371955E+01  0.10805356554E+02  0.00000000000E+00 0. -1.
</event>
<event>
 7    1  0.1113211E-011  0.5930194E+02  0.7816164E-02  0.1266605E+00
        -11   -1    0    0    0    0  0.00000000000E+00  0.00000000000E+00  0.45593999997E+02  0.45594000000E+02  0.51100000000E-03 0. -1.
         11   -1    0    0    0    0 -0.00000000000E+00 -0.00000000000E+00 -0.45593999997E+02  0.45594000000E+02  0.51100000000E-03 0.  1.
    9900012    2    1    2    0    0 -0.17418978569E+02  0.64146262884E+01  0.25925911015E+02  0.59301935540E+02  0.49999984520E+02 0.  0.
        -12    1    1    2    0    0  0.17418978569E+02 -0.64146262884E+01 -0.25925911015E+02  0.31886064460E+02  0.00000000000E+00 0.  1.
         11    1    3    3    0    0 -0.18275597998E+01  0.70752053123E+01  0.16374832962E+02  0.17931359676E+02  0.51100000000E-03 0. -1.
        -11    1    3    3    0    0 -0.17260997202E+02 -0.15949401046E+02  0.46251662846E+00  0.23506155365E+02  0.51100000000E-03 0.  1.
        -12    1    3    3    0    0  0.16695784327E+01  0.15288822023E+02  0.90885614245E+01  0.17864420498E+02  0.00000000000E+00 0.  1.
</event>
<event>
 7    1  0.1113211E-011  0.5930199E+02  0.7816164E-02  0.1266605E+00
        -11   -1    0    0    0    0  0.00000000000E+00  0.00000000000E+00  0.45593999997E+02  0.45594000000E+02  0.51100000000E-03 0. -1.
         11   -1    0    0    0    0 -0.00000000000E+00 -0.00000000000E+00 -0.45593999997E+02  0.45594000000E+02  0.51100000000E-03 0.  1.
    9900012    2    1    2    0    0 -0.28913467926E+02  0.11995368202E+02 -0.60695942163E+01  0.59301992728E+02  0.50000088817E+02 0.  0.
        -12    1    1    2    0    0  0.28913467926E+02 -0.11995368202E+02  0.60695942163E+01  0.31886007272E+02  0.00000000000E+00 0.  1.
         11    1    3    3    0    0 -0.46882561934E+01  0.14053366731E+02  0.15183511751E+02  0.21213578009E+02  0.51100000000E-03 0. -1.
        -11    1    3    3    0    0 -0.24575959619E+02  0.21013488432E+00 -0.24106907530E+02  0.34426224579E+02  0.51100000000E-03 0.  1.
        -12    1    3    3    0    0  0.35074788599E+00 -0.22681334128E+01  0.28538015628E+01  0.36621901394E+01  0.00000000000E+00 0.  1.
</event>
<event>
 7    1  0.1113211E-011  0.5930179E+02  0.7816164E-02  0.1266605E+00
        -11   -1    0    0    0    0  0.00000000000E+00  0.00000000000E+00  0.45593999997E+02  0.45594000000E+02  0.51100000000E-03 0.  1.
         11   -1    0    0    0    0 -0.00000000000E+00 -0.00000000000E+00 -0.45593999997E+02  0.45594000000E+02  0.51100000000E-03 0. -1.
    9900012    2    1    2    0    0 -0.82097471784E+01  0.30682363486E+02 -0.28147976716E+01  0.59301788815E+02  0.49999716929E+02 0.  0.
        -12    1    1    2    0    0  0.82097471784E+01 -0.30682363486E+02  0.28147976716E+01  0.31886211185E+02  0.00000000000E+00 0.  1.
         11    1    3    3    0    0  0.19648329679E+00 -0.26260343676E+01 -0.10691505616E+02  0.11011037862E+02  0.51100000000E-03 0. -1.
        -11    1    3    3    0    0  0.78898195565E+01  0.27070402136E+02  0.11530331063E+02  0.30463165612E+02  0.51100000000E-03 0.  1.
        -12    1    3    3    0    0 -0.16296050032E+02  0.62379957173E+01 -0.36536231184E+01  0.17827585341E+02  0.00000000000E+00 0.  1.
</event>
<event>
 7    1  0.1113211E-011  0.5930193E+02  0.7816164E-02  0.1266605E+00
        -11   -1    0    0    0    0  0.00000000000E+00  0.00000000000E+00  0.45593999997E+02  0.45594000000E+02  0.51100000000E-03 0.  1.
         11   -1    0    0    0    0 -0.00000000000E+00 -0.00000000000E+00 -0.45593999997E+02  0.45594000000E+02  0.51100000000E-03 0. -1.
    9900012    2    1    2    0    0 -0.15684402009E+01  0.31141908930E+02 -0.66665609318E+01  0.59301928885E+02  0.49999972384E+02 0.  0.
        -12    1    1    2    0    0  0.15684402009E+01 -0.31141908930E+02  0.66665609318E+01  0.31886071115E+02  0.00000000000E+00 0.  1.
         11    1    3    3    0    0  0.52811320152E+01  0.37390066068E+02  0.78043076498E+01  0.38559235134E+02  0.51100000000E-03 0. -1.
        -11    1    3    3    0    0 -0.43945129279E+01 -0.96781487418E+01 -0.99487772494E+01  0.14558725080E+02  0.51100000000E-03 0.  1.
         12    1    3    3    0    0 -0.24550592882E+01  0.34299916039E+01 -0.45220913321E+01  0.61839686713E+01  0.00000000000E+00 0. -1.
</event>
<event>
 7    1  0.1113211E-011  0.5930195E+02  0.7816164E-02  0.1266605E+00
        -11   -1    0    0    0    0  0.00000000000E+00  0.00000000000E+00  0.45593999997E+02  0.45594000000E+02  0.51100000000E-03 0. -1.
         11   -1    0    0    0    0 -0.00000000000E+00 -0.00000000000E+00 -0.45593999997E+02  0.45594000000E+02  0.51100000000E-03 0.  1.
    9900012    2    1    2    0    0 -0.18669836661E+02  0.20171454345E+02  0.16163851837E+02  0.59301945407E+02  0.50000002515E+02 0.  0.
        -12    1    1    2    0    0  0.18669836661E+02 -0.20171454345E+02 -0.16163851837E+02  0.31886054593E+02  0.00000000000E+00 0.  1.
         11    1    3    3    0    0 -0.88510362868E+01  0.12808223454E+02 -0.15454352658E+02  0.21936919741E+02  0.51100000000E-03 0. -1.
        -11    1    3    3    0    0 -0.78188139452E+01 -0.26415317821E+01  0.73972611518E+01  0.11082915432E+02  0.51100000000E-03 0.  1.
         12    1    3    3    0    0 -0.19999864290E+01  0.10004762673E+02  0.24220943343E+02  0.26282110233E+02  0.00000000000E+00 0. -1.
</event>
<event>
 7    1  0.1113211E-011  0.5930205E+02  0.7816164E-02  0.1266604E+00
        -11   -1    0    0    0    0  0.00000000000E+00  0.00000000000E+00  0.45593999997E+02  0.45594000000E+02  0.51100000000E-03 0.  1.
         11   -1    0    0    0    0 -0.00000000000E+00 -0.00000000000E+00 -0.45593999997E+02  0.45594000000E+02  0.51100000000E-03 0. -1.
    9900012    2    1    2    0    0 -0.20072784850E+02 -0.12967330601E+02 -0.21110309195E+02  0.59302054681E+02  0.50000201804E+02 0.  0.
        -12    1    1    2    0    0  0.20072784850E+02  0.12967330601E+02  0.21110309195E+02  0.31885945319E+02  0.00000000000E+00 0.  1.
         11    1    3    3    0    0 -0.12430176380E+02  0.53705451320E+01  0.86456327856E+01  0.16065460042E+02  0.51100000000E-03 0. -1.
        -11    1    3    3    0    0  0.49554377662E+01 -0.17862514498E+02 -0.15135768869E+02  0.23931512429E+02  0.51100000000E-03 0.  1.
        -12    1    3    3    0    0 -0.12598046237E+02 -0.47536123576E+00 -0.14620173112E+02  0.19305082210E+02  0.00000000000E+00 0.  1.
</event>
<event>
 7    1  0.1113211E-011  0.5930196E+02  0.7816164E-02  0.1266605E+00
        -11   -1    0    0    0    0  0.00000000000E+00  0.00000000000E+00  0.45593999997E+02  0.45594000000E+02  0.51100000000E-03 0.  1.
         11   -1    0    0    0    0 -0.00000000000E+00 -0.00000000000E+00 -0.45593999997E+02  0.45594000000E+02  0.51100000000E-03 0. -1.
    9900012    2    1    2    0    0 -0.22836752918E+02 -0.22207590976E+02 -0.14230832642E+01  0.59301960002E+02  0.50000029133E+02 0.  0.
        -12    1    1    2    0    0  0.22836752918E+02  0.22207590976E+02  0.14230832642E+01  0.31886039998E+02  0.00000000000E+00 0.  1.
         11    1    3    3    0    0 -0.89096723401E+01 -0.21663727359E+02 -0.46191843394E+01  0.23875431064E+02  0.51100000000E-03 0. -1.
        -11    1    3    3    0    0 -0.15605510932E+02 -0.22974372710E+01  0.15956665649E+02  0.22437142607E+02  0.51100000000E-03 0.  1.
         12    1    3    3    0    0  0.16784303543E+01  0.17535736535E+01 -0.12760564574E+02  0.12989386331E+02  0.00000000000E+00 0. -1.
</event>
<event>
 7    1  0.1113211E-011  0.5930193E+02  0.7816164E-02  0.1266605E+00
        -11   -1    0    0    0    0  0.00000000000E+00  0.00000000000E+00  0.45593999997E+02  0.45594000000E+02  0.51100000000E-03 0.  1.
         11   -1    0    0    0    0 -0.00000000000E+00 -0.00000000000E+00 -0.45593999997E+02  0.45594000000E+02  0.51100000000E-03 0. -1.
    9900012    2    1    2    0    0  0.64276564468E+01  0.72203960347E-02 -0.31231498769E+02  0.59301931962E+02  0.49999977995E+02 0.  0.
        -12    1    1    2    0    0 -0.64276564468E+01 -0.72203960347E-02  0.31231498769E+02  0.31886068038E+02  0.00000000000E+00 0.  1.
         11    1    3    3    0    0  0.23340670751E+02 -0.70679071186E+01 -0.26885224038E+02  0.36298174802E+02  0.51100000000E-03 0. -1.
        -11    1    3    3    0    0 -0.85499702868E+01 -0.27386181773E+01  0.10244506613E+01  0.90361231092E+01  0.51100000000E-03 0.  1.
         12    1    3    3    0    0 -0.83630440171E+01  0.98137456920E+01 -0.53707253926E+01  0.13967634051E+02  0.00000000000E+00 0. -1.
</event>
<event>
 7    1  0.1113211E-011  0.5930194E+02  0.7816164E-02  0.1266605E+00
        -11   -1    0    0    0    0  0.00000000000E+00  0.00000000000E+00  0.45593999997E+02  0.45594000000E+02  0.51100000000E-03 0. -1.
         11   -1    0    0    0    0 -0.00000000000E+00 -0.00000000000E+00 -0.45593999997E+02  0.45594000000E+02  0.51100000000E-03 0.  1.
    9900012    2    1    2    0    0 -0.29602293963E+02 -0.11823766999E+02  0.78953545487E+00  0.59301942856E+02  0.49999997864E+02 0.  0.
        -12    1    1    2    0    0  0.29602293963E+02  0.11823766999E+02 -0.78953545487E+00  0.31886057144E+02  0.00000000000E+00 0.  1.
         11    1    3    3    0    0  0.51645566184E+00  0.15083908898E+02  0.83515127183E+00  0.15115836464E+02  0.51100000000E-03 0. -1.
        -11    1    3    3    0    0 -0.53548618853E+01 -0.16256795909E+02  0.15206316182E+01  0.17183430386E+02  0.51100000000E-03 0.  1.
         12    1    3    3    0    0 -0.24763887740E+02 -0.10650879988E+02 -0.15662474351E+01  0.27002676007E+02  0.00000000000E+00 0. -1.
</event>
<event>
 7    1  0.1113211E-011  0.5930194E+02  0.7816164E-02  0.1266605E+00
        -11   -1    0    0    0    0  0.00000000000E+00  0.00000000000E+00  0.45593999997E+02  0.45594000000E+02  0.51100000000E-03 0. -1.
         11   -1    0    0    0    0 -0.00000000000E+00 -0.00000000000E+00 -0.45593999997E+02  0.45594000000E+02  0.51100000000E-03 0.  1.
    9900012    2    1    2    0    0  0.31717297767E+02 -0.20681734564E+01 -0.25409064735E+01  0.59301944665E+02  0.50000001163E+02 0.  0.
        -12    1    1    2    0    0 -0.31717297767E+02  0.20681734564E+01  0.25409064735E+01  0.31886055335E+02  0.00000000000E+00 0.  1.
         11    1    3    3    0    0  0.30074239699E+02  0.17018240319E+02 -0.74984634738E-01  0.34555549771E+02  0.51100000000E-03 0. -1.
        -11    1    3    3    0    0  0.37979663045E+01 -0.12566436473E+02  0.54963939871E+01  0.14232013940E+02  0.51100000000E-03 0.  1.
         12    1    3    3    0    0 -0.21549082360E+01 -0.65199773027E+01 -0.79623158258E+01  0.10514380954E+02  0.00000000000E+00 0. -1.
</event>
<event>
 7    1  0.1113211E-011  0.5930195E+02  0.7816164E-02  0.1266605E+00
        -11   -1    0    0    0    0  0.00000000000E+00  0.00000000000E+00  0.45593999997E+02  0.45594000000E+02  0.51100000000E-03 0.  1.
         11   -1    0    0    0    0 -0.00000000000E+00 -0.00000000000E+00 -0.45593999997E+02  0.45594000000E+02  0.51100000000E-03 0. -1.
    9900012    2    1    2    0    0 -0.10923762514E+02  0.17166666337E+02 -0.24549884924E+02  0.59301954927E+02  0.50000019878E+02 0.  0.
        -12    1    1    2    0    0  0.10923762514E+02 -0.17166666337E+02  0.24549884924E+02  0.31886045073E+02  0.00000000000E+00 0.  1.
         11    1    3    3    0    0 -0.14324223513E+02  0.21521757911E+02 -0.47533900041E+01  0.26286197131E+02  0.51100000000E-03 0. -1.
        -11    1    3    3    0    0  0.11074817791E+02  0.35363357694E+01 -0.15812319907E+01  0.11732755629E+02  0.51100000000E-03 0.  1.
         12    1    3    3    0    0 -0.76743567925E+01 -0.78914273427E+01 -0.18215262929E+02  0.21283002168E+02  0.00000000000E+00 0. -1.
</event>
<event>
 7    1  0.1113211E-011  0.5930193E+02  0.7816164E-02  0.1266605E+00
        -11   -1    0    0    0    0  0.00000000000E+00  0.00000000000E+00  0.45593999997E+02  0.45594000000E+02  0.51100000000E-03 0.  1.
         11   -1    0    0    0    0 -0.00000000000E+00 -0.00000000000E+00 -0.45593999997E+02  0.45594000000E+02  0.51100000000E-03 0. -1.
    9900012    2    1    2    0    0 -0.89392743247E+01  0.30436974281E+02 -0.32251375372E+01  0.59301928731E+02  0.49999972102E+02 0.  0.
        -12    1    1    2    0    0  0.89392743247E+01 -0.30436974281E+02  0.32251375372E+01  0.31886071269E+02  0.00000000000E+00 0.  1.
         11    1    3    3    0    0 -0.99129061084E+01  0.10784263483E+02 -0.10423536581E+02  0.17978213523E+02  0.51100000000E-03 0. -1.
        -11    1    3    3    0    0 -0.23781090479E+01 -0.99533261169E+00  0.17721242514E+02  0.17907778370E+02  0.51100000000E-03 0.  1.
        -12    1    3    3    0    0  0.33517408315E+01  0.20648043410E+02 -0.10522843471E+02  0.23415936838E+02  0.00000000000E+00 0.  1.
</event>
<event>
 7    1  0.1113211E-011  0.5930193E+02  0.7816164E-02  0.1266605E+00
        -11   -1    0    0    0    0  0.00000000000E+00  0.00000000000E+00  0.45593999997E+02  0.45594000000E+02  0.51100000000E-03 0. -1.
         11   -1    0    0    0    0 -0.00000000000E+00 -0.00000000000E+00 -0.45593999997E+02  0.45594000000E+02  0.51100000000E-03 0.  1.
    9900012    2    1    2    0    0 -0.13584179925E+02 -0.16426879348E+02  0.23713907104E+02  0.59301926245E+02  0.49999967569E+02 0.  0.
        -12    1    1    2    0    0  0.13584179925E+02  0.16426879348E+02 -0.23713907104E+02  0.31886073755E+02  0.00000000000E+00 0.  1.
         11    1    3    3    0    0 -0.19968983930E+01  0.51126661420E+01  0.91271337072E+01  0.10650423853E+02  0.51100000000E-03 0. -1.
        -11    1    3    3    0    0 -0.40683456360E+01 -0.32323437300E+02  0.65107549948E+01  0.33222672469E+02  0.51100000000E-03 0.  1.
        -12    1    3    3    0    0 -0.75189358964E+01  0.10783891810E+02  0.80760184023E+01  0.15428829924E+02  0.00000000000E+00 0.  1.
</event>
<event>
 7    1  0.1113211E-011  0.5930189E+02  0.7816164E-02  0.1266605E+00
        -11   -1    0    0    0    0  0.00000000000E+00  0.00000000000E+00  0.45593999997E+02  0.45594000000E+02  0.51100000000E-03 0.  1.
         11   -1    0    0    0    0 -0.00000000000E+00 -0.00000000000E+00 -0.45593999997E+02  0.45594000000E+02  0.51100000000E-03 0. -1.
    9900012    2    1    2    0    0  0.17730198092E+02  0.24846991934E+02 -0.92190633269E+01  0.59301889212E+02  0.49999900029E+02 0.  0.
        -12    1    1    2    0    0 -0.17730198092E+02 -0.24846991934E+02  0.92190633269E+01  0.31886110788E+02  0.00000000000E+00 0.  1.
         11    1    3    3    0    0  0.19338236653E+01  0.20147595845E+02 -0.61286380576E+00  0.20249466526E+02  0.51100000000E-03 0. -1.
        -11    1    3    3    0    0  0.22109558138E+02 -0.72740860621E+01 -0.10220632537E+02  0.25420586516E+02  0.51100000000E-03 0.  1.
        -12    1    3    3    0    0 -0.63131837108E+01  0.11973482152E+02  0.16144330160E+01  0.13631836170E+02  0.00000000000E+00 0.  1.
</event>
<event>
 7    1  0.1113211E-011  0.5930194E+02  0.7816164E-02  0.1266605E+00
        -11   -1    0    0    0    0  0.00000000000E+00  0.00000000000E+00  0.45593999997E+02  0.45594000000E+02  0.51100000000E-03 0.  1.
         11   -1    0    0    0    0 -0.00000000000E+00 -0.00000000000E+00 -0.45593999997E+02  0.45594000000E+02  0.51100000000E-03 0. -1.
    9900012    2    1    2    0    0  0.43246889002E+01 -0.11234001327E+01 -0.31571443220E+02  0.59301937387E+02  0.49999987890E+02 0.  0.
        -12    1    1    2    0    0 -0.43246889002E+01  0.11234001327E+01  0.31571443220E+02  0.31886062613E+02  0.00000000000E+00 0.  1.
         11    1    3    3    0    0  0.13722751863E+02  0.12675335493E+02 -0.21023524725E+02  0.28124129154E+02  0.51100000000E-03 0. -1.
        -11    1    3    3    0    0 -0.37216581577E+01 -0.12046360684E+02  0.57304267893E+01  0.13849308164E+02  0.51100000000E-03 0.  1.
         12    1    3    3    0    0 -0.56764048052E+01 -0.17523749422E+01 -0.16278345284E+02  0.17328500069E+02  0.00000000000E+00 0. -1.
</event>
<event>
 7    1  0.1113211E-011  0.5930193E+02  0.7816164E-02  0.1266605E+00
        -11   -1    0    0    0    0  0.00000000000E+00  0.00000000000E+00  0.45593999997E+02  0.45594000000E+02  0.51100000000E-03 0. -1.
         11   -1    0    0    0    0 -0.00000000000E+00 -0.00000000000E+00 -0.45593999997E+02  0.45594000000E+02  0.51100000000E-03 0.  1.
    9900012    2    1    2    0    0  0.11241692122E+01 -0.20441719948E+02  0.24445731414E+02  0.59301930075E+02  0.49999974554E+02 0.  0.
        -12    1    1    2    0    0 -0.11241692122E+01  0.20441719948E+02 -0.24445731414E+02  0.31886069925E+02  0.00000000000E+00 0.  1.
         11    1    3    3    0    0  0.59917575980E+00 -0.27484847153E+01  0.34574233711E+02  0.34688482480E+02  0.51100000000E-03 0. -1.
        -11    1    3    3    0    0  0.32112175896E+01 -0.16601210628E+02 -0.12368135858E+02  0.20949532157E+02  0.51100000000E-03 0.  1.
         12    1    3    3    0    0 -0.26862241372E+01 -0.10920246054E+01  0.22396335615E+01  0.36639154389E+01  0.00000000000E+00 0. -1.
</event>
<event>
 7    1  0.1113211E-011  0.5930155E+02  0.7816164E-02  0.1266606E+00
        -11   -1    0    0    0    0  0.00000000000E+00  0.00000000000E+00  0.45593999997E+02  0.45594000000E+02  0.51100000000E-03 0. -1.
         11   -1    0    0    0    0 -0.00000000000E+00 -0.00000000000E+00 -0.45593999997E+02  0.45594000000E+02  0.51100000000E-03 0.  1.
    9900012    2    1    2    0    0 -0.22272405356E+02  0.17847161970E+02  0.14218447510E+02  0.59301553345E+02  0.49999287483E+02 0.  0.
        -12    1    1    2    0    0  0.22272405356E+02 -0.17847161970E+02 -0.14218447510E+02  0.31886446655E+02  0.00000000000E+00 0.  1.
         11    1    3    3    0    0  0.10867972076E+02  0.71270286946E+01 -0.51641453401E+00  0.13006692097E+02  0.51100000000E-03 0. -1.
        -11    1    3    3    0    0 -0.34660607599E+02  0.17334771351E+01  0.12711070053E+02  0.36958543860E+02  0.51100000000E-03 0.  1.
         12    1    3    3    0    0  0.15202301666E+01  0.89866561400E+01  0.20237919908E+01  0.93363173875E+01  0.00000000000E+00 0. -1.
</event>
<event>
 7    1  0.1113211E-011  0.5930193E+02  0.7816164E-02  0.1266605E+00
        -11   -1    0    0    0    0  0.00000000000E+00  0.00000000000E+00  0.45593999997E+02  0.45594000000E+02  0.51100000000E-03 0.  1.
         11   -1    0    0    0    0 -0.00000000000E+00 -0.00000000000E+00 -0.45593999997E+02  0.45594000000E+02  0.51100000000E-03 0. -1.
    9900012    2    1    2    0    0  0.31363690724E+02 -0.51992854081E+01  0.24510691245E+01  0.59301930872E+02  0.49999976008E+02 0.  0.
        -12    1    1    2    0    0 -0.31363690724E+02  0.51992854081E+01 -0.24510691245E+01  0.31886069128E+02  0.00000000000E+00 0.  1.
         11    1    3    3    0    0  0.19186304508E+02 -0.20212992432E+02 -0.96769539409E+01  0.29501233560E+02  0.51100000000E-03 0. -1.
        -11    1    3    3    0    0  0.58343658338E+01  0.14156843136E+02 -0.84433038792E+00  0.15335218496E+02  0.51100000000E-03 0.  1.
         12    1    3    3    0    0  0.63430203819E+01  0.85686388777E+00  0.12972353453E+02  0.14465478817E+02  0.00000000000E+00 0. -1.
</event>
<event>
 7    1  0.1113211E-011  0.5930195E+02  0.7816164E-02  0.1266605E+00
        -11   -1    0    0    0    0  0.00000000000E+00  0.00000000000E+00  0.45593999997E+02  0.45594000000E+02  0.51100000000E-03 0. -1.
         11   -1    0    0    0    0 -0.00000000000E+00 -0.00000000000E+00 -0.45593999997E+02  0.45594000000E+02  0.51100000000E-03 0.  1.
    9900012    2    1    2    0    0  0.12058991229E+02 -0.29284240070E+02  0.37059727259E+01  0.59301949449E+02  0.50000009887E+02 0.  0.
        -12    1    1    2    0    0 -0.12058991229E+02  0.29284240070E+02 -0.37059727259E+01  0.31886050551E+02  0.00000000000E+00 0.  1.
         11    1    3    3    0    0  0.22426973598E+02 -0.12324226316E+01  0.48207883683E+01  0.22972331425E+02  0.51100000000E-03 0.  1.
        -11    1    3    3    0    0 -0.11112149139E+02 -0.10206604354E+02 -0.81316948591E+01  0.17139985195E+02  0.51100000000E-03 0. -1.
        -12    1    3    3    0    0  0.74416676979E+00 -0.17845213084E+02  0.70168792167E+01  0.19189632829E+02  0.00000000000E+00 0.  1.
</event>
<event>
 7    1  0.1113211E-011  0.5930196E+02  0.7816164E-02  0.1266605E+00
        -11   -1    0    0    0    0  0.00000000000E+00  0.00000000000E+00  0.45593999997E+02  0.45594000000E+02  0.51100000000E-03 0.  1.
         11   -1    0    0    0    0 -0.00000000000E+00 -0.00000000000E+00 -0.45593999997E+02  0.45594000000E+02  0.51100000000E-03 0. -1.
    9900012    2    1    2    0    0  0.35660109710E+01 -0.27861419998E+02 -0.15091192738E+02  0.59301964548E+02  0.50000037425E+02 0.  0.
        -12    1    1    2    0    0 -0.35660109710E+01  0.27861419998E+02  0.15091192738E+02  0.31886035452E+02  0.00000000000E+00 0.  1.
         11    1    3    3    0    0 -0.10339293648E+02  0.15422457071E+01  0.11162505183E+02  0.15293169626E+02  0.51100000000E-03 0. -1.
        -11    1    3    3    0    0  0.47988703566E+01 -0.12033608622E+02 -0.24817459835E+01  0.13190752691E+02  0.51100000000E-03 0.  1.
         12    1    3    3    0    0  0.91064342628E+01 -0.17370057083E+02 -0.23771951938E+02  0.30818042232E+02  0.00000000000E+00 0. -1.
</event>
<event>
 7    1  0.1113211E-011  0.5930198E+02  0.7816164E-02  0.1266605E+00
        -11   -1    0    0    0    0  0.00000000000E+00  0.00000000000E+00  0.45593999997E+02  0.45594000000E+02  0.51100000000E-03 0. -1.
         11   -1    0    0    0    0 -0.00000000000E+00 -0.00000000000E+00 -0.45593999997E+02  0.45594000000E+02  0.51100000000E-03 0.  1.
    9900012    2    1    2    0    0  0.12846783413E+02 -0.21915927744E+02  0.19270970991E+02  0.59301983380E+02  0.50000071769E+02 0.  0.
        -12    1    1    2    0    0 -0.12846783413E+02  0.21915927744E+02 -0.19270970991E+02  0.31886016620E+02  0.00000000000E+00 0.  1.
         11    1    3    3    0    0  0.11603769099E+02 -0.28645689881E+02  0.12005032963E+02  0.33156354184E+02  0.51100000000E-03 0. -1.
        -11    1    3    3    0    0  0.35142228013E+01  0.15336395630E+02  0.21532331885E+01  0.15880529155E+02  0.51100000000E-03 0.  1.
        -12    1    3    3    0    0 -0.22712084874E+01 -0.86066334934E+01  0.51127048390E+01  0.10265100041E+02  0.00000000000E+00 0.  1.
</event>
<event>
 7    1  0.1113211E-011  0.5930177E+02  0.7816164E-02  0.1266605E+00
        -11   -1    0    0    0    0  0.00000000000E+00  0.00000000000E+00  0.45593999997E+02  0.45594000000E+02  0.51100000000E-03 0.  1.
         11   -1    0    0    0    0 -0.00000000000E+00 -0.00000000000E+00 -0.45593999997E+02  0.45594000000E+02  0.51100000000E-03 0. -1.
    9900012    2    1    2    0    0 -0.27819963670E+02  0.14966349474E+02 -0.43346889404E+01  0.59301772199E+02  0.49999686624E+02 0.  0.
        -12    1    1    2    0    0  0.27819963670E+02 -0.14966349474E+02  0.43346889404E+01  0.31886227801E+02  0.00000000000E+00 0.  1.
         11    1    3    3    0    0 -0.32629753525E+01  0.16615969933E+02 -0.35484980812E+01  0.17301135912E+02  0.51100000000E-03 0. -1.
        -11    1    3    3    0    0 -0.79017198328E+01 -0.14471028185E+02 -0.97449282401E+01  0.19152322567E+02  0.51100000000E-03 0.  1.
        -12    1    3    3    0    0 -0.16655268485E+02  0.12821407726E+02  0.89587373810E+01  0.22848313720E+02  0.00000000000E+00 0.  1.
</event>
<event>
 7    1  0.1113211E-011  0.5930193E+02  0.7816164E-02  0.1266605E+00
        -11   -1    0    0    0    0  0.00000000000E+00  0.00000000000E+00  0.45593999997E+02  0.45594000000E+02  0.51100000000E-03 0.  1.
         11   -1    0    0    0    0 -0.00000000000E+00 -0.00000000000E+00 -0.45593999997E+02  0.45594000000E+02  0.51100000000E-03 0. -1.
    9900012    2    1    2    0    0 -0.67107722654E+01  0.30024886466E+02  0.83781283479E+01  0.59301932411E+02  0.49999978814E+02 0.  0.
        -12    1    1    2    0    0  0.67107722654E+01 -0.30024886466E+02 -0.83781283479E+01  0.31886067589E+02  0.00000000000E+00 0.  1.
         11    1    3    3    0    0 -0.20710866134E+02  0.13998014533E+02 -0.12041579147E+02  0.27746783876E+02  0.51100000000E-03 0. -1.
        -11    1    3    3    0    0  0.11636050401E+02  0.90460476199E+01  0.71623483990E+01  0.16386820354E+02  0.51100000000E-03 0.  1.
         12    1    3    3    0    0  0.23640434675E+01  0.69808243128E+01  0.13257359096E+02  0.15168328181E+02  0.00000000000E+00 0. -1.
</event>
<event>
 7    1  0.1113211E-011  0.5930196E+02  0.7816164E-02  0.1266605E+00
        -11   -1    0    0    0    0  0.00000000000E+00  0.00000000000E+00  0.45593999997E+02  0.45594000000E+02  0.51100000000E-03 0.  1.
         11   -1    0    0    0    0 -0.00000000000E+00 -0.00000000000E+00 -0.45593999997E+02  0.45594000000E+02  0.51100000000E-03 0. -1.
    9900012    2    1    2    0    0  0.20284735943E+02  0.22375076300E+02 -0.10227657890E+02  0.59301960145E+02  0.50000029394E+02 0.  0.
        -12    1    1    2    0    0 -0.20284735943E+02 -0.22375076300E+02  0.10227657890E+02  0.31886039855E+02  0.00000000000E+00 0.  1.
         11    1    3    3    0    0 -0.56965169508E+01  0.26294283032E+02 -0.75661186033E+01  0.27947911845E+02  0.51100000000E-03 0. -1.
        -11    1    3    3    0    0  0.24976259056E+02  0.15609348406E+01  0.33620269152E+00  0.25027246483E+02  0.51100000000E-03 0.  1.
        -12    1    3    3    0    0  0.10049938384E+01 -0.54801415723E+01 -0.29977419779E+01  0.63268018172E+01  0.00000000000E+00 0.  1.
</event>
<event>
 7    1  0.1113211E-011  0.5930193E+02  0.7816164E-02  0.1266605E+00
        -11   -1    0    0    0    0  0.00000000000E+00  0.00000000000E+00  0.45593999997E+02  0.45594000000E+02  0.51100000000E-03 0. -1.
         11   -1    0    0    0    0 -0.00000000000E+00 -0.00000000000E+00 -0.45593999997E+02  0.45594000000E+02  0.51100000000E-03 0.  1.
    9900012    2    1    2    0    0  0.17766951100E+02 -0.26377297047E+02 -0.23011112730E+01  0.59301929938E+02  0.49999974305E+02 0.  0.
        -12    1    1    2    0    0 -0.17766951100E+02  0.26377297047E+02  0.23011112730E+01  0.31886070062E+02  0.00000000000E+00 0.  1.
         11    1    3    3    0    0  0.20512978792E+02 -0.15245032116E+02  0.98346162511E+01  0.27384539072E+02  0.51100000000E-03 0. -1.
        -11    1    3    3    0    0 -0.48726953187E+01  0.84821451933E+01 -0.43894585913E+01  0.10721813920E+02  0.51100000000E-03 0.  1.
        -12    1    3    3    0    0  0.21266676270E+01 -0.19614410124E+02 -0.77462689328E+01  0.21195576946E+02  0.00000000000E+00 0.  1.
</event>
<event>
 7    1  0.1113211E-011  0.5930195E+02  0.7816164E-02  0.1266605E+00
        -11   -1    0    0    0    0  0.00000000000E+00  0.00000000000E+00  0.45593999997E+02  0.45594000000E+02  0.51100000000E-03 0.  1.
         11   -1    0    0    0    0 -0.00000000000E+00 -0.00000000000E+00 -0.45593999997E+02  0.45594000000E+02  0.51100000000E-03 0. -1.
    9900012    2    1    2    0    0 -0.20158730653E+02 -0.24345866907E+02 -0.41981596636E+01  0.59301949734E+02  0.50000010408E+02 0.  0.
        -12    1    1    2    0    0  0.20158730653E+02  0.24345866907E+02  0.41981596636E+01  0.31886050266E+02  0.00000000000E+00 0.  1.
         11    1    3    3    0    0 -0.30301242936E+02 -0.73086494111E+01  0.84919498042E+01  0.32306267061E+02  0.51100000000E-03 0. -1.
        -11    1    3    3    0    0 -0.19795157708E+01  0.31998542138E+00  0.48072680405E+00  0.20620310081E+01  0.51100000000E-03 0.  1.
         12    1    3    3    0    0  0.12122028054E+02 -0.17357202917E+02 -0.13170836272E+02  0.24933651665E+02  0.00000000000E+00 0. -1.
</event>
<event>
 7    1  0.1113211E-011  0.5930196E+02  0.7816164E-02  0.1266605E+00
        -11   -1    0    0    0    0  0.00000000000E+00  0.00000000000E+00  0.45593999997E+02  0.45594000000E+02  0.51100000000E-03 0.  1.
         11   -1    0    0    0    0 -0.00000000000E+00 -0.00000000000E+00 -0.45593999997E+02  0.45594000000E+02  0.51100000000E-03 0. -1.
    9900012    2    1    2    0    0 -0.58489133112E+01  0.57948655693E+01 -0.30804691120E+02  0.59301964673E+02  0.50000037652E+02 0.  0.
        -12    1    1    2    0    0  0.58489133112E+01 -0.57948655693E+01  0.30804691120E+02  0.31886035327E+02  0.00000000000E+00 0.  1.
         11    1    3    3    0    0  0.14548751321E+02 -0.68680638635E+01 -0.53943220904E+01  0.16968652784E+02  0.51100000000E-03 0. -1.
        -11    1    3    3    0    0 -0.21999033519E+02  0.17876626333E+02 -0.22194249820E+02  0.36001610661E+02  0.51100000000E-03 0.  1.
        -12    1    3    3    0    0  0.16013688868E+01 -0.52136969002E+01 -0.32161192092E+01  0.63317012284E+01  0.00000000000E+00 0.  1.
</event>
<event>
 7    1  0.1113211E-011  0.5930193E+02  0.7816164E-02  0.1266605E+00
        -11   -1    0    0    0    0  0.00000000000E+00  0.00000000000E+00  0.45593999997E+02  0.45594000000E+02  0.51100000000E-03 0. -1.
         11   -1    0    0    0    0 -0.00000000000E+00 -0.00000000000E+00 -0.45593999997E+02  0.45594000000E+02  0.51100000000E-03 0.  1.
    9900012    2    1    2    0    0 -0.24521287097E+02 -0.85519723509E+01  0.18501124433E+02  0.59301931612E+02  0.49999977357E+02 0.  0.
        -12    1    1    2    0    0  0.24521287097E+02  0.85519723509E+01 -0.18501124433E+02  0.31886068388E+02  0.00000000000E+00 0.  1.
         11    1    3    3    0    0 -0.15149924574E+02 -0.85689431140E+01  0.18455370175E+02  0.25368241745E+02  0.51100000000E-03 0. -1.
        -11    1    3    3    0    0  0.64800756725E+01  0.10648555483E+02  0.61431339546E+01  0.13896805735E+02  0.51100000000E-03 0.  1.
        -12    1    3    3    0    0 -0.15851438195E+02 -0.10631584720E+02 -0.60973796969E+01  0.20036884131E+02  0.00000000000E+00 0.  1.
</event>
<event>
 7    1  0.1113211E-011  0.5930194E+02  0.7816164E-02  0.1266605E+00
        -11   -1    0    0    0    0  0.00000000000E+00  0.00000000000E+00  0.45593999997E+02  0.45594000000E+02  0.51100000000E-03 0.  1.
         11   -1    0    0    0    0 -0.00000000000E+00 -0.00000000000E+00 -0.45593999997E+02  0.45594000000E+02  0.51100000000E-03 0. -1.
    9900012    2    1    2    0    0 -0.29930995798E+02 -0.60509674062E+01 -0.91783362920E+01  0.59301943908E+02  0.49999999782E+02 0.  0.
        -12    1    1    2    0    0  0.29930995798E+02  0.60509674062E+01  0.91783362920E+01  0.31886056092E+02  0.00000000000E+00 0.  1.
         11    1    3    3    0    0 -0.16900622417E+02  0.14187926504E+02 -0.21639187343E+02  0.30906030572E+02  0.51100000000E-03 0. -1.
        -11    1    3    3    0    0 -0.61761775483E+01 -0.29359613043E+01  0.24563030078E+01  0.72662550613E+01  0.51100000000E-03 0.  1.
         12    1    3    3    0    0 -0.68541958329E+01 -0.17302932606E+02  0.10004548043E+02  0.21129658275E+02  0.00000000000E+00 0. -1.
</event>
<event>
 7    1  0.1113211E-011  0.5930196E+02  0.7816164E-02  0.1266605E+00
        -11   -1    0    0    0    0  0.00000000000E+00  0.00000000000E+00  0.45593999997E+02  0.45594000000E+02  0.51100000000E-03 0.  1.
         11   -1    0    0    0    0 -0.00000000000E+00 -0.00000000000E+00 -0.45593999997E+02  0.45594000000E+02  0.51100000000E-03 0. -1.
    9900012    2    1    2    0    0  0.57495658227E+01  0.29724034038E+02 -0.10007180560E+02  0.59301962784E+02  0.50000034206E+02 0.  0.
        -12    1    1    2    0    0 -0.57495658227E+01 -0.29724034038E+02  0.10007180560E+02  0.31886037216E+02  0.00000000000E+00 0.  1.
         11    1    3    3    0    0  0.12620659059E+02  0.14907792342E+02 -0.36876079589E+01  0.19877669892E+02  0.51100000000E-03 0. -1.
        -11    1    3    3    0    0 -0.10523864437E+02 -0.95890512804E+01 -0.23339443557E+01  0.14427367177E+02  0.51100000000E-03 0.  1.
        -12    1    3    3    0    0  0.36527712012E+01  0.24405292976E+02 -0.39856282451E+01  0.24996925715E+02  0.00000000000E+00 0.  1.
</event>
<event>
 7    1  0.1113211E-011  0.5930192E+02  0.7816164E-02  0.1266605E+00
        -11   -1    0    0    0    0  0.00000000000E+00  0.00000000000E+00  0.45593999997E+02  0.45594000000E+02  0.51100000000E-03 0.  1.
         11   -1    0    0    0    0 -0.00000000000E+00 -0.00000000000E+00 -0.45593999997E+02  0.45594000000E+02  0.51100000000E-03 0. -1.
    9900012    2    1    2    0    0 -0.23494631365E+01 -0.15421524816E+01 -0.31761986119E+02  0.59301921948E+02  0.49999959732E+02 0.  0.
        -12    1    1    2    0    0  0.23494631365E+01  0.15421524816E+01  0.31761986119E+02  0.31886078052E+02  0.00000000000E+00 0.  1.
         11    1    3    3    0    0  0.16661732250E+02  0.62067464329E+00 -0.25412370296E+02  0.30393866534E+02  0.51100000000E-03 0. -1.
        -11    1    3    3    0    0 -0.13679638758E+02  0.70000503554E+01  0.18886131715E+01  0.15482250531E+02  0.51100000000E-03 0.  1.
        -12    1    3    3    0    0 -0.53315566277E+01 -0.91628774803E+01 -0.82382289949E+01  0.13425804883E+02  0.00000000000E+00 0.  1.
</event>
<event>
 7    1  0.1113211E-011  0.5930191E+02  0.7816164E-02  0.1266605E+00
        -11   -1    0    0    0    0  0.00000000000E+00  0.00000000000E+00  0.45593999997E+02  0.45594000000E+02  0.51100000000E-03 0.  1.
         11   -1    0    0    0    0 -0.00000000000E+00 -0.00000000000E+00 -0.45593999997E+02  0.45594000000E+02  0.51100000000E-03 0. -1.
    9900012    2    1    2    0    0 -0.30749407005E+02 -0.33646317834E+01 -0.77379524337E+01  0.59301910775E+02  0.49999939355E+02 0.  0.
        -12    1    1    2    0    0  0.30749407005E+02  0.33646317834E+01  0.77379524337E+01  0.31886089225E+02  0.00000000000E+00 0.  1.
         11    1    3    3    0    0 -0.46105830999E+01 -0.72689560553E+01 -0.14334555049E+02  0.16720486457E+02  0.51100000000E-03 0. -1.
        -11    1    3    3    0    0 -0.20646533355E+01 -0.61582033077E+00  0.16147362216E+02  0.16290467607E+02  0.51100000000E-03 0.  1.
        -12    1    3    3    0    0 -0.24074170569E+02  0.45201446026E+01 -0.95507596004E+01  0.26290956711E+02  0.00000000000E+00 0.  1.
</event>
<event>
 7    1  0.1113211E-011  0.5930196E+02  0.7816164E-02  0.1266605E+00
        -11   -1    0    0    0    0  0.00000000000E+00  0.00000000000E+00  0.45593999997E+02  0.45594000000E+02  0.51100000000E-03 0. -1.
         11   -1    0    0    0    0 -0.00000000000E+00 -0.00000000000E+00 -0.45593999997E+02  0.45594000000E+02  0.51100000000E-03 0.  1.
    9900012    2    1    2    0    0  0.30585668141E+02  0.44090039950E+01  0.78611225176E+01  0.59301958241E+02  0.50000025921E+02 0.  0.
        -12    1    1    2    0    0 -0.30585668141E+02 -0.44090039950E+01 -0.78611225176E+01  0.31886041759E+02  0.00000000000E+00 0.  1.
         11    1    3    3    0    0  0.31110416589E+02  0.30711022327E+01 -0.73375264249E+01  0.32111197168E+02  0.51100000000E-03 0.  1.
        -11    1    3    3    0    0 -0.79380397450E+01  0.69750354776E+01  0.15687130221E+01  0.10682904835E+02  0.51100000000E-03 0. -1.
         12    1    3    3    0    0  0.74132912972E+01 -0.56371337152E+01  0.13629935920E+02  0.16507856238E+02  0.00000000000E+00 0. -1.
</event>
<event>
 7    1  0.1113211E-011  0.5930196E+02  0.7816164E-02  0.1266605E+00
        -11   -1    0    0    0    0  0.00000000000E+00  0.00000000000E+00  0.45593999997E+02  0.45594000000E+02  0.51100000000E-03 0.  1.
         11   -1    0    0    0    0 -0.00000000000E+00 -0.00000000000E+00 -0.45593999997E+02  0.45594000000E+02  0.51100000000E-03 0. -1.
    9900012    2    1    2    0    0 -0.28271291638E+02  0.24599507493E+01 -0.14539668916E+02  0.59301964486E+02  0.50000037312E+02 0.  0.
        -12    1    1    2    0    0  0.28271291638E+02 -0.24599507493E+01  0.14539668916E+02  0.31886035514E+02  0.00000000000E+00 0.  1.
         11    1    3    3    0    0 -0.37058870134E+02 -0.77037262738E+01 -0.25669848237E+01  0.37938063544E+02  0.51100000000E-03 0. -1.
        -11    1    3    3    0    0  0.10139234149E+02  0.67158547195E+01 -0.12706399110E+02  0.17588614282E+02  0.51100000000E-03 0.  1.
        -12    1    3    3    0    0 -0.13516556540E+01  0.34478223036E+01  0.73371501793E+00  0.37752866609E+01  0.00000000000E+00 0.  1.
</event>
<event>
 7    1  0.1113211E-011  0.5930182E+02  0.7816164E-02  0.1266605E+00
        -11   -1    0    0    0    0  0.00000000000E+00  0.00000000000E+00  0.45593999997E+02  0.45594000000E+02  0.51100000000E-03 0. -1.
         11   -1    0    0    0    0 -0.00000000000E+00 -0.00000000000E+00 -0.45593999997E+02  0.45594000000E+02  0.51100000000E-03 0.  1.
    9900012    2    1    2    0    0  0.18214394432E+02  0.20434009142E+02  0.16352845445E+02  0.59301820419E+02  0.49999774566E+02 0.  0.
        -12    1    1    2    0    0 -0.18214394432E+02 -0.20434009142E+02 -0.16352845445E+02  0.31886179581E+02  0.00000000000E+00 0.  1.
         11    1    3    3    0    0 -0.17543276926E+01  0.10239134001E+01  0.36709513962E+01  0.41954676400E+01  0.51100000000E-03 0. -1.
        -11    1    3    3    0    0  0.79655867706E+01  0.21751201444E+02 -0.13070981046E+02  0.26597290889E+02  0.51100000000E-03 0.  1.
        -12    1    3    3    0    0  0.12003135354E+02 -0.23411057015E+01  0.25752875094E+02  0.28509061890E+02  0.00000000000E+00 0.  1.
</event>
<event>
 7    1  0.1113211E-011  0.5930195E+02  0.7816164E-02  0.1266605E+00
        -11   -1    0    0    0    0  0.00000000000E+00  0.00000000000E+00  0.45593999997E+02  0.45594000000E+02  0.51100000000E-03 0.  1.
         11   -1    0    0    0    0 -0.00000000000E+00 -0.00000000000E+00 -0.45593999997E+02  0.45594000000E+02  0.51100000000E-03 0. -1.
    9900012    2    1    2    0    0 -0.27358845423E+02 -0.15282891832E+02  0.58861821486E+01  0.59301947470E+02  0.50000006278E+02 0.  0.
        -12    1    1    2    0    0  0.27358845423E+02  0.15282891832E+02 -0.58861821486E+01  0.31886052530E+02  0.00000000000E+00 0.  1.
         11    1    3    3    0    0 -0.37658714614E+02 -0.19911251800E+02 -0.25877234571E+01  0.42677078714E+02  0.51100000000E-03 0. -1.
        -11    1    3    3    0    0  0.18867987266E+01  0.33005614842E+01 -0.95375265419E+00  0.39196122171E+01  0.51100000000E-03 0.  1.
         12    1    3    3    0    0  0.84130704643E+01  0.13277984828E+01  0.94276582598E+01  0.12705256539E+02  0.00000000000E+00 0. -1.
</event>
<event>
 7    1  0.1113211E-011  0.5930195E+02  0.7816164E-02  0.1266605E+00
        -11   -1    0    0    0    0  0.00000000000E+00  0.00000000000E+00  0.45593999997E+02  0.45594000000E+02  0.51100000000E-03 0. -1.
         11   -1    0    0    0    0 -0.00000000000E+00 -0.00000000000E+00 -0.45593999997E+02  0.45594000000E+02  0.51100000000E-03 0.  1.
    9900012    2    1    2    0    0  0.11831591018E+02  0.29357907151E+02 -0.38531712906E+01  0.59301949957E+02  0.50000010814E+02 0.  0.
        -12    1    1    2    0    0 -0.11831591018E+02 -0.29357907151E+02  0.38531712906E+01  0.31886050043E+02  0.00000000000E+00 0.  1.
         11    1    3    3    0    0  0.12338615354E+02  0.55241631814E+01  0.11233641818E+02  0.17577045157E+02  0.51100000000E-03 0. -1.
        -11    1    3    3    0    0 -0.91079233050E+01  0.27820413168E+02 -0.12935107473E+02  0.32003853852E+02  0.51100000000E-03 0.  1.
        -12    1    3    3    0    0  0.86008989698E+01 -0.39866691984E+01 -0.21517056357E+01  0.97210509478E+01  0.00000000000E+00 0.  1.
</event>
<event>
 7    1  0.1113211E-011  0.5930195E+02  0.7816164E-02  0.1266605E+00
        -11   -1    0    0    0    0  0.00000000000E+00  0.00000000000E+00  0.45593999997E+02  0.45594000000E+02  0.51100000000E-03 0.  1.
         11   -1    0    0    0    0 -0.00000000000E+00 -0.00000000000E+00 -0.45593999997E+02  0.45594000000E+02  0.51100000000E-03 0. -1.
    9900012    2    1    2    0    0  0.65432930178E+01 -0.30851483801E+02 -0.47001267971E+01  0.59301954021E+02  0.50000018226E+02 0.  0.
        -12    1    1    2    0    0 -0.65432930178E+01  0.30851483801E+02  0.47001267971E+01  0.31886045979E+02  0.00000000000E+00 0.  1.
         11    1    3    3    0    0  0.57586401948E+01 -0.85631541046E+01 -0.56363399876E+01  0.11758310841E+02  0.51100000000E-03 0. -1.
        -11    1    3    3    0    0  0.17479166089E+01  0.98267921884E+01 -0.94822338673E+01  0.13767128116E+02  0.51100000000E-03 0.  1.
        -12    1    3    3    0    0 -0.96326378583E+00 -0.32115121885E+02  0.10418447058E+02  0.33776515065E+02  0.00000000000E+00 0.  1.
</event>
<event>
 7    1  0.1113211E-011  0.5930194E+02  0.7816164E-02  0.1266605E+00
        -11   -1    0    0    0    0  0.00000000000E+00  0.00000000000E+00  0.45593999997E+02  0.45594000000E+02  0.51100000000E-03 0.  1.
         11   -1    0    0    0    0 -0.00000000000E+00 -0.00000000000E+00 -0.45593999997E+02  0.45594000000E+02  0.51100000000E-03 0. -1.
    9900012    2    1    2    0    0 -0.21428207772E+02 -0.70376155877E+01 -0.22539397344E+02  0.59301944205E+02  0.50000000324E+02 0.  0.
        -12    1    1    2    0    0  0.21428207772E+02  0.70376155877E+01  0.22539397344E+02  0.31886055795E+02  0.00000000000E+00 0.  1.
         11    1    3    3    0    0  0.20005302149E+01 -0.56376376104E+01 -0.15971205278E+02  0.17054749404E+02  0.51100000000E-03 0. -1.
        -11    1    3    3    0    0 -0.31300433351E+02 -0.12425838712E+01  0.97963908766E+00  0.31340402608E+02  0.51100000000E-03 0.  1.
        -12    1    3    3    0    0  0.78716953637E+01 -0.15739410611E+00 -0.75478311544E+01  0.10906792193E+02  0.00000000000E+00 0.  1.
</event>
<event>
 7    1  0.1113211E-011  0.5930194E+02  0.7816164E-02  0.1266605E+00
        -11   -1    0    0    0    0  0.00000000000E+00  0.00000000000E+00  0.45593999997E+02  0.45594000000E+02  0.51100000000E-03 0.  1.
         11   -1    0    0    0    0 -0.00000000000E+00 -0.00000000000E+00 -0.45593999997E+02  0.45594000000E+02  0.51100000000E-03 0. -1.
    9900012    2    1    2    0    0  0.15298238245E+02  0.12035889316E+02  0.25255137722E+02  0.59301941818E+02  0.49999995971E+02 0.  0.
        -12    1    1    2    0    0 -0.15298238245E+02 -0.12035889316E+02 -0.25255137722E+02  0.31886058182E+02  0.00000000000E+00 0.  1.
         11    1    3    3    0    0  0.22601664439E+02  0.17475880180E+02  0.12941915547E+02  0.31364546893E+02  0.51100000000E-03 0. -1.
        -11    1    3    3    0    0 -0.99886890166E+01 -0.12246247681E+02  0.13168577147E+02  0.20570753872E+02  0.51100000000E-03 0.  1.
        -12    1    3    3    0    0  0.26852628220E+01  0.68062568168E+01 -0.85535497214E+00  0.73666410532E+01  0.00000000000E+00 0.  1.
</event>
<event>
 7    1  0.1113211E-011  0.5930193E+02  0.7816164E-02  0.1266605E+00
        -11   -1    0    0    0    0  0.00000000000E+00  0.00000000000E+00  0.45593999997E+02  0.45594000000E+02  0.51100000000E-03 0. -1.
         11   -1    0    0    0    0 -0.00000000000E+00 -0.00000000000E+00 -0.45593999997E+02  0.45594000000E+02  0.51100000000E-03 0.  1.
    9900012    2    1    2    0    0  0.16132544794E+02 -0.26951746176E+02  0.54832278559E+01  0.59301930766E+02  0.49999975814E+02 0.  0.
        -12    1    1    2    0    0 -0.16132544794E+02  0.26951746176E+02 -0.54832278559E+01  0.31886069234E+02  0.00000000000E+00 0.  1.
         11    1    3    3    0    0  0.85658661552E+00 -0.36004292876E+02  0.12712432714E+02  0.38192260890E+02  0.51100000000E-03 0. -1.
        -11    1    3    3    0    0  0.12406098886E+02  0.77081608336E+01 -0.16571560145E+01  0.14699428537E+02  0.51100000000E-03 0.  1.
        -12    1    3    3    0    0  0.28698592928E+01  0.13443858659E+01 -0.55720488434E+01  0.64102413395E+01  0.00000000000E+00 0.  1.
</event>
<event>
 7    1  0.1113211E-011  0.5930193E+02  0.7816164E-02  0.1266605E+00
        -11   -1    0    0    0    0  0.00000000000E+00  0.00000000000E+00  0.45593999997E+02  0.45594000000E+02  0.51100000000E-03 0.  1.
         11   -1    0    0    0    0 -0.00000000000E+00 -0.00000000000E+00 -0.45593999997E+02  0.45594000000E+02  0.51100000000E-03 0. -1.
    9900012    2    1    2    0    0  0.50685367298E+01 -0.11615208164E+02 -0.29259495106E+02  0.59301934405E+02  0.49999982450E+02 0.  0.
        -12    1    1    2    0    0 -0.50685367298E+01  0.11615208164E+02  0.29259495106E+02  0.31886065595E+02  0.00000000000E+00 0.  1.
         11    1    3    3    0    0 -0.11595364729E+02  0.15115841956E+02 -0.13293699822E+02  0.23230661128E+02  0.51100000000E-03 0. -1.
        -11    1    3    3    0    0  0.59225003921E+01 -0.15080600247E+02 -0.56308973487E+01  0.17152478536E+02  0.51100000000E-03 0.  1.
         12    1    3    3    0    0  0.10741401066E+02 -0.11650449873E+02 -0.10334897935E+02  0.18918794741E+02  0.00000000000E+00 0. -1.
</event>
<event>
 7    1  0.1113211E-011  0.5930193E+02  0.7816164E-02  0.1266605E+00
        -11   -1    0    0    0    0  0.00000000000E+00  0.00000000000E+00  0.45593999997E+02  0.45594000000E+02  0.51100000000E-03 0.  1.
         11   -1    0    0    0    0 -0.00000000000E+00 -0.00000000000E+00 -0.45593999997E+02  0.45594000000E+02  0.51100000000E-03 0. -1.
    9900012    2    1    2    0    0 -0.14805850413E+02 -0.22614668759E+02 -0.16914048610E+02  0.59301929531E+02  0.49999973562E+02 0.  0.
        -12    1    1    2    0    0  0.14805850413E+02  0.22614668759E+02  0.16914048610E+02  0.31886070469E+02  0.00000000000E+00 0.  1.
         11    1    3    3    0    0 -0.13860007153E+01  0.14081907088E+02 -0.89289365638E+01  0.16731617186E+02  0.51100000000E-03 0. -1.
        -11    1    3    3    0    0 -0.52823615486E+01 -0.25214904156E+02  0.11576164848E+01  0.25788268870E+02  0.51100000000E-03 0.  1.
         12    1    3    3    0    0 -0.81374881495E+01 -0.11481671691E+02 -0.91427285314E+01  0.16782043475E+02  0.00000000000E+00 0. -1.
</event>
<event>
 7    1  0.1113211E-011  0.5930191E+02  0.7816164E-02  0.1266605E+00
        -11   -1    0    0    0    0  0.00000000000E+00  0.00000000000E+00  0.45593999997E+02  0.45594000000E+02  0.51100000000E-03 0. -1.
         11   -1    0    0    0    0 -0.00000000000E+00 -0.00000000000E+00 -0.45593999997E+02  0.45594000000E+02  0.51100000000E-03 0.  1.
    9900012    2    1    2    0    0 -0.23281603293E+02 -0.20213744052E+02  0.81298195274E+01  0.59301914225E+02  0.49999945647E+02 0.  0.
        -12    1    1    2    0    0  0.23281603293E+02  0.20213744052E+02 -0.81298195274E+01  0.31886085775E+02  0.00000000000E+00 0.  1.
         11    1    3    3    0    0  0.15661741522E+01 -0.53940361803E+01  0.11929127424E+02  0.13185317939E+02  0.51100000000E-03 0. -1.
        -11    1    3    3    0    0 -0.14777701684E+02  0.51236302002E+01 -0.14515026266E+02  0.21338182707E+02  0.51100000000E-03 0.  1.
        -12    1    3    3    0    0 -0.10070075762E+02 -0.19943338072E+02  0.10715718369E+02  0.24778413578E+02  0.00000000000E+00 0.  1.
</event>
<event>
 7    1  0.1113211E-011  0.5930195E+02  0.7816164E-02  0.1266605E+00
        -11   -1    0    0    0    0  0.00000000000E+00  0.00000000000E+00  0.45593999997E+02  0.45594000000E+02  0.51100000000E-03 0. -1.
         11   -1    0    0    0    0 -0.00000000000E+00 -0.00000000000E+00 -0.45593999997E+02  0.45594000000E+02  0.51100000000E-03 0.  1.
    9900012    2    1    2    0    0  0.11820155397E+01  0.28259924363E+02  0.14720724349E+02  0.59301949585E+02  0.50000010135E+02 0.  0.
        -12    1    1    2    0    0 -0.11820155397E+01 -0.28259924363E+02 -0.14720724349E+02  0.31886050415E+02  0.00000000000E+00 0.  1.
         11    1    3    3    0    0  0.26447389597E+01 -0.13609355483E+02  0.19051214757E+01  0.13994237704E+02  0.51100000000E-03 0. -1.
        -11    1    3    3    0    0 -0.57293795216E+01  0.24973542000E+02  0.10649936267E+02  0.27747517591E+02  0.51100000000E-03 0.  1.
         12    1    3    3    0    0  0.42666561016E+01  0.16895737846E+02  0.21656666056E+01  0.17560194290E+02  0.00000000000E+00 0. -1.
</event>
<event>
 7    1  0.1113211E-011  0.5930196E+02  0.7816164E-02  0.1266605E+00
        -11   -1    0    0    0    0  0.00000000000E+00  0.00000000000E+00  0.45593999997E+02  0.45594000000E+02  0.51100000000E-03 0.  1.
         11   -1    0    0    0    0 -0.00000000000E+00 -0.00000000000E+00 -0.45593999997E+02  0.45594000000E+02  0.51100000000E-03 0. -1.
    9900012    2    1    2    0    0  0.17500587338E+02 -0.17871153626E+02 -0.19775517900E+02  0.59301956073E+02  0.50000021967E+02 0.  0.
        -12    1    1    2    0    0 -0.17500587338E+02  0.17871153626E+02  0.19775517900E+02  0.31886043927E+02  0.00000000000E+00 0.  1.
         11    1    3    3    0    0  0.15745739648E+02  0.38215128323E+01 -0.26486124011E+02  0.31049106956E+02  0.51100000000E-03 0. -1.
        -11    1    3    3    0    0  0.31131725400E+01 -0.44993893157E+01  0.93223445413E+01  0.10809368876E+02  0.51100000000E-03 0.  1.
         12    1    3    3    0    0 -0.13583248494E+01 -0.17193277142E+02 -0.26117384306E+01  0.17443480241E+02  0.00000000000E+00 0. -1.
</event>
<event>
 7    1  0.1113211E-011  0.5930196E+02  0.7816164E-02  0.1266605E+00
        -11   -1    0    0    0    0  0.00000000000E+00  0.00000000000E+00  0.45593999997E+02  0.45594000000E+02  0.51100000000E-03 0.  1.
         11   -1    0    0    0    0 -0.00000000000E+00 -0.00000000000E+00 -0.45593999997E+02  0.45594000000E+02  0.51100000000E-03 0. -1.
    9900012    2    1    2    0    0 -0.12165130597E+02 -0.28349846577E+02 -0.80632165472E+01  0.59301958156E+02  0.50000025767E+02 0.  0.
        -12    1    1    2    0    0  0.12165130597E+02  0.28349846577E+02  0.80632165472E+01  0.31886041844E+02  0.00000000000E+00 0.  1.
         11    1    3    3    0    0 -0.33341798808E+01 -0.88685029411E+01 -0.17647395313E+02  0.20029919158E+02  0.51100000000E-03 0. -1.
        -11    1    3    3    0    0  0.10569747197E+02 -0.12117487010E+02  0.91827895763E+01  0.18516929333E+02  0.51100000000E-03 0.  1.
        -12    1    3    3    0    0 -0.19400697913E+02 -0.73638566257E+01  0.40138918943E+00  0.20755109665E+02  0.00000000000E+00 0.  1.
</event>
<event>
 7    1  0.1113211E-011  0.5930193E+02  0.7816164E-02  0.1266605E+00
        -11   -1    0    0    0    0  0.00000000000E+00  0.00000000000E+00  0.45593999997E+02  0.45594000000E+02  0.51100000000E-03 0.  1.
         11   -1    0    0    0    0 -0.00000000000E+00 -0.00000000000E+00 -0.45593999997E+02  0.45594000000E+02  0.51100000000E-03 0. -1.
    9900012    2    1    2    0    0 -0.19333671953E+02  0.19499798707E+02 -0.16207670216E+02  0.59301927890E+02  0.49999970568E+02 0.  0.
        -12    1    1    2    0    0  0.19333671953E+02 -0.19499798707E+02  0.16207670216E+02  0.31886072110E+02  0.00000000000E+00 0.  1.
         11    1    3    3    0    0  0.37937912721E+01 -0.55493385228E+01  0.40793122425E+01  0.78631290775E+01  0.51100000000E-03 0. -1.
        -11    1    3    3    0    0 -0.19567035473E+02  0.19821085169E+02 -0.29301338087E+02  0.40426633651E+02  0.51100000000E-03 0.  1.
        -12    1    3    3    0    0 -0.35604277520E+01  0.52280520614E+01  0.90143556284E+01  0.11012165161E+02  0.00000000000E+00 0.  1.
</event>
<event>
 7    1  0.1113211E-011  0.5930195E+02  0.7816164E-02  0.1266605E+00
        -11   -1    0    0    0    0  0.00000000000E+00  0.00000000000E+00  0.45593999997E+02  0.45594000000E+02  0.51100000000E-03 0.  1.
         11   -1    0    0    0    0 -0.00000000000E+00 -0.00000000000E+00 -0.45593999997E+02  0.45594000000E+02  0.51100000000E-03 0. -1.
    9900012    2    1    2    0    0 -0.58195163404E+00  0.18069548527E+01 -0.31829492828E+02  0.59301947137E+02  0.50000005670E+02 0.  0.
        -12    1    1    2    0    0  0.58195163404E+00 -0.18069548527E+01  0.31829492828E+02  0.31886052863E+02  0.00000000000E+00 0.  1.
         11    1    3    3    0    0 -0.12083501996E+02  0.81145090741E+00 -0.33380577515E+02  0.35509610369E+02  0.51100000000E-03 0. -1.
        -11    1    3    3    0    0  0.83049140415E+01 -0.78169264718E+01  0.65668536717E+01  0.13160528261E+02  0.51100000000E-03 0.  1.
         12    1    3    3    0    0  0.31966363204E+01  0.88124304171E+01 -0.50157689845E+01  0.10631808507E+02  0.00000000000E+00 0. -1.
</event>
<event>
 7    1  0.1113211E-011  0.5930195E+02  0.7816164E-02  0.1266605E+00
        -11   -1    0    0    0    0  0.00000000000E+00  0.00000000000E+00  0.45593999997E+02  0.45594000000E+02  0.51100000000E-03 0.  1.
         11   -1    0    0    0    0 -0.00000000000E+00 -0.00000000000E+00 -0.45593999997E+02  0.45594000000E+02  0.51100000000E-03 0. -1.
    9900012    2    1    2    0    0  0.28281237049E+02  0.74268509508E+01 -0.12717461391E+02  0.59301948061E+02  0.50000007355E+02 0.  0.
        -12    1    1    2    0    0 -0.28281237049E+02 -0.74268509508E+01  0.12717461391E+02  0.31886051939E+02  0.00000000000E+00 0.  1.
         11    1    3    3    0    0  0.83192002032E+01  0.18114735634E+02 -0.25807383382E+02  0.32609412390E+02  0.51100000000E-03 0. -1.
        -11    1    3    3    0    0  0.22931683779E+01 -0.33187734015E+01  0.14447047659E+01  0.42848629175E+01  0.51100000000E-03 0.  1.
         12    1    3    3    0    0  0.17668868468E+02 -0.73691112813E+01  0.11645217226E+02  0.22407672754E+02  0.00000000000E+00 0. -1.
</event>
<event>
 7    1  0.1113211E-011  0.5930192E+02  0.7816164E-02  0.1266605E+00
        -11   -1    0    0    0    0  0.00000000000E+00  0.00000000000E+00  0.45593999997E+02  0.45594000000E+02  0.51100000000E-03 0.  1.
         11   -1    0    0    0    0 -0.00000000000E+00 -0.00000000000E+00 -0.45593999997E+02  0.45594000000E+02  0.51100000000E-03 0. -1.
    9900012    2    1    2    0    0  0.29071013382E+02  0.41224249729E+01 -0.12433980747E+02  0.59301920217E+02  0.49999956575E+02 0.  0.
        -12    1    1    2    0    0 -0.29071013382E+02 -0.41224249729E+01  0.12433980747E+02  0.31886079783E+02  0.00000000000E+00 0.  1.
         11    1    3    3    0    0  0.12475325395E+01 -0.17210103707E+02 -0.39617083312E+01  0.17704212499E+02  0.51100000000E-03 0. -1.
        -11    1    3    3    0    0  0.15759574726E+02  0.15892432601E+02  0.47613978900E+01  0.22882406334E+02  0.51100000000E-03 0.  1.
        -12    1    3    3    0    0  0.12063906116E+02  0.54400960793E+01 -0.13233670306E+02  0.18715301384E+02  0.00000000000E+00 0.  1.
</event>
<event>
 7    1  0.1113211E-011  0.5930193E+02  0.7816164E-02  0.1266605E+00
        -11   -1    0    0    0    0  0.00000000000E+00  0.00000000000E+00  0.45593999997E+02  0.45594000000E+02  0.51100000000E-03 0.  1.
         11   -1    0    0    0    0 -0.00000000000E+00 -0.00000000000E+00 -0.45593999997E+02  0.45594000000E+02  0.51100000000E-03 0. -1.
    9900012    2    1    2    0    0 -0.22231319920E+02  0.20192290299E+02  0.10712658574E+02  0.59301933660E+02  0.49999981091E+02 0.  0.
        -12    1    1    2    0    0  0.22231319920E+02 -0.20192290299E+02 -0.10712658574E+02  0.31886066340E+02  0.00000000000E+00 0.  1.
         11    1    3    3    0    0 -0.73651268562E+01  0.24200662879E+02 -0.99767534655E+01  0.27192881189E+02  0.51100000000E-03 0. -1.
        -11    1    3    3    0    0 -0.51554774715E+01 -0.10787149748E+02  0.64370784250E+01  0.13578568649E+02  0.51100000000E-03 0.  1.
        -12    1    3    3    0    0 -0.97107155926E+01  0.67787771688E+01  0.14252333614E+02  0.18530483822E+02  0.00000000000E+00 0.  1.
</event>
<event>
 7    1  0.1113211E-011  0.5930199E+02  0.7816164E-02  0.1266605E+00
        -11   -1    0    0    0    0  0.00000000000E+00  0.00000000000E+00  0.45593999997E+02  0.45594000000E+02  0.51100000000E-03 0. -1.
         11   -1    0    0    0    0 -0.00000000000E+00 -0.00000000000E+00 -0.45593999997E+02  0.45594000000E+02  0.51100000000E-03 0.  1.
    9900012    2    1    2    0    0 -0.29940209256E+02  0.33783827986E+01  0.10434934541E+02  0.59301992732E+02  0.50000088825E+02 0.  0.
        -12    1    1    2    0    0  0.29940209256E+02 -0.33783827986E+01 -0.10434934541E+02  0.31886007268E+02  0.00000000000E+00 0.  1.
         11    1    3    3    0    0 -0.50965641791E+01 -0.51943184855E+01  0.18141234672E+02  0.19546363003E+02  0.51100000000E-03 0. -1.
        -11    1    3    3    0    0 -0.61379686410E+01 -0.19964206721E+01 -0.15587232520E+02  0.16870749018E+02  0.51100000000E-03 0.  1.
        -12    1    3    3    0    0 -0.18705676436E+02  0.10569121956E+02  0.78809323888E+01  0.22884880711E+02  0.00000000000E+00 0.  1.
</event>
<event>
 7    1  0.1113211E-011  0.5930195E+02  0.7816164E-02  0.1266605E+00
        -11   -1    0    0    0    0  0.00000000000E+00  0.00000000000E+00  0.45593999997E+02  0.45594000000E+02  0.51100000000E-03 0.  1.
         11   -1    0    0    0    0 -0.00000000000E+00 -0.00000000000E+00 -0.45593999997E+02  0.45594000000E+02  0.51100000000E-03 0. -1.
    9900012    2    1    2    0    0 -0.21944458844E+02 -0.13976717670E+02 -0.18434004835E+02  0.59301945916E+02  0.50000003444E+02 0.  0.
        -12    1    1    2    0    0  0.21944458844E+02  0.13976717670E+02  0.18434004835E+02  0.31886054084E+02  0.00000000000E+00 0.  1.
         11    1    3    3    0    0 -0.25052970722E+02 -0.21467860111E+01 -0.20745026971E+02  0.32597794043E+02  0.51100000000E-03 0. -1.
        -11    1    3    3    0    0 -0.83437340267E+01 -0.84617365086E+01  0.70989471219E+01  0.13842468449E+02  0.51100000000E-03 0.  1.
         12    1    3    3    0    0  0.11452245905E+02 -0.33681951503E+01 -0.47879249856E+01  0.12861683424E+02  0.00000000000E+00 0. -1.
</event>
<event>
 7    1  0.1113211E-011  0.5930196E+02  0.7816164E-02  0.1266605E+00
        -11   -1    0    0    0    0  0.00000000000E+00  0.00000000000E+00  0.45593999997E+02  0.45594000000E+02  0.51100000000E-03 0.  1.
         11   -1    0    0    0    0 -0.00000000000E+00 -0.00000000000E+00 -0.45593999997E+02  0.45594000000E+02  0.51100000000E-03 0. -1.
    9900012    2    1    2    0    0 -0.71164117750E+00  0.12762129977E+02 -0.29212002070E+02  0.59301961367E+02  0.50000031624E+02 0.  0.
        -12    1    1    2    0    0  0.71164117750E+00 -0.12762129977E+02  0.29212002070E+02  0.31886038633E+02  0.00000000000E+00 0.  1.
         11    1    3    3    0    0 -0.11756586778E+02  0.24532185529E+02 -0.15990408885E+02  0.31555326588E+02  0.51100000000E-03 0.  1.
        -11    1    3    3    0    0  0.68056271571E+01 -0.15399522778E+01  0.34095129630E+01  0.77661311427E+01  0.51100000000E-03 0. -1.
         12    1    3    3    0    0  0.42393184435E+01 -0.10230103274E+02 -0.16631106148E+02  0.19980503636E+02  0.00000000000E+00 0. -1.
</event>
<event>
 7    1  0.1113211E-011  0.5930194E+02  0.7816164E-02  0.1266605E+00
        -11   -1    0    0    0    0  0.00000000000E+00  0.00000000000E+00  0.45593999997E+02  0.45594000000E+02  0.51100000000E-03 0.  1.
         11   -1    0    0    0    0 -0.00000000000E+00 -0.00000000000E+00 -0.45593999997E+02  0.45594000000E+02  0.51100000000E-03 0. -1.
    9900012    2    1    2    0    0 -0.20255896273E+02 -0.17947211631E+02  0.16861704757E+02  0.59301939935E+02  0.49999992535E+02 0.  0.
        -12    1    1    2    0    0  0.20255896273E+02  0.17947211631E+02 -0.16861704757E+02  0.31886060065E+02  0.00000000000E+00 0.  1.
         11    1    3    3    0    0  0.31928559160E+01 -0.64924390180E+01 -0.41840133104E+01  0.83577545397E+01  0.51100000000E-03 0. -1.
        -11    1    3    3    0    0 -0.32966387076E+02 -0.13516115977E+02  0.20685972291E+02  0.41199241715E+02  0.51100000000E-03 0.  1.
        -12    1    3    3    0    0  0.95176348870E+01  0.20613433637E+01  0.35974577655E+00  0.97449436801E+01  0.00000000000E+00 0.  1.
</event>
<event>
 7    1  0.1113211E-011  0.5930195E+02  0.7816164E-02  0.1266605E+00
        -11   -1    0    0    0    0  0.00000000000E+00  0.00000000000E+00  0.45593999997E+02  0.45594000000E+02  0.51100000000E-03 0.  1.
         11   -1    0    0    0    0 -0.00000000000E+00 -0.00000000000E+00 -0.45593999997E+02  0.45594000000E+02  0.51100000000E-03 0. -1.
    9900012    2    1    2    0    0 -0.27787135030E+02 -0.15490038920E+02  0.21573862257E+01  0.59301945145E+02  0.50000002037E+02 0.  0.
        -12    1    1    2    0    0  0.27787135030E+02  0.15490038920E+02 -0.21573862257E+01  0.31886054855E+02  0.00000000000E+00 0.  1.
         11    1    3    3    0    0 -0.93537420952E+01 -0.11306495839E+02 -0.92807031871E+01  0.17362626277E+02  0.51100000000E-03 0. -1.
        -11    1    3    3    0    0 -0.18899558776E+02  0.12768241603E+02  0.30223629983E+01  0.23007737696E+02  0.51100000000E-03 0.  1.
        -12    1    3    3    0    0  0.46616584090E+00 -0.16951784684E+02  0.84157264145E+01  0.18931581171E+02  0.00000000000E+00 0.  1.
</event>
<event>
 7    1  0.1113211E-011  0.5930193E+02  0.7816164E-02  0.1266605E+00
        -11   -1    0    0    0    0  0.00000000000E+00  0.00000000000E+00  0.45593999997E+02  0.45594000000E+02  0.51100000000E-03 0.  1.
         11   -1    0    0    0    0 -0.00000000000E+00 -0.00000000000E+00 -0.45593999997E+02  0.45594000000E+02  0.51100000000E-03 0. -1.
    9900012    2    1    2    0    0 -0.50617793956E+01  0.88377404136E+01 -0.30215794966E+02  0.59301928877E+02  0.49999972368E+02 0.  0.
        -12    1    1    2    0    0  0.50617793956E+01 -0.88377404136E+01  0.30215794966E+02  0.31886071123E+02  0.00000000000E+00 0.  1.
         11    1    3    3    0    0  0.13746533718E+02  0.16276709036E+02 -0.24499299325E+02  0.32467123587E+02  0.51100000000E-03 0. -1.
        -11    1    3    3    0    0 -0.10594065067E+02 -0.10131438328E+02 -0.94264115371E+01  0.17428066214E+02  0.51100000000E-03 0.  1.
         12    1    3    3    0    0 -0.82142480464E+01  0.26924697051E+01  0.37099158965E+01  0.94067390758E+01  0.00000000000E+00 0. -1.
</event>
<event>
 7    1  0.1113211E-011  0.5930196E+02  0.7816164E-02  0.1266605E+00
        -11   -1    0    0    0    0  0.00000000000E+00  0.00000000000E+00  0.45593999997E+02  0.45594000000E+02  0.51100000000E-03 0.  1.
         11   -1    0    0    0    0 -0.00000000000E+00 -0.00000000000E+00 -0.45593999997E+02  0.45594000000E+02  0.51100000000E-03 0. -1.
    9900012    2    1    2    0    0 -0.16518759209E+02  0.14351845475E+02 -0.23192120534E+02  0.59301963414E+02  0.50000035355E+02 0.  0.
        -12    1    1    2    0    0  0.16518759209E+02 -0.14351845475E+02  0.23192120534E+02  0.31886036586E+02  0.00000000000E+00 0.  1.
         11    1    3    3    0    0 -0.31649708497E+02  0.37933195812E+01 -0.16932523574E+02  0.36094371808E+02  0.51100000000E-03 0. -1.
        -11    1    3    3    0    0  0.16715552376E+02  0.87257545495E+01 -0.29185371305E+01  0.19080522606E+02  0.51100000000E-03 0.  1.
         12    1    3    3    0    0 -0.15846030880E+01  0.18327713440E+01 -0.33410598295E+01  0.41270689999E+01  0.00000000000E+00 0. -1.
</event>
<event>
 7    1  0.1113211E-011  0.5930210E+02  0.7816164E-02  0.1266604E+00
        -11   -1    0    0    0    0  0.00000000000E+00  0.00000000000E+00  0.45593999997E+02  0.45594000000E+02  0.51100000000E-03 0.  1.
         11   -1    0    0    0    0 -0.00000000000E+00 -0.00000000000E+00 -0.45593999997E+02  0.45594000000E+02  0.51100000000E-03 0. -1.
    9900012    2    1    2    0    0 -0.18367287107E+02 -0.25104521328E+01 -0.25943224965E+02  0.59302101437E+02  0.50000287077E+02 0.  0.
        -12    1    1    2    0    0  0.18367287107E+02  0.25104521328E+01  0.25943224965E+02  0.31885898563E+02  0.00000000000E+00 0.  1.
         11    1    3    3    0    0  0.11565969929E+02  0.44012600573E+01 -0.64624992335E+01  0.13960897073E+02  0.51100000000E-03 0. -1.
        -11    1    3    3    0    0 -0.21636789500E+02  0.78328655930E+01 -0.16111181030E+02  0.28090471653E+02  0.51100000000E-03 0.  1.
         12    1    3    3    0    0 -0.82964675358E+01 -0.14744577783E+02 -0.33695447007E+01  0.17250732711E+02  0.00000000000E+00 0. -1.
</event>
<event>
 7    1  0.1113211E-011  0.5930195E+02  0.7816164E-02  0.1266605E+00
        -11   -1    0    0    0    0  0.00000000000E+00  0.00000000000E+00  0.45593999997E+02  0.45594000000E+02  0.51100000000E-03 0.  1.
         11   -1    0    0    0    0 -0.00000000000E+00 -0.00000000000E+00 -0.45593999997E+02  0.45594000000E+02  0.51100000000E-03 0. -1.
    9900012    2    1    2    0    0 -0.45361655284E+01 -0.29821350179E+02 -0.10335890227E+02  0.59301947391E+02  0.50000006135E+02 0.  0.
        -12    1    1    2    0    0  0.45361655284E+01  0.29821350179E+02  0.10335890227E+02  0.31886052609E+02  0.00000000000E+00 0.  1.
         11    1    3    3    0    0 -0.18742701171E+02 -0.14574398367E+01 -0.10820815551E+02  0.21691081750E+02  0.51100000000E-03 0. -1.
        -11    1    3    3    0    0  0.44187028343E+00 -0.23744541621E+01  0.70717233450E+01  0.74727875150E+01  0.51100000000E-03 0.  1.
         12    1    3    3    0    0  0.13764665359E+02 -0.25989456180E+02 -0.65867980206E+01  0.30138078126E+02  0.00000000000E+00 0. -1.
</event>
<event>
 7    1  0.1113211E-011  0.5930191E+02  0.7816164E-02  0.1266605E+00
        -11   -1    0    0    0    0  0.00000000000E+00  0.00000000000E+00  0.45593999997E+02  0.45594000000E+02  0.51100000000E-03 0.  1.
         11   -1    0    0    0    0 -0.00000000000E+00 -0.00000000000E+00 -0.45593999997E+02  0.45594000000E+02  0.51100000000E-03 0. -1.
    9900012    2    1    2    0    0  0.36079125918E+01 -0.10421455155E+02 -0.29918206649E+02  0.59301908206E+02  0.49999934669E+02 0.  0.
        -12    1    1    2    0    0 -0.36079125918E+01  0.10421455155E+02  0.29918206649E+02  0.31886091794E+02  0.00000000000E+00 0.  1.
         11    1    3    3    0    0  0.11026725620E+02  0.92021206616E+01 -0.59105025617E+01  0.15530671053E+02  0.51100000000E-03 0. -1.
        -11    1    3    3    0    0 -0.13969769306E+02 -0.10663598509E+02 -0.27054180056E+02  0.32261361509E+02  0.51100000000E-03 0.  1.
        -12    1    3    3    0    0  0.65509562779E+01 -0.89599773076E+01  0.30464759687E+01  0.11509875644E+02  0.00000000000E+00 0.  1.
</event>
<event>
 7    1  0.1113211E-011  0.5930195E+02  0.7816164E-02  0.1266605E+00
        -11   -1    0    0    0    0  0.00000000000E+00  0.00000000000E+00  0.45593999997E+02  0.45594000000E+02  0.51100000000E-03 0. -1.
         11   -1    0    0    0    0 -0.00000000000E+00 -0.00000000000E+00 -0.45593999997E+02  0.45594000000E+02  0.51100000000E-03 0.  1.
    9900012    2    1    2    0    0  0.80118175659E+01  0.12617047683E+02  0.28166308472E+02  0.59301952176E+02  0.50000014860E+02 0.  0.
        -12    1    1    2    0    0 -0.80118175659E+01 -0.12617047683E+02 -0.28166308472E+02  0.31886047824E+02  0.00000000000E+00 0.  1.
         11    1    3    3    0    0  0.22500231023E+02 -0.60439535531E+01  0.31653144008E+01  0.23511890315E+02  0.51100000000E-03 0. -1.
        -11    1    3    3    0    0 -0.99198772930E+01  0.18446256324E+02  0.21628769496E+02  0.30107673574E+02  0.51100000000E-03 0.  1.
         12    1    3    3    0    0 -0.45685361642E+01  0.21474491235E+00  0.33722245745E+01  0.56823882868E+01  0.00000000000E+00 0. -1.
</event>
<event>
 7    1  0.1113211E-011  0.5930194E+02  0.7816164E-02  0.1266605E+00
        -11   -1    0    0    0    0  0.00000000000E+00  0.00000000000E+00  0.45593999997E+02  0.45594000000E+02  0.51100000000E-03 0. -1.
         11   -1    0    0    0    0 -0.00000000000E+00 -0.00000000000E+00 -0.45593999997E+02  0.45594000000E+02  0.51100000000E-03 0.  1.
    9900012    2    1    2    0    0  0.26163464724E+02 -0.15479420410E+02  0.96219194082E+01  0.59301942300E+02  0.49999996848E+02 0.  0.
        -12    1    1    2    0    0 -0.26163464724E+02  0.15479420410E+02 -0.96219194082E+01  0.31886057700E+02  0.00000000000E+00 0.  1.
         11    1    3    3    0    0  0.18854181607E+01 -0.24268110312E+02  0.10356212965E+02  0.26452733828E+02  0.51100000000E-03 0.  1.
        -11    1    3    3    0    0  0.27091497771E+02  0.67974528286E+01  0.26020075920E+01  0.28052184589E+02  0.51100000000E-03 0. -1.
        -12    1    3    3    0    0 -0.28134512082E+01  0.19912370728E+01 -0.33363011485E+01  0.47970238830E+01  0.00000000000E+00 0.  1.
</event>
<event>
 7    1  0.1113211E-011  0.5930191E+02  0.7816164E-02  0.1266605E+00
        -11   -1    0    0    0    0  0.00000000000E+00  0.00000000000E+00  0.45593999997E+02  0.45594000000E+02  0.51100000000E-03 0. -1.
         11   -1    0    0    0    0 -0.00000000000E+00 -0.00000000000E+00 -0.45593999997E+02  0.45594000000E+02  0.51100000000E-03 0.  1.
    9900012    2    1    2    0    0  0.24425487749E+02 -0.19527668075E+02 -0.62280227941E+01  0.59301913063E+02  0.49999943528E+02 0.  0.
        -12    1    1    2    0    0 -0.24425487749E+02  0.19527668075E+02  0.62280227941E+01  0.31886086937E+02  0.00000000000E+00 0.  1.
         11    1    3    3    0    0  0.23924637125E+02 -0.81282794811E+01 -0.21862313740E+02  0.33412841113E+02  0.51100000000E-03 0. -1.
        -11    1    3    3    0    0  0.88922191659E+00 -0.14045760113E+02  0.50190670696E+01  0.14942059004E+02  0.51100000000E-03 0.  1.
        -12    1    3    3    0    0 -0.38837129300E+00  0.26463715199E+01  0.10615223877E+02  0.10947012946E+02  0.00000000000E+00 0.  1.
</event>
<event>
 7    1  0.1113211E-011  0.5930221E+02  0.7816164E-02  0.1266604E+00
        -11   -1    0    0    0    0  0.00000000000E+00  0.00000000000E+00  0.45593999997E+02  0.45594000000E+02  0.51100000000E-03 0.  1.
         11   -1    0    0    0    0 -0.00000000000E+00 -0.00000000000E+00 -0.45593999997E+02  0.45594000000E+02  0.51100000000E-03 0. -1.
    9900012    2    1    2    0    0  0.72068771674E+01  0.24278288238E+02 -0.19373422898E+02  0.59302205779E+02  0.50000477370E+02 0.  0.
        -12    1    1    2    0    0 -0.72068771674E+01 -0.24278288238E+02  0.19373422898E+02  0.31885794221E+02  0.00000000000E+00 0.  1.
         11    1    3    3    0    0  0.13864513030E+02  0.68516062381E+01 -0.25233653468E+02  0.29595717549E+02  0.51100000000E-03 0. -1.
        -11    1    3    3    0    0 -0.12634215801E+02  0.18874645640E+02  0.62116356488E+01  0.23546975913E+02  0.51100000000E-03 0.  1.
         12    1    3    3    0    0  0.59765799383E+01 -0.14479636403E+01 -0.35140507884E+00  0.61595123177E+01  0.00000000000E+00 0. -1.
</event>
<event>
 7    1  0.1113211E-011  0.5930193E+02  0.7816164E-02  0.1266605E+00
        -11   -1    0    0    0    0  0.00000000000E+00  0.00000000000E+00  0.45593999997E+02  0.45594000000E+02  0.51100000000E-03 0.  1.
         11   -1    0    0    0    0 -0.00000000000E+00 -0.00000000000E+00 -0.45593999997E+02  0.45594000000E+02  0.51100000000E-03 0. -1.
    9900012    2    1    2    0    0 -0.12620263851E+02 -0.17240718665E+02 -0.23668713238E+02  0.59301930532E+02  0.49999975387E+02 0.  0.
        -12    1    1    2    0    0  0.12620263851E+02  0.17240718665E+02  0.23668713238E+02  0.31886069468E+02  0.00000000000E+00 0.  1.
         11    1    3    3    0    0  0.13295269313E+02 -0.11511749181E+02  0.37202354668E+01  0.17975669877E+02  0.51100000000E-03 0. -1.
        -11    1    3    3    0    0 -0.97011525823E+01 -0.36912759137E+01 -0.11890387587E+01  0.10447568747E+02  0.51100000000E-03 0.  1.
         12    1    3    3    0    0 -0.16214380583E+02 -0.20376935699E+01 -0.26199909947E+02  0.30878691908E+02  0.00000000000E+00 0. -1.
</event>
<event>
 7    1  0.1113211E-011  0.5930190E+02  0.7816164E-02  0.1266605E+00
        -11   -1    0    0    0    0  0.00000000000E+00  0.00000000000E+00  0.45593999997E+02  0.45594000000E+02  0.51100000000E-03 0. -1.
         11   -1    0    0    0    0 -0.00000000000E+00 -0.00000000000E+00 -0.45593999997E+02  0.45594000000E+02  0.51100000000E-03 0.  1.
    9900012    2    1    2    0    0  0.81144534604E+01  0.26550378496E+02  0.15682997312E+02  0.59301900239E+02  0.49999920140E+02 0.  0.
        -12    1    1    2    0    0 -0.81144534604E+01 -0.26550378496E+02 -0.15682997312E+02  0.31886099761E+02  0.00000000000E+00 0.  1.
         11    1    3    3    0    0  0.73186972492E+01 -0.13625684644E+02  0.10006684520E+02  0.18421627148E+02  0.51100000000E-03 0. -1.
        -11    1    3    3    0    0 -0.13101244802E+01  0.16046953202E+02  0.40668014063E+01  0.16606023220E+02  0.51100000000E-03 0.  1.
         12    1    3    3    0    0  0.21058806914E+01  0.24129109938E+02  0.16095113865E+01  0.24274249871E+02  0.00000000000E+00 0. -1.
</event>
<event>
 7    1  0.1113211E-011  0.5930195E+02  0.7816164E-02  0.1266605E+00
        -11   -1    0    0    0    0  0.00000000000E+00  0.00000000000E+00  0.45593999997E+02  0.45594000000E+02  0.51100000000E-03 0. -1.
         11   -1    0    0    0    0 -0.00000000000E+00 -0.00000000000E+00 -0.45593999997E+02  0.45594000000E+02  0.51100000000E-03 0.  1.
    9900012    2    1    2    0    0  0.28191002364E+02 -0.14449572032E+02  0.36328661240E+01  0.59301945643E+02  0.50000002946E+02 0.  0.
        -12    1    1    2    0    0 -0.28191002364E+02  0.14449572032E+02 -0.36328661240E+01  0.31886054357E+02  0.00000000000E+00 0.  1.
         11    1    3    3    0    0  0.10870223423E+02  0.41054784030E+01  0.19701271548E+02  0.22872621430E+02  0.51100000000E-03 0. -1.
        -11    1    3    3    0    0  0.48133102311E+01 -0.19459102610E+02 -0.11314944287E+02  0.23018527196E+02  0.51100000000E-03 0.  1.
         12    1    3    3    0    0  0.12507468710E+02  0.90405217571E+00 -0.47534611380E+01  0.13410797018E+02  0.00000000000E+00 0. -1.
</event>
<event>
 7    1  0.1113211E-011  0.5930197E+02  0.7816164E-02  0.1266605E+00
        -11   -1    0    0    0    0  0.00000000000E+00  0.00000000000E+00  0.45593999997E+02  0.45594000000E+02  0.51100000000E-03 0. -1.
         11   -1    0    0    0    0 -0.00000000000E+00 -0.00000000000E+00 -0.45593999997E+02  0.45594000000E+02  0.51100000000E-03 0.  1.
    9900012    2    1    2    0    0  0.26121734078E+02 -0.11012076388E+02 -0.14598222200E+02  0.59301970002E+02  0.50000047371E+02 0.  0.
        -12    1    1    2    0    0 -0.26121734078E+02  0.11012076388E+02  0.14598222200E+02  0.31886029998E+02  0.00000000000E+00 0.  1.
         11    1    3    3    0    0  0.15971461484E+02  0.55107329833E+01 -0.17330010894E+02  0.24202996463E+02  0.51100000000E-03 0. -1.
        -11    1    3    3    0    0  0.16737244426E+02 -0.11258348341E+02  0.11263801652E+02  0.23103224586E+02  0.51100000000E-03 0.  1.
        -12    1    3    3    0    0 -0.65869718312E+01 -0.52644610298E+01 -0.85320129581E+01  0.11995748954E+02  0.00000000000E+00 0.  1.
</event>
<event>
 7    1  0.1113211E-011  0.5930195E+02  0.7816164E-02  0.1266605E+00
        -11   -1    0    0    0    0  0.00000000000E+00  0.00000000000E+00  0.45593999997E+02  0.45594000000E+02  0.51100000000E-03 0.  1.
         11   -1    0    0    0    0 -0.00000000000E+00 -0.00000000000E+00 -0.45593999997E+02  0.45594000000E+02  0.51100000000E-03 0. -1.
    9900012    2    1    2    0    0 -0.39841854430E+01  0.11381003984E+02 -0.29518121171E+02  0.59301945638E+02  0.50000002936E+02 0.  0.
        -12    1    1    2    0    0  0.39841854430E+01 -0.11381003984E+02  0.29518121171E+02  0.31886054362E+02  0.00000000000E+00 0.  1.
         11    1    3    3    0    0 -0.30709174262E+01  0.91128767039E+01 -0.35026577096E+02  0.36322667289E+02  0.51100000000E-03 0. -1.
        -11    1    3    3    0    0  0.22559096306E+01 -0.93109267979E+01  0.53508196848E+01  0.10973320266E+02  0.51100000000E-03 0.  1.
         12    1    3    3    0    0 -0.31691776473E+01  0.11579054078E+02  0.15763623982E+00  0.12005958083E+02  0.00000000000E+00 0. -1.
</event>
<event>
 7    1  0.1113211E-011  0.5930195E+02  0.7816164E-02  0.1266605E+00
        -11   -1    0    0    0    0  0.00000000000E+00  0.00000000000E+00  0.45593999997E+02  0.45594000000E+02  0.51100000000E-03 0.  1.
         11   -1    0    0    0    0 -0.00000000000E+00 -0.00000000000E+00 -0.45593999997E+02  0.45594000000E+02  0.51100000000E-03 0. -1.
    9900012    2    1    2    0    0 -0.57616453391E+01 -0.11433923162E+02 -0.29202549190E+02  0.59301952345E+02  0.50000015168E+02 0.  0.
        -12    1    1    2    0    0  0.57616453391E+01  0.11433923162E+02  0.29202549190E+02  0.31886047655E+02  0.00000000000E+00 0.  1.
         11    1    3    3    0    0 -0.21462748798E+00  0.39806048433E+01 -0.73877972477E+01  0.83946904833E+01  0.51100000000E-03 0. -1.
        -11    1    3    3    0    0  0.15158677615E+02 -0.20540838631E+01  0.33789495180E+01  0.15665952498E+02  0.51100000000E-03 0.  1.
        -12    1    3    3    0    0 -0.20705695466E+02 -0.13360444142E+02 -0.25193701460E+02  0.35241309364E+02  0.00000000000E+00 0.  1.
</event>
<event>
 7    1  0.1113211E-011  0.5930182E+02  0.7816164E-02  0.1266605E+00
        -11   -1    0    0    0    0  0.00000000000E+00  0.00000000000E+00  0.45593999997E+02  0.45594000000E+02  0.51100000000E-03 0.  1.
         11   -1    0    0    0    0 -0.00000000000E+00 -0.00000000000E+00 -0.45593999997E+02  0.45594000000E+02  0.51100000000E-03 0. -1.
    9900012    2    1    2    0    0 -0.13767072674E+02 -0.25977752240E+02 -0.12343108764E+02  0.59301823757E+02  0.49999780655E+02 0.  0.
        -12    1    1    2    0    0  0.13767072674E+02  0.25977752240E+02  0.12343108764E+02  0.31886176243E+02  0.00000000000E+00 0.  1.
         11    1    3    3    0    0 -0.18172113586E+02 -0.33784992535E+02 -0.96214652621E+01  0.39550272146E+02  0.51100000000E-03 0. -1.
        -11    1    3    3    0    0 -0.28592610500E+01  0.92747108753E+01 -0.62496973710E+01  0.11543584931E+02  0.51100000000E-03 0.  1.
        -12    1    3    3    0    0  0.72643019626E+01 -0.14674705801E+01  0.35280538695E+01  0.82079666796E+01  0.00000000000E+00 0.  1.
</event>
<event>
 7    1  0.1113211E-011  0.5930193E+02  0.7816164E-02  0.1266605E+00
        -11   -1    0    0    0    0  0.00000000000E+00  0.00000000000E+00  0.45593999997E+02  0.45594000000E+02  0.51100000000E-03 0. -1.
         11   -1    0    0    0    0 -0.00000000000E+00 -0.00000000000E+00 -0.45593999997E+02  0.45594000000E+02  0.51100000000E-03 0.  1.
    9900012    2    1    2    0    0  0.12014325617E+02  0.61275585665E+01  0.28893433766E+02  0.59301929236E+02  0.49999973023E+02 0.  0.
        -12    1    1    2    0    0 -0.12014325617E+02 -0.61275585665E+01 -0.28893433766E+02  0.31886070764E+02  0.00000000000E+00 0.  1.
         11    1    3    3    0    0  0.30972631978E+00  0.17603267729E+02  0.31239549847E+02  0.35859175117E+02  0.51100000000E-03 0. -1.
        -11    1    3    3    0    0  0.89705894275E+01  0.22838581617E+01 -0.26396025221E+00  0.92605160793E+01  0.51100000000E-03 0.  1.
         12    1    3    3    0    0  0.27340098699E+01 -0.13759567324E+02 -0.20821558291E+01  0.14182238040E+02  0.00000000000E+00 0. -1.
</event>
<event>
 7    1  0.1113211E-011  0.5930196E+02  0.7816164E-02  0.1266605E+00
        -11   -1    0    0    0    0  0.00000000000E+00  0.00000000000E+00  0.45593999997E+02  0.45594000000E+02  0.51100000000E-03 0.  1.
         11   -1    0    0    0    0 -0.00000000000E+00 -0.00000000000E+00 -0.45593999997E+02  0.45594000000E+02  0.51100000000E-03 0. -1.
    9900012    2    1    2    0    0  0.12765230742E+02 -0.21224820069E+02 -0.20081726411E+02  0.59301955427E+02  0.50000020789E+02 0.  0.
        -12    1    1    2    0    0 -0.12765230742E+02  0.21224820069E+02  0.20081726411E+02  0.31886044573E+02  0.00000000000E+00 0.  1.
         11    1    3    3    0    0  0.37827505158E-02 -0.13879071641E+02 -0.27683743570E+02  0.30968020638E+02  0.51100000000E-03 0. -1.
        -11    1    3    3    0    0  0.18891844174E+02 -0.81421946834E+01  0.33793312323E+01  0.20847469640E+02  0.51100000000E-03 0.  1.
         12    1    3    3    0    0 -0.61303961822E+01  0.79644625552E+00  0.42226859267E+01  0.74864651487E+01  0.00000000000E+00 0. -1.
</event>
<event>
 7    1  0.1113211E-011  0.5930196E+02  0.7816164E-02  0.1266605E+00
        -11   -1    0    0    0    0  0.00000000000E+00  0.00000000000E+00  0.45593999997E+02  0.45594000000E+02  0.51100000000E-03 0. -1.
         11   -1    0    0    0    0 -0.00000000000E+00 -0.00000000000E+00 -0.45593999997E+02  0.45594000000E+02  0.51100000000E-03 0.  1.
    9900012    2    1    2    0    0  0.15082778071E+02 -0.26115418830E+02  0.10354429477E+02  0.59301960660E+02  0.50000030333E+02 0.  0.
        -12    1    1    2    0    0 -0.15082778071E+02  0.26115418830E+02 -0.10354429477E+02  0.31886039340E+02  0.00000000000E+00 0.  1.
         11    1    3    3    0    0 -0.12064645610E+02  0.12912653479E+01  0.64235884577E+01  0.13729003199E+02  0.51100000000E-03 0. -1.
        -11    1    3    3    0    0  0.18772770316E+02 -0.27754800597E+02  0.10289971612E+02  0.35051809904E+02  0.51100000000E-03 0.  1.
        -12    1    3    3    0    0  0.83746533656E+01  0.34811641910E+00 -0.63591305923E+01  0.10521147557E+02  0.00000000000E+00 0.  1.
</event>
<event>
 7    1  0.1113211E-011  0.5930196E+02  0.7816164E-02  0.1266605E+00
        -11   -1    0    0    0    0  0.00000000000E+00  0.00000000000E+00  0.45593999997E+02  0.45594000000E+02  0.51100000000E-03 0. -1.
         11   -1    0    0    0    0 -0.00000000000E+00 -0.00000000000E+00 -0.45593999997E+02  0.45594000000E+02  0.51100000000E-03 0.  1.
    9900012    2    1    2    0    0 -0.28388604922E+01 -0.17352015308E+02  0.26600154616E+02  0.59301956192E+02  0.50000022185E+02 0.  0.
        -12    1    1    2    0    0  0.28388604922E+01  0.17352015308E+02 -0.26600154616E+02  0.31886043808E+02  0.00000000000E+00 0.  1.
         11    1    3    3    0    0 -0.91349585492E+01  0.93248620342E+01  0.53449119088E+01  0.14105623107E+02  0.51100000000E-03 0. -1.
        -11    1    3    3    0    0  0.39014771083E+01 -0.26692716963E+02  0.34098497073E+01  0.27190986333E+02  0.51100000000E-03 0.  1.
        -12    1    3    3    0    0  0.23946209487E+01  0.15839620585E-01  0.17845392999E+02  0.18005346753E+02  0.00000000000E+00 0.  1.
</event>
<event>
 7    1  0.1113211E-011  0.5930195E+02  0.7816164E-02  0.1266605E+00
        -11   -1    0    0    0    0  0.00000000000E+00  0.00000000000E+00  0.45593999997E+02  0.45594000000E+02  0.51100000000E-03 0. -1.
         11   -1    0    0    0    0 -0.00000000000E+00 -0.00000000000E+00 -0.45593999997E+02  0.45594000000E+02  0.51100000000E-03 0.  1.
    9900012    2    1    2    0    0 -0.64486576150E+01  0.26937993454E+02  0.15794912649E+02  0.59301953805E+02  0.50000017832E+02 0.  0.
        -12    1    1    2    0    0  0.64486576150E+01 -0.26937993454E+02 -0.15794912649E+02  0.31886046195E+02  0.00000000000E+00 0.  1.
         11    1    3    3    0    0 -0.19089255246E+02  0.12176477043E+02  0.60428944278E+00  0.22650197019E+02  0.51100000000E-03 0.  1.
        -11    1    3    3    0    0  0.94202413310E+01 -0.26557145067E+01  0.16181924937E+02  0.18911595946E+02  0.51100000000E-03 0. -1.
         12    1    3    3    0    0  0.32203562996E+01  0.17417230918E+02 -0.99130173119E+00  0.17740160841E+02  0.00000000000E+00 0. -1.
</event>
<event>
 7    1  0.1113211E-011  0.5930192E+02  0.7816164E-02  0.1266605E+00
        -11   -1    0    0    0    0  0.00000000000E+00  0.00000000000E+00  0.45593999997E+02  0.45594000000E+02  0.51100000000E-03 0.  1.
         11   -1    0    0    0    0 -0.00000000000E+00 -0.00000000000E+00 -0.45593999997E+02  0.45594000000E+02  0.51100000000E-03 0. -1.
    9900012    2    1    2    0    0  0.30462267446E+02 -0.73232553423E+01 -0.59280871311E+01  0.59301921160E+02  0.49999958295E+02 0.  0.
        -12    1    1    2    0    0 -0.30462267446E+02  0.73232553423E+01  0.59280871311E+01  0.31886078840E+02  0.00000000000E+00 0.  1.
         11    1    3    3    0    0  0.35604892669E+02  0.91442908622E+00  0.75795150308E+01  0.36414195184E+02  0.51100000000E-03 0. -1.
        -11    1    3    3    0    0 -0.76093445393E+01 -0.94894554325E+01 -0.37243798429E+01  0.12720962786E+02  0.51100000000E-03 0.  1.
         12    1    3    3    0    0  0.24667193159E+01  0.12517710039E+01 -0.97832223190E+01  0.10166763191E+02  0.00000000000E+00 0. -1.
</event>
<event>
 7    1  0.1113211E-011  0.5930195E+02  0.7816164E-02  0.1266605E+00
        -11   -1    0    0    0    0  0.00000000000E+00  0.00000000000E+00  0.45593999997E+02  0.45594000000E+02  0.51100000000E-03 0.  1.
         11   -1    0    0    0    0 -0.00000000000E+00 -0.00000000000E+00 -0.45593999997E+02  0.45594000000E+02  0.51100000000E-03 0. -1.
    9900012    2    1    2    0    0 -0.14268749254E+02  0.19678408552E+01 -0.28447329392E+02  0.59301950504E+02  0.50000011811E+02 0.  0.
        -12    1    1    2    0    0  0.14268749254E+02 -0.19678408552E+01  0.28447329392E+02  0.31886049496E+02  0.00000000000E+00 0.  1.
         11    1    3    3    0    0 -0.37825925100E+01 -0.98522236484E+01 -0.34262831558E+02  0.35851303234E+02  0.51100000000E-03 0. -1.
        -11    1    3    3    0    0 -0.11140872207E+02  0.14970463991E+02  0.24953707039E+01  0.18827126729E+02  0.51100000000E-03 0.  1.
        -12    1    3    3    0    0  0.65471546311E+00 -0.31503994877E+01  0.33201314621E+01  0.46235205412E+01  0.00000000000E+00 0.  1.
</event>
<event>
 7    1  0.1113211E-011  0.5930196E+02  0.7816164E-02  0.1266605E+00
        -11   -1    0    0    0    0  0.00000000000E+00  0.00000000000E+00  0.45593999997E+02  0.45594000000E+02  0.51100000000E-03 0.  1.
         11   -1    0    0    0    0 -0.00000000000E+00 -0.00000000000E+00 -0.45593999997E+02  0.45594000000E+02  0.51100000000E-03 0. -1.
    9900012    2    1    2    0    0  0.23554864460E+02 -0.20970902427E+02  0.47020618496E+01  0.59301956439E+02  0.50000022635E+02 0.  0.
        -12    1    1    2    0    0 -0.23554864460E+02  0.20970902427E+02 -0.47020618496E+01  0.31886043561E+02  0.00000000000E+00 0.  1.
         11    1    3    3    0    0  0.19751298017E+02 -0.97336716186E+00 -0.56777927734E+01  0.20574220472E+02  0.51100000000E-03 0. -1.
        -11    1    3    3    0    0 -0.15364841887E+01  0.55102077267E+01  0.11284192107E+02  0.12651330547E+02  0.51100000000E-03 0.  1.
         12    1    3    3    0    0  0.53400506314E+01 -0.25507742992E+02 -0.90433748399E+00  0.26076405419E+02  0.00000000000E+00 0. -1.
</event>
<event>
 7    1  0.1113211E-011  0.5930194E+02  0.7816164E-02  0.1266605E+00
        -11   -1    0    0    0    0  0.00000000000E+00  0.00000000000E+00  0.45593999997E+02  0.45594000000E+02  0.51100000000E-03 0.  1.
         11   -1    0    0    0    0 -0.00000000000E+00 -0.00000000000E+00 -0.45593999997E+02  0.45594000000E+02  0.51100000000E-03 0. -1.
    9900012    2    1    2    0    0 -0.23496117075E+02 -0.12921938131E+02 -0.17253312150E+02  0.59301940620E+02  0.49999993784E+02 0.  0.
        -12    1    1    2    0    0  0.23496117075E+02  0.12921938131E+02  0.17253312150E+02  0.31886059380E+02  0.00000000000E+00 0.  1.
         11    1    3    3    0    0 -0.26861861343E+02 -0.22912579340E+02 -0.18082864619E+02  0.39667819198E+02  0.51100000000E-03 0. -1.
        -11    1    3    3    0    0 -0.43982695938E+01  0.30627651414E+01  0.59744229488E+01  0.80261469937E+01  0.51100000000E-03 0.  1.
         12    1    3    3    0    0  0.77640138618E+01  0.69278760681E+01 -0.51448704803E+01  0.11607974428E+02  0.00000000000E+00 0. -1.
</event>
<event>
 7    1  0.1113211E-011  0.5930222E+02  0.7816164E-02  0.1266604E+00
        -11   -1    0    0    0    0  0.00000000000E+00  0.00000000000E+00  0.45593999997E+02  0.45594000000E+02  0.51100000000E-03 0.  1.
         11   -1    0    0    0    0 -0.00000000000E+00 -0.00000000000E+00 -0.45593999997E+02  0.45594000000E+02  0.51100000000E-03 0. -1.
    9900012    2    1    2    0    0 -0.27462550211E+02 -0.10085865582E+02 -0.12680176804E+02  0.59302215826E+02  0.50000495693E+02 0.  0.
        -12    1    1    2    0    0  0.27462550211E+02  0.10085865582E+02  0.12680176804E+02  0.31885784174E+02  0.00000000000E+00 0.  1.
         11    1    3    3    0    0 -0.16643989160E+02 -0.19335705801E+02 -0.15240864074E+02  0.29718274377E+02  0.51100000000E-03 0. -1.
        -11    1    3    3    0    0  0.70352675530E+01  0.92445558762E+01  0.84141404412E+00  0.11647522515E+02  0.51100000000E-03 0.  1.
         12    1    3    3    0    0 -0.17853828604E+02  0.52843424181E-02  0.17192732261E+01  0.17936418934E+02  0.00000000000E+00 0. -1.
</event>
<event>
 7    1  0.1113211E-011  0.5930193E+02  0.7816164E-02  0.1266605E+00
        -11   -1    0    0    0    0  0.00000000000E+00  0.00000000000E+00  0.45593999997E+02  0.45594000000E+02  0.51100000000E-03 0. -1.
         11   -1    0    0    0    0 -0.00000000000E+00 -0.00000000000E+00 -0.45593999997E+02  0.45594000000E+02  0.51100000000E-03 0.  1.
    9900012    2    1    2    0    0 -0.14671610844E+01 -0.21900844898E+02  0.23128375229E+02  0.59301932358E+02  0.49999978718E+02 0.  0.
        -12    1    1    2    0    0  0.14671610844E+01  0.21900844898E+02 -0.23128375229E+02  0.31886067642E+02  0.00000000000E+00 0.  1.
         11    1    3    3    0    0 -0.34579128149E+01 -0.21438505538E+02 -0.92768143071E+01  0.23614105206E+02  0.51100000000E-03 0. -1.
        -11    1    3    3    0    0  0.46098862003E+01 -0.55313444487E+01  0.86387928575E+01  0.11246135536E+02  0.51100000000E-03 0.  1.
         12    1    3    3    0    0 -0.26191344698E+01  0.50690050886E+01  0.23766396679E+02  0.24441691616E+02  0.00000000000E+00 0. -1.
</event>
<event>
 7    1  0.1113211E-011  0.5930194E+02  0.7816164E-02  0.1266605E+00
        -11   -1    0    0    0    0  0.00000000000E+00  0.00000000000E+00  0.45593999997E+02  0.45594000000E+02  0.51100000000E-03 0.  1.
         11   -1    0    0    0    0 -0.00000000000E+00 -0.00000000000E+00 -0.45593999997E+02  0.45594000000E+02  0.51100000000E-03 0. -1.
    9900012    2    1    2    0    0  0.22959986973E+02 -0.12707617041E+02 -0.18112884305E+02  0.59301935481E+02  0.49999984414E+02 0.  0.
        -12    1    1    2    0    0 -0.22959986973E+02  0.12707617041E+02  0.18112884305E+02  0.31886064519E+02  0.00000000000E+00 0.  1.
         11    1    3    3    0    0 -0.63348725955E-01  0.24606906894E+01 -0.28998511228E+01  0.38037019501E+01  0.51100000000E-03 0. -1.
        -11    1    3    3    0    0  0.30970973196E+02 -0.15817537251E+02 -0.25032476496E+02  0.42848810313E+02  0.51100000000E-03 0.  1.
        -12    1    3    3    0    0 -0.79476374976E+01  0.64922952028E+00  0.98194433143E+01  0.12649423219E+02  0.00000000000E+00 0.  1.
</event>
<event>
 7    1  0.1113211E-011  0.5930195E+02  0.7816164E-02  0.1266605E+00
        -11   -1    0    0    0    0  0.00000000000E+00  0.00000000000E+00  0.45593999997E+02  0.45594000000E+02  0.51100000000E-03 0.  1.
         11   -1    0    0    0    0 -0.00000000000E+00 -0.00000000000E+00 -0.45593999997E+02  0.45594000000E+02  0.51100000000E-03 0. -1.
    9900012    2    1    2    0    0 -0.14219226194E+02  0.27960385489E+01 -0.28402744977E+02  0.59301950584E+02  0.50000011957E+02 0.  0.
        -12    1    1    2    0    0  0.14219226194E+02 -0.27960385489E+01  0.28402744977E+02  0.31886049416E+02  0.00000000000E+00 0.  1.
         11    1    3    3    0    0 -0.12809769180E+02  0.57291837024E+01 -0.34684140788E+02  0.37415282370E+02  0.51100000000E-03 0. -1.
        -11    1    3    3    0    0  0.48737857475E+01  0.69104144432E+01  0.56927654626E+01  0.10193880231E+02  0.51100000000E-03 0.  1.
         12    1    3    3    0    0 -0.62832427615E+01 -0.98435595967E+01  0.58863034780E+00  0.11692787983E+02  0.00000000000E+00 0. -1.
</event>
<event>
 7    1  0.1113211E-011  0.5930193E+02  0.7816164E-02  0.1266605E+00
        -11   -1    0    0    0    0  0.00000000000E+00  0.00000000000E+00  0.45593999997E+02  0.45594000000E+02  0.51100000000E-03 0.  1.
         11   -1    0    0    0    0 -0.00000000000E+00 -0.00000000000E+00 -0.45593999997E+02  0.45594000000E+02  0.51100000000E-03 0. -1.
    9900012    2    1    2    0    0  0.11951716462E+02 -0.14348058329E+02 -0.25845907646E+02  0.59301933353E+02  0.49999980532E+02 0.  0.
        -12    1    1    2    0    0 -0.11951716462E+02  0.14348058329E+02  0.25845907646E+02  0.31886066647E+02  0.00000000000E+00 0.  1.
         11    1    3    3    0    0  0.46500460204E+01  0.15898558297E+02 -0.14689364508E+02  0.22139659298E+02  0.51100000000E-03 0. -1.
        -11    1    3    3    0    0  0.80262935084E+01 -0.26167359014E+02 -0.24007609531E+01  0.27475729629E+02  0.51100000000E-03 0.  1.
         12    1    3    3    0    0 -0.72462306671E+00 -0.40792576118E+01 -0.87557821845E+01  0.96865444259E+01  0.00000000000E+00 0. -1.
</event>
<event>
 7    1  0.1113211E-011  0.5930196E+02  0.7816164E-02  0.1266605E+00
        -11   -1    0    0    0    0  0.00000000000E+00  0.00000000000E+00  0.45593999997E+02  0.45594000000E+02  0.51100000000E-03 0.  1.
         11   -1    0    0    0    0 -0.00000000000E+00 -0.00000000000E+00 -0.45593999997E+02  0.45594000000E+02  0.51100000000E-03 0. -1.
    9900012    2    1    2    0    0 -0.31819975066E+02  0.19878208547E+01  0.50747009922E+00  0.59301956488E+02  0.50000022725E+02 0.  0.
        -12    1    1    2    0    0  0.31819975066E+02 -0.19878208547E+01 -0.50747009922E+00  0.31886043512E+02  0.00000000000E+00 0.  1.
         11    1    3    3    0    0 -0.15704476690E+02 -0.19735462420E+02 -0.61514029251E+01  0.25960716925E+02  0.51100000000E-03 0. -1.
        -11    1    3    3    0    0 -0.46741777875E+00  0.89321076221E+01  0.93650048497E+01  0.12950071121E+02  0.51100000000E-03 0.  1.
         12    1    3    3    0    0 -0.15648080597E+02  0.12791175653E+02 -0.27061318254E+01  0.20391168441E+02  0.00000000000E+00 0. -1.
</event>
<event>
 7    1  0.1113211E-011  0.5930192E+02  0.7816164E-02  0.1266605E+00
        -11   -1    0    0    0    0  0.00000000000E+00  0.00000000000E+00  0.45593999997E+02  0.45594000000E+02  0.51100000000E-03 0.  1.
         11   -1    0    0    0    0 -0.00000000000E+00 -0.00000000000E+00 -0.45593999997E+02  0.45594000000E+02  0.51100000000E-03 0. -1.
    9900012    2    1    2    0    0 -0.30014907376E+02 -0.67970159387E+01 -0.83443323814E+01  0.59301921951E+02  0.49999959737E+02 0.  0.
        -12    1    1    2    0    0  0.30014907376E+02  0.67970159387E+01  0.83443323814E+01  0.31886078049E+02  0.00000000000E+00 0.  1.
         11    1    3    3    0    0 -0.29971156398E+02 -0.26262079915E+01 -0.20157966139E+02  0.36214786806E+02  0.51100000000E-03 0. -1.
        -11    1    3    3    0    0 -0.29469926651E+01 -0.11344065508E+02  0.92631652545E+01  0.14939170620E+02  0.51100000000E-03 0.  1.
        -12    1    3    3    0    0  0.29032416876E+01  0.71732575605E+01  0.25504685028E+01  0.81479645256E+01  0.00000000000E+00 0.  1.
</event>
<event>
 7    1  0.1113211E-011  0.5930195E+02  0.7816164E-02  0.1266605E+00
        -11   -1    0    0    0    0  0.00000000000E+00  0.00000000000E+00  0.45593999997E+02  0.45594000000E+02  0.51100000000E-03 0. -1.
         11   -1    0    0    0    0 -0.00000000000E+00 -0.00000000000E+00 -0.45593999997E+02  0.45594000000E+02  0.51100000000E-03 0.  1.
    9900012    2    1    2    0    0  0.28953213379E+02  0.47567623432E+01  0.12482180671E+02  0.59301949958E+02  0.50000010815E+02 0.  0.
        -12    1    1    2    0    0 -0.28953213379E+02 -0.47567623432E+01 -0.12482180671E+02  0.31886050042E+02  0.00000000000E+00 0.  1.
         11    1    3    3    0    0  0.25387937076E+02  0.40924969319E+01  0.14940938875E+02  0.29741007630E+02  0.51100000000E-03 0. -1.
        -11    1    3    3    0    0  0.75129313888E+01 -0.10800291672E+02 -0.88484774433E+01  0.15855156624E+02  0.51100000000E-03 0.  1.
        -12    1    3    3    0    0 -0.39476550857E+01  0.11464557084E+02  0.63897192399E+01  0.13705785704E+02  0.00000000000E+00 0.  1.
</event>
<event>
 7    1  0.1113211E-011  0.5930200E+02  0.7816164E-02  0.1266605E+00
        -11   -1    0    0    0    0  0.00000000000E+00  0.00000000000E+00  0.45593999997E+02  0.45594000000E+02  0.51100000000E-03 0. -1.
         11   -1    0    0    0    0 -0.00000000000E+00 -0.00000000000E+00 -0.45593999997E+02  0.45594000000E+02  0.51100000000E-03 0.  1.
    9900012    2    1    2    0    0  0.21187208105E+02  0.21915307767E+02  0.93561951321E+01  0.59302001675E+02  0.50000105136E+02 0.  0.
        -12    1    1    2    0    0 -0.21187208105E+02 -0.21915307767E+02 -0.93561951321E+01  0.31885998325E+02  0.00000000000E+00 0.  1.
         11    1    3    3    0    0  0.26755718916E+02  0.33109280655E+02  0.10380147034E+02  0.43815983532E+02  0.51100000000E-03 0. -1.
        -11    1    3    3    0    0 -0.27837808375E+01 -0.11926062398E+02  0.44270404598E+00  0.12254647575E+02  0.51100000000E-03 0.  1.
         12    1    3    3    0    0 -0.27847299738E+01  0.73208950961E+00 -0.14666559474E+01  0.32313705676E+01  0.00000000000E+00 0. -1.
</event>
<event>
 7    1  0.1113211E-011  0.5930195E+02  0.7816164E-02  0.1266605E+00
        -11   -1    0    0    0    0  0.00000000000E+00  0.00000000000E+00  0.45593999997E+02  0.45594000000E+02  0.51100000000E-03 0. -1.
         11   -1    0    0    0    0 -0.00000000000E+00 -0.00000000000E+00 -0.45593999997E+02  0.45594000000E+02  0.51100000000E-03 0.  1.
    9900012    2    1    2    0    0  0.29216794046E+02  0.73534727123E+01  0.10441522179E+02  0.59301952884E+02  0.50000016152E+02 0.  0.
        -12    1    1    2    0    0 -0.29216794046E+02 -0.73534727123E+01 -0.10441522179E+02  0.31886047116E+02  0.00000000000E+00 0.  1.
         11    1    3    3    0    0  0.26544977296E+02  0.69504407920E+01  0.10108646900E+02  0.29242592041E+02  0.51100000000E-03 0. -1.
        -11    1    3    3    0    0 -0.63652752317E+00 -0.14613763795E+02 -0.72948642705E+00  0.14645798382E+02  0.51100000000E-03 0.  1.
        -12    1    3    3    0    0  0.33083442726E+01  0.15016795715E+02  0.10623617066E+01  0.15413562462E+02  0.00000000000E+00 0.  1.
</event>
<event>
 7    1  0.1113211E-011  0.5930194E+02  0.7816164E-02  0.1266605E+00
        -11   -1    0    0    0    0  0.00000000000E+00  0.00000000000E+00  0.45593999997E+02  0.45594000000E+02  0.51100000000E-03 0.  1.
         11   -1    0    0    0    0 -0.00000000000E+00 -0.00000000000E+00 -0.45593999997E+02  0.45594000000E+02  0.51100000000E-03 0. -1.
    9900012    2    1    2    0    0 -0.69327998002E+01 -0.16351363544E+01 -0.31080272779E+02  0.59301941291E+02  0.49999995009E+02 0.  0.
        -12    1    1    2    0    0  0.69327998002E+01  0.16351363544E+01  0.31080272779E+02  0.31886058709E+02  0.00000000000E+00 0.  1.
         11    1    3    3    0    0 -0.19017459648E+01  0.12571529024E+02  0.88817318885E+01  0.15509517766E+02  0.51100000000E-03 0. -1.
        -11    1    3    3    0    0 -0.72563099141E+01 -0.10206624464E+02 -0.34281112281E+02  0.36496902279E+02  0.51100000000E-03 0.  1.
         12    1    3    3    0    0  0.22252560787E+01 -0.40000409150E+01 -0.56808923868E+01  0.72955212458E+01  0.00000000000E+00 0. -1.
</event>
<event>
 7    1  0.1113211E-011  0.5930189E+02  0.7816164E-02  0.1266605E+00
        -11   -1    0    0    0    0  0.00000000000E+00  0.00000000000E+00  0.45593999997E+02  0.45594000000E+02  0.51100000000E-03 0.  1.
         11   -1    0    0    0    0 -0.00000000000E+00 -0.00000000000E+00 -0.45593999997E+02  0.45594000000E+02  0.51100000000E-03 0. -1.
    9900012    2    1    2    0    0  0.18872867060E+02  0.23212507756E+02 -0.11032606412E+02  0.59301889675E+02  0.49999900874E+02 0.  0.
        -12    1    1    2    0    0 -0.18872867060E+02 -0.23212507756E+02  0.11032606412E+02  0.31886110325E+02  0.00000000000E+00 0.  1.
         11    1    3    3    0    0  0.13261118047E+02 -0.20605320889E+01 -0.16611646648E+02  0.21355323668E+02  0.51100000000E-03 0. -1.
        -11    1    3    3    0    0  0.49693510753E+01  0.30094328967E+02 -0.57043642379E-01  0.30501907158E+02  0.51100000000E-03 0.  1.
        -12    1    3    3    0    0  0.64239793768E+00 -0.48212891215E+01  0.56360838780E+01  0.74446588494E+01  0.00000000000E+00 0.  1.
</event>
<event>
 7    1  0.1113211E-011  0.5930201E+02  0.7816164E-02  0.1266605E+00
        -11   -1    0    0    0    0  0.00000000000E+00  0.00000000000E+00  0.45593999997E+02  0.45594000000E+02  0.51100000000E-03 0.  1.
         11   -1    0    0    0    0 -0.00000000000E+00 -0.00000000000E+00 -0.45593999997E+02  0.45594000000E+02  0.51100000000E-03 0. -1.
    9900012    2    1    2    0    0  0.27161354866E+02  0.13593552221E+02 -0.97052731298E+01  0.59302012691E+02  0.50000125225E+02 0.  0.
        -12    1    1    2    0    0 -0.27161354866E+02 -0.13593552221E+02  0.97052731298E+01  0.31885987309E+02  0.00000000000E+00 0.  1.
         11    1    3    3    0    0  0.32404174023E+02  0.14157872886E+02 -0.13793043771E+02  0.37956869147E+02  0.51100000000E-03 0. -1.
        -11    1    3    3    0    0 -0.41753860705E+01 -0.21192432664E+01 -0.79143378860E+01  0.91957482183E+01  0.51100000000E-03 0.  1.
         12    1    3    3    0    0 -0.10674330864E+01  0.15549226021E+01  0.12002108527E+02  0.12149395326E+02  0.00000000000E+00 0. -1.
</event>
<event>
 7    1  0.1113211E-011  0.5930194E+02  0.7816164E-02  0.1266605E+00
        -11   -1    0    0    0    0  0.00000000000E+00  0.00000000000E+00  0.45593999997E+02  0.45594000000E+02  0.51100000000E-03 0.  1.
         11   -1    0    0    0    0 -0.00000000000E+00 -0.00000000000E+00 -0.45593999997E+02  0.45594000000E+02  0.51100000000E-03 0. -1.
    9900012    2    1    2    0    0 -0.88670593039E+01 -0.27583793505E+02 -0.13312794384E+02  0.59301938796E+02  0.49999990458E+02 0.  0.
        -12    1    1    2    0    0  0.88670593039E+01  0.27583793505E+02  0.13312794384E+02  0.31886061204E+02  0.00000000000E+00 0.  1.
         11    1    3    3    0    0 -0.10345886105E+02 -0.12882721032E+02 -0.25448225240E+01  0.16717594995E+02  0.51100000000E-03 0. -1.
        -11    1    3    3    0    0  0.14134624950E+02 -0.21778061274E+02 -0.30029317380E+01  0.26135974721E+02  0.51100000000E-03 0.  1.
        -12    1    3    3    0    0 -0.12655798149E+02  0.70769888011E+01 -0.77650401223E+01  0.16448369079E+02  0.00000000000E+00 0.  1.
</event>
<event>
 7    1  0.1113211E-011  0.5930196E+02  0.7816164E-02  0.1266605E+00
        -11   -1    0    0    0    0  0.00000000000E+00  0.00000000000E+00  0.45593999997E+02  0.45594000000E+02  0.51100000000E-03 0.  1.
         11   -1    0    0    0    0 -0.00000000000E+00 -0.00000000000E+00 -0.45593999997E+02  0.45594000000E+02  0.51100000000E-03 0. -1.
    9900012    2    1    2    0    0  0.21303411361E+00  0.31285883653E+02  0.61536824151E+01  0.59301957493E+02  0.50000024557E+02 0.  0.
        -12    1    1    2    0    0 -0.21303411361E+00 -0.31285883653E+02 -0.61536824151E+01  0.31886042507E+02  0.00000000000E+00 0.  1.
         11    1    3    3    0    0  0.16662311398E+01 -0.10840199402E+02 -0.13962368019E+01  0.11056026717E+02  0.51100000000E-03 0. -1.
        -11    1    3    3    0    0 -0.36186065079E+01  0.37292221146E+02  0.13912657342E+02  0.39967062760E+02  0.51100000000E-03 0.  1.
        -12    1    3    3    0    0  0.21654094818E+01  0.48338619096E+01 -0.63627381253E+01  0.82788680166E+01  0.00000000000E+00 0.  1.
</event>
<event>
 7    1  0.1113211E-011  0.5930189E+02  0.7816164E-02  0.1266605E+00
        -11   -1    0    0    0    0  0.00000000000E+00  0.00000000000E+00  0.45593999997E+02  0.45594000000E+02  0.51100000000E-03 0.  1.
         11   -1    0    0    0    0 -0.00000000000E+00 -0.00000000000E+00 -0.45593999997E+02  0.45594000000E+02  0.51100000000E-03 0. -1.
    9900012    2    1    2    0    0  0.17905431274E+02 -0.25132810701E+02  0.80287897877E+01  0.59301888473E+02  0.49999898682E+02 0.  0.
        -12    1    1    2    0    0 -0.17905431274E+02  0.25132810701E+02 -0.80287897877E+01  0.31886111527E+02  0.00000000000E+00 0.  1.
         11    1    3    3    0    0  0.15384854349E+02 -0.14218982602E+02 -0.10279635197E+02  0.23335468918E+02  0.51100000000E-03 0. -1.
        -11    1    3    3    0    0 -0.91224942306E+01 -0.14959185068E+02  0.59294494205E+01  0.18497445488E+02  0.51100000000E-03 0.  1.
        -12    1    3    3    0    0  0.11643071156E+02  0.40453569690E+01  0.12378975565E+02  0.17468974068E+02  0.00000000000E+00 0.  1.
</event>
<event>
 7    1  0.1113211E-011  0.5930190E+02  0.7816164E-02  0.1266605E+00
        -11   -1    0    0    0    0  0.00000000000E+00  0.00000000000E+00  0.45593999997E+02  0.45594000000E+02  0.51100000000E-03 0.  1.
         11   -1    0    0    0    0 -0.00000000000E+00 -0.00000000000E+00 -0.45593999997E+02  0.45594000000E+02  0.51100000000E-03 0. -1.
    9900012    2    1    2    0    0 -0.29070378294E+02 -0.48390641779E+01 -0.12174573580E+02  0.59301895219E+02  0.49999910984E+02 0.  0.
        -12    1    1    2    0    0  0.29070378294E+02  0.48390641779E+01  0.12174573580E+02  0.31886104781E+02  0.00000000000E+00 0.  1.
         11    1    3    3    0    0  0.63440869106E+01 -0.95176411948E-01 -0.16014097881E+02  0.17225209098E+02  0.51100000000E-03 0. -1.
        -11    1    3    3    0    0 -0.13735005900E+02 -0.90883799089E+01  0.98156680178E+01  0.19172803012E+02  0.51100000000E-03 0.  1.
         12    1    3    3    0    0 -0.21679459304E+02  0.43444921430E+01 -0.59761437167E+01  0.22903883108E+02  0.00000000000E+00 0. -1.
</event>
<event>
 7    1  0.1113211E-011  0.5930189E+02  0.7816164E-02  0.1266605E+00
        -11   -1    0    0    0    0  0.00000000000E+00  0.00000000000E+00  0.45593999997E+02  0.45594000000E+02  0.51100000000E-03 0. -1.
         11   -1    0    0    0    0 -0.00000000000E+00 -0.00000000000E+00 -0.45593999997E+02  0.45594000000E+02  0.51100000000E-03 0.  1.
    9900012    2    1    2    0    0 -0.86515949264E+01 -0.26481571904E+02  0.15511299181E+02  0.59301887858E+02  0.49999897559E+02 0.  0.
        -12    1    1    2    0    0  0.86515949264E+01  0.26481571904E+02 -0.15511299181E+02  0.31886112142E+02  0.00000000000E+00 0.  1.
         11    1    3    3    0    0 -0.76387276596E+01 -0.20150625810E+01  0.92493604129E+01  0.12163934634E+02  0.51100000000E-03 0. -1.
        -11    1    3    3    0    0 -0.99143282575E+00 -0.35244220708E+02  0.81706608510E+01  0.36192509326E+02  0.51100000000E-03 0.  1.
        -12    1    3    3    0    0 -0.21434441101E-01  0.10777711385E+02 -0.19087220831E+01  0.10945443898E+02  0.00000000000E+00 0.  1.
</event>
<event>
 7    1  0.1113211E-011  0.5930199E+02  0.7816164E-02  0.1266605E+00
        -11   -1    0    0    0    0  0.00000000000E+00  0.00000000000E+00  0.45593999997E+02  0.45594000000E+02  0.51100000000E-03 0.  1.
         11   -1    0    0    0    0 -0.00000000000E+00 -0.00000000000E+00 -0.45593999997E+02  0.45594000000E+02  0.51100000000E-03 0. -1.
    9900012    2    1    2    0    0 -0.15133366417E+02 -0.16208617628E+02 -0.22912429934E+02  0.59301991940E+02  0.50000087380E+02 0.  0.
        -12    1    1    2    0    0  0.15133366417E+02  0.16208617628E+02  0.22912429934E+02  0.31886008060E+02  0.00000000000E+00 0.  1.
         11    1    3    3    0    0 -0.15398876586E+02 -0.23400590966E+02 -0.24736646196E+02  0.37371308820E+02  0.51100000000E-03 0. -1.
        -11    1    3    3    0    0 -0.98216654687E+01  0.59717335202E+01  0.24421211479E+01  0.11751198653E+02  0.51100000000E-03 0.  1.
         12    1    3    3    0    0  0.10087175638E+02  0.12202398171E+01 -0.61790488559E+00  0.10179484467E+02  0.00000000000E+00 0. -1.
</event>
<event>
 7    1  0.1113211E-011  0.5930190E+02  0.7816164E-02  0.1266605E+00
        -11   -1    0    0    0    0  0.00000000000E+00  0.00000000000E+00  0.45593999997E+02  0.45594000000E+02  0.51100000000E-03 0.  1.
         11   -1    0    0    0    0 -0.00000000000E+00 -0.00000000000E+00 -0.45593999997E+02  0.45594000000E+02  0.51100000000E-03 0. -1.
    9900012    2    1    2    0    0  0.24218972102E+01 -0.31755687956E+02 -0.15601058603E+01  0.59301902184E+02  0.49999923687E+02 0.  0.
        -12    1    1    2    0    0 -0.24218972102E+01  0.31755687956E+02  0.15601058603E+01  0.31886097816E+02  0.00000000000E+00 0.  1.
         11    1    3    3    0    0 -0.11201343654E+02 -0.25892096976E+02 -0.14239628634E+02  0.31601231137E+02  0.51100000000E-03 0. -1.
        -11    1    3    3    0    0  0.17574087807E+02 -0.59716666103E+00  0.67334332636E+01  0.18829346618E+02  0.51100000000E-03 0.  1.
         12    1    3    3    0    0 -0.39508469436E+01 -0.52664243181E+01  0.59460895100E+01  0.88713244293E+01  0.00000000000E+00 0. -1.
</event>
<event>
 7    1  0.1113211E-011  0.5930195E+02  0.7816164E-02  0.1266605E+00
        -11   -1    0    0    0    0  0.00000000000E+00  0.00000000000E+00  0.45593999997E+02  0.45594000000E+02  0.51100000000E-03 0. -1.
         11   -1    0    0    0    0 -0.00000000000E+00 -0.00000000000E+00 -0.45593999997E+02  0.45594000000E+02  0.51100000000E-03 0.  1.
    9900012    2    1    2    0    0 -0.27790040965E+02  0.15454068458E+02  0.23676187963E+01  0.59301949328E+02  0.50000009666E+02 0.  0.
        -12    1    1    2    0    0  0.27790040965E+02 -0.15454068458E+02 -0.23676187963E+01  0.31886050672E+02  0.00000000000E+00 0.  1.
         11    1    3    3    0    0 -0.13271174032E+02  0.15478407726E+02  0.28645316429E+01  0.20589091960E+02  0.51100000000E-03 0. -1.
        -11    1    3    3    0    0 -0.17474205481E+02 -0.13001313373E+02 -0.82728515208E+01  0.23298542426E+02  0.51100000000E-03 0.  1.
        -12    1    3    3    0    0  0.29553385484E+01  0.12976974105E+02  0.77759386742E+01  0.15414314942E+02  0.00000000000E+00 0.  1.
</event>
<event>
 7    1  0.1113211E-011  0.5930195E+02  0.7816164E-02  0.1266605E+00
        -11   -1    0    0    0    0  0.00000000000E+00  0.00000000000E+00  0.45593999997E+02  0.45594000000E+02  0.51100000000E-03 0.  1.
         11   -1    0    0    0    0 -0.00000000000E+00 -0.00000000000E+00 -0.45593999997E+02  0.45594000000E+02  0.51100000000E-03 0. -1.
    9900012    2    1    2    0    0  0.16087613368E+02 -0.20976705007E+02 -0.17829386496E+02  0.59301945374E+02  0.50000002454E+02 0.  0.
        -12    1    1    2    0    0 -0.16087613368E+02  0.20976705007E+02  0.17829386496E+02  0.31886054626E+02  0.00000000000E+00 0.  1.
         11    1    3    3    0    0 -0.25629045964E+01  0.56404699806E+01 -0.11981852689E+02  0.13488816690E+02  0.51100000000E-03 0. -1.
        -11    1    3    3    0    0  0.20861367564E+02 -0.32773425678E+02 -0.42636153882E+01  0.39082892725E+02  0.51100000000E-03 0.  1.
        -12    1    3    3    0    0 -0.22108496002E+01  0.61562506896E+01 -0.15839184188E+01  0.67302359591E+01  0.00000000000E+00 0.  1.
</event>
<event>
 7    1  0.1113211E-011  0.5930193E+02  0.7816164E-02  0.1266605E+00
        -11   -1    0    0    0    0  0.00000000000E+00  0.00000000000E+00  0.45593999997E+02  0.45594000000E+02  0.51100000000E-03 0.  1.
         11   -1    0    0    0    0 -0.00000000000E+00 -0.00000000000E+00 -0.45593999997E+02  0.45594000000E+02  0.51100000000E-03 0. -1.
    9900012    2    1    2    0    0 -0.30495981030E+02 -0.95280480249E+00 -0.92632969157E+01  0.59301931479E+02  0.49999977114E+02 0.  0.
        -12    1    1    2    0    0  0.30495981030E+02  0.95280480249E+00  0.92632969157E+01  0.31886068521E+02  0.00000000000E+00 0.  1.
         11    1    3    3    0    0 -0.31496363268E+02 -0.17469961844E+02 -0.46222976992E+01  0.36312340908E+02  0.51100000000E-03 0.  1.
        -11    1    3    3    0    0 -0.32143122912E+01  0.16768072706E+02 -0.66387548612E+01  0.18318655304E+02  0.51100000000E-03 0. -1.
        -12    1    3    3    0    0  0.42146945292E+01 -0.25091566443E+00  0.19977556447E+01  0.46709352662E+01  0.00000000000E+00 0.  1.
</event>
<event>
 7    1  0.1113211E-011  0.5930194E+02  0.7816164E-02  0.1266605E+00
        -11   -1    0    0    0    0  0.00000000000E+00  0.00000000000E+00  0.45593999997E+02  0.45594000000E+02  0.51100000000E-03 0.  1.
         11   -1    0    0    0    0 -0.00000000000E+00 -0.00000000000E+00 -0.45593999997E+02  0.45594000000E+02  0.51100000000E-03 0. -1.
    9900012    2    1    2    0    0  0.13887637914E+02  0.28702634352E+02 -0.11404694474E+00  0.59301941725E+02  0.49999995801E+02 0.  0.
        -12    1    1    2    0    0 -0.13887637914E+02 -0.28702634352E+02  0.11404694474E+00  0.31886058275E+02  0.00000000000E+00 0.  1.
         11    1    3    3    0    0  0.20321137751E+02  0.24900724461E+02  0.15877496822E+02  0.35848146727E+02  0.51100000000E-03 0. -1.
        -11    1    3    3    0    0  0.18609757857E+01 -0.34488777102E+01  0.13745721513E+00  0.39213368999E+01  0.51100000000E-03 0.  1.
         12    1    3    3    0    0 -0.82944756226E+01  0.72507876015E+01 -0.16129000981E+02  0.19532458098E+02  0.00000000000E+00 0. -1.
</event>
<event>
 7    1  0.1113211E-011  0.5930195E+02  0.7816164E-02  0.1266605E+00
        -11   -1    0    0    0    0  0.00000000000E+00  0.00000000000E+00  0.45593999997E+02  0.45594000000E+02  0.51100000000E-03 0.  1.
         11   -1    0    0    0    0 -0.00000000000E+00 -0.00000000000E+00 -0.45593999997E+02  0.45594000000E+02  0.51100000000E-03 0. -1.
    9900012    2    1    2    0    0  0.11098411300E+02 -0.27683935865E+02 -0.11275869019E+02  0.59301948810E+02  0.50000008722E+02 0.  0.
        -12    1    1    2    0    0 -0.11098411300E+02  0.27683935865E+02  0.11275869019E+02  0.31886051190E+02  0.00000000000E+00 0.  1.
         11    1    3    3    0    0  0.10723661796E+02 -0.14581626804E+01 -0.22392589620E+02  0.24870690196E+02  0.51100000000E-03 0. -1.
        -11    1    3    3    0    0  0.65229813147E+01 -0.11438721482E+02  0.12756000499E+02  0.18333280758E+02  0.51100000000E-03 0.  1.
         12    1    3    3    0    0 -0.61482318106E+01 -0.14787051702E+02 -0.16392798980E+01  0.16097977855E+02  0.00000000000E+00 0. -1.
</event>
<event>
 7    1  0.1113211E-011  0.5930197E+02  0.7816164E-02  0.1266605E+00
        -11   -1    0    0    0    0  0.00000000000E+00  0.00000000000E+00  0.45593999997E+02  0.45594000000E+02  0.51100000000E-03 0. -1.
         11   -1    0    0    0    0 -0.00000000000E+00 -0.00000000000E+00 -0.45593999997E+02  0.45594000000E+02  0.51100000000E-03 0.  1.
    9900012    2    1    2    0    0  0.25945808010E+01  0.14328565516E+01  0.31747978431E+02  0.59301967605E+02  0.50000042999E+02 0.  0.
        -12    1    1    2    0    0 -0.25945808010E+01 -0.14328565516E+01 -0.31747978431E+02  0.31886032395E+02  0.00000000000E+00 0.  1.
         11    1    3    3    0    0  0.12325499662E+02 -0.22922726612E+01 -0.37552732968E+01  0.13087189678E+02  0.51100000000E-03 0. -1.
        -11    1    3    3    0    0 -0.10282756098E+02 -0.10196826009E+02  0.11630445713E+02  0.18573572660E+02  0.51100000000E-03 0.  1.
         12    1    3    3    0    0  0.55183723647E+00  0.13921955222E+02  0.23872806015E+02  0.27641205266E+02  0.00000000000E+00 0. -1.
</event>
<event>
 7    1  0.1113211E-011  0.5930199E+02  0.7816164E-02  0.1266605E+00
        -11   -1    0    0    0    0  0.00000000000E+00  0.00000000000E+00  0.45593999997E+02  0.45594000000E+02  0.51100000000E-03 0.  1.
         11   -1    0    0    0    0 -0.00000000000E+00 -0.00000000000E+00 -0.45593999997E+02  0.45594000000E+02  0.51100000000E-03 0. -1.
    9900012    2    1    2    0    0  0.11777422528E+02  0.29465440361E+02 -0.31301283141E+01  0.59301991151E+02  0.50000085941E+02 0.  0.
        -12    1    1    2    0    0 -0.11777422528E+02 -0.29465440361E+02  0.31301283141E+01  0.31886008849E+02  0.00000000000E+00 0.  1.
         11    1    3    3    0    0  0.23711463831E+01  0.14923628172E+02  0.10964749815E+02  0.18669835343E+02  0.51100000000E-03 0. -1.
        -11    1    3    3    0    0 -0.31564080219E+01 -0.65226588139E+01 -0.14381957491E+02  0.16104306602E+02  0.51100000000E-03 0.  1.
        -12    1    3    3    0    0  0.12562684167E+02  0.21064471003E+02  0.28707936180E+00  0.24527849206E+02  0.00000000000E+00 0.  1.
</event>
<event>
 7    1  0.1113211E-011  0.5930192E+02  0.7816164E-02  0.1266605E+00
        -11   -1    0    0    0    0  0.00000000000E+00  0.00000000000E+00  0.45593999997E+02  0.45594000000E+02  0.51100000000E-03 0. -1.
         11   -1    0    0    0    0 -0.00000000000E+00 -0.00000000000E+00 -0.45593999997E+02  0.45594000000E+02  0.51100000000E-03 0.  1.
    9900012    2    1    2    0    0  0.20980167501E+02  0.75966195062E+01 -0.22778191478E+02  0.59301920540E+02  0.49999957165E+02 0.  0.
        -12    1    1    2    0    0 -0.20980167501E+02 -0.75966195062E+01  0.22778191478E+02  0.31886079460E+02  0.00000000000E+00 0.  1.
         11    1    3    3    0    0  0.28623491240E+02 -0.12055665817E+02 -0.20825214955E+02  0.37394289768E+02  0.51100000000E-03 0. -1.
        -11    1    3    3    0    0 -0.67704112133E+01  0.10320277439E+02 -0.21709941950E+01  0.12532350557E+02  0.51100000000E-03 0.  1.
         12    1    3    3    0    0 -0.87291252514E+00  0.93320078841E+01  0.21801767197E+00  0.93752802161E+01  0.00000000000E+00 0. -1.
</event>
<event>
 7    1  0.1113211E-011  0.5930193E+02  0.7816164E-02  0.1266605E+00
        -11   -1    0    0    0    0  0.00000000000E+00  0.00000000000E+00  0.45593999997E+02  0.45594000000E+02  0.51100000000E-03 0. -1.
         11   -1    0    0    0    0 -0.00000000000E+00 -0.00000000000E+00 -0.45593999997E+02  0.45594000000E+02  0.51100000000E-03 0.  1.
    9900012    2    1    2    0    0 -0.72123108798E+01  0.12987670870E+02  0.28213910012E+02  0.59301925594E+02  0.49999966381E+02 0.  0.
        -12    1    1    2    0    0  0.72123108798E+01 -0.12987670870E+02 -0.28213910012E+02  0.31886074406E+02  0.00000000000E+00 0.  1.
         11    1    3    3    0    0 -0.75233662167E+01 -0.17085489591E+01  0.13298661396E+02  0.15374478006E+02  0.51100000000E-03 0. -1.
        -11    1    3    3    0    0 -0.10846151974E+02  0.22210226647E+02  0.17427680150E+02  0.30243300349E+02  0.51100000000E-03 0.  1.
        -12    1    3    3    0    0  0.11157207311E+02 -0.75140068173E+01 -0.25124315335E+01  0.13684147238E+02  0.00000000000E+00 0.  1.
</event>
<event>
 7    1  0.1113211E-011  0.5930195E+02  0.7816164E-02  0.1266605E+00
        -11   -1    0    0    0    0  0.00000000000E+00  0.00000000000E+00  0.45593999997E+02  0.45594000000E+02  0.51100000000E-03 0.  1.
         11   -1    0    0    0    0 -0.00000000000E+00 -0.00000000000E+00 -0.45593999997E+02  0.45594000000E+02  0.51100000000E-03 0. -1.
    9900012    2    1    2    0    0  0.13808972239E+02  0.28703476520E+02  0.14639226672E+01  0.59301947435E+02  0.50000006213E+02 0.  0.
        -12    1    1    2    0    0 -0.13808972239E+02 -0.28703476520E+02 -0.14639226672E+01  0.31886052565E+02  0.00000000000E+00 0.  1.
         11    1    3    3    0    0 -0.11541934875E+02  0.15703679284E+02  0.13572849204E+02  0.23749611354E+02  0.51100000000E-03 0.  1.
        -11    1    3    3    0    0  0.19558808511E+02  0.89000679223E+01 -0.16600663648E+02  0.27154009524E+02  0.51100000000E-03 0. -1.
         12    1    3    3    0    0  0.57920986030E+01  0.40997293142E+01  0.44917371115E+01  0.83983265569E+01  0.00000000000E+00 0. -1.
</event>
<event>
 7    1  0.1113211E-011  0.5930190E+02  0.7816164E-02  0.1266605E+00
        -11   -1    0    0    0    0  0.00000000000E+00  0.00000000000E+00  0.45593999997E+02  0.45594000000E+02  0.51100000000E-03 0.  1.
         11   -1    0    0    0    0 -0.00000000000E+00 -0.00000000000E+00 -0.45593999997E+02  0.45594000000E+02  0.51100000000E-03 0. -1.
    9900012    2    1    2    0    0 -0.30059592224E+02 -0.99389111813E+01 -0.37897485362E+01  0.59301902181E+02  0.49999923681E+02 0.  0.
        -12    1    1    2    0    0  0.30059592224E+02  0.99389111813E+01  0.37897485362E+01  0.31886097819E+02  0.00000000000E+00 0.  1.
         11    1    3    3    0    0 -0.24483898267E+02  0.32572724330E+00  0.10421725544E+01  0.24508233238E+02  0.51100000000E-03 0.  1.
        -11    1    3    3    0    0  0.44691147255E+01 -0.15321987381E+02  0.78979211573E+01  0.17807679316E+02  0.51100000000E-03 0. -1.
         12    1    3    3    0    0 -0.10044808683E+02  0.50573489566E+01 -0.12729842248E+02  0.16985989627E+02  0.00000000000E+00 0. -1.
</event>
<event>
 7    1  0.1113211E-011  0.5930193E+02  0.7816164E-02  0.1266605E+00
        -11   -1    0    0    0    0  0.00000000000E+00  0.00000000000E+00  0.45593999997E+02  0.45594000000E+02  0.51100000000E-03 0. -1.
         11   -1    0    0    0    0 -0.00000000000E+00 -0.00000000000E+00 -0.45593999997E+02  0.45594000000E+02  0.51100000000E-03 0.  1.
    9900012    2    1    2    0    0  0.57331908903E+01  0.29507419637E+02  0.10637858070E+02  0.59301932263E+02  0.49999978543E+02 0.  0.
        -12    1    1    2    0    0 -0.57331908903E+01 -0.29507419637E+02 -0.10637858070E+02  0.31886067737E+02  0.00000000000E+00 0.  1.
         11    1    3    3    0    0 -0.55856867177E+01  0.78006329147E+01  0.24935882445E+02  0.26717934118E+02  0.51100000000E-03 0. -1.
        -11    1    3    3    0    0  0.12711059051E+02  0.10985571282E+02 -0.13833491285E+02  0.21762795776E+02  0.51100000000E-03 0.  1.
         12    1    3    3    0    0 -0.13921814435E+01  0.10721215441E+02 -0.46453309026E+00  0.10821202368E+02  0.00000000000E+00 0. -1.
</event>
<event>
 7    1  0.1113211E-011  0.5930205E+02  0.7816164E-02  0.1266604E+00
        -11   -1    0    0    0    0  0.00000000000E+00  0.00000000000E+00  0.45593999997E+02  0.45594000000E+02  0.51100000000E-03 0. -1.
         11   -1    0    0    0    0 -0.00000000000E+00 -0.00000000000E+00 -0.45593999997E+02  0.45594000000E+02  0.51100000000E-03 0.  1.
    9900012    2    1    2    0    0 -0.11779947783E+02 -0.65565358598E+01  0.28895646810E+02  0.59302051107E+02  0.50000195286E+02 0.  0.
        -12    1    1    2    0    0  0.11779947783E+02  0.65565358598E+01 -0.28895646810E+02  0.31885948893E+02  0.00000000000E+00 0.  1.
         11    1    3    3    0    0 -0.83261179717E+00  0.12976570958E+02  0.57381165418E+01  0.14213043936E+02  0.51100000000E-03 0. -1.
        -11    1    3    3    0    0  0.32351816533E+01 -0.22939098794E+02  0.18890781287E+02  0.29891976711E+02  0.51100000000E-03 0.  1.
         12    1    3    3    0    0 -0.14182517639E+02  0.34059919760E+01  0.42667489814E+01  0.15197030459E+02  0.00000000000E+00 0. -1.
</event>
<event>
 7    1  0.1113211E-011  0.5930192E+02  0.7816164E-02  0.1266605E+00
        -11   -1    0    0    0    0  0.00000000000E+00  0.00000000000E+00  0.45593999997E+02  0.45594000000E+02  0.51100000000E-03 0.  1.
         11   -1    0    0    0    0 -0.00000000000E+00 -0.00000000000E+00 -0.45593999997E+02  0.45594000000E+02  0.51100000000E-03 0. -1.
    9900012    2    1    2    0    0  0.75989255160E+00 -0.14325403130E+02 -0.28476787925E+02  0.59301920560E+02  0.49999957200E+02 0.  0.
        -12    1    1    2    0    0 -0.75989255160E+00  0.14325403130E+02  0.28476787925E+02  0.31886079440E+02  0.00000000000E+00 0.  1.
         11    1    3    3    0    0  0.65567798608E+00 -0.26267564112E+02 -0.71245369906E+00  0.26285403336E+02  0.51100000000E-03 0. -1.
        -11    1    3    3    0    0 -0.57516011589E+01  0.45363627796E+01 -0.66751530866E+01  0.99104577164E+01  0.51100000000E-03 0.  1.
         12    1    3    3    0    0  0.58558157244E+01  0.74057982024E+01 -0.21089181140E+02  0.23106059507E+02  0.00000000000E+00 0. -1.
</event>
<event>
 7    1  0.1113211E-011  0.5930198E+02  0.7816164E-02  0.1266605E+00
        -11   -1    0    0    0    0  0.00000000000E+00  0.00000000000E+00  0.45593999997E+02  0.45594000000E+02  0.51100000000E-03 0.  1.
         11   -1    0    0    0    0 -0.00000000000E+00 -0.00000000000E+00 -0.45593999997E+02  0.45594000000E+02  0.51100000000E-03 0. -1.
    9900012    2    1    2    0    0  0.17782330574E+02  0.12598468962E+02 -0.23276284139E+02  0.59301982623E+02  0.50000070389E+02 0.  0.
        -12    1    1    2    0    0 -0.17782330574E+02 -0.12598468962E+02  0.23276284139E+02  0.31886017377E+02  0.00000000000E+00 0.  1.
         11    1    3    3    0    0 -0.13458783098E+02 -0.21051262269E+01 -0.12238976004E+02  0.18312917102E+02  0.51100000000E-03 0. -1.
        -11    1    3    3    0    0  0.21665393732E+02  0.41712021631E+00 -0.25771745073E+01  0.21822124176E+02  0.51100000000E-03 0.  1.
        -12    1    3    3    0    0  0.95757199401E+01  0.14286474972E+02 -0.84601336275E+01  0.19166941345E+02  0.00000000000E+00 0.  1.
</event>
<event>
 7    1  0.1113211E-011  0.5930193E+02  0.7816164E-02  0.1266605E+00
        -11   -1    0    0    0    0  0.00000000000E+00  0.00000000000E+00  0.45593999997E+02  0.45594000000E+02  0.51100000000E-03 0. -1.
         11   -1    0    0    0    0 -0.00000000000E+00 -0.00000000000E+00 -0.45593999997E+02  0.45594000000E+02  0.51100000000E-03 0.  1.
    9900012    2    1    2    0    0 -0.16563733176E+01  0.49398186918E+01  0.31457523720E+02  0.59301934393E+02  0.49999982429E+02 0.  0.
        -12    1    1    2    0    0  0.16563733176E+01 -0.49398186918E+01 -0.31457523720E+02  0.31886065607E+02  0.00000000000E+00 0.  1.
         11    1    3    3    0    0 -0.10346910869E+02 -0.16172809141E+01  0.34748486220E+02  0.36292305754E+02  0.51100000000E-03 0. -1.
        -11    1    3    3    0    0  0.45715408645E+01 -0.53248857631E+01 -0.69859360500E+01  0.99023581545E+01  0.51100000000E-03 0.  1.
        -12    1    3    3    0    0  0.41189966874E+01  0.11881985369E+02  0.36949735505E+01  0.13107270485E+02  0.00000000000E+00 0.  1.
</event>
<event>
 7    1  0.1113211E-011  0.5930199E+02  0.7816164E-02  0.1266605E+00
        -11   -1    0    0    0    0  0.00000000000E+00  0.00000000000E+00  0.45593999997E+02  0.45594000000E+02  0.51100000000E-03 0. -1.
         11   -1    0    0    0    0 -0.00000000000E+00 -0.00000000000E+00 -0.45593999997E+02  0.45594000000E+02  0.51100000000E-03 0.  1.
    9900012    2    1    2    0    0 -0.17033446064E+02 -0.16051747161E+02  0.21654583388E+02  0.59301986555E+02  0.50000077559E+02 0.  0.
        -12    1    1    2    0    0  0.17033446064E+02  0.16051747161E+02 -0.21654583388E+02  0.31886013445E+02  0.00000000000E+00 0.  1.
         11    1    3    3    0    0 -0.19871458258E+02 -0.86863699267E+01 -0.55294129592E+01  0.22380846359E+02  0.51100000000E-03 0. -1.
        -11    1    3    3    0    0  0.28639895091E+01 -0.15244709849E+02  0.11302501145E+02  0.19192450252E+02  0.51100000000E-03 0.  1.
         12    1    3    3    0    0 -0.25977315425E-01  0.78793326146E+01  0.15881495202E+02  0.17728689944E+02  0.00000000000E+00 0. -1.
</event>
<event>
 7    1  0.1113211E-011  0.5930182E+02  0.7816164E-02  0.1266605E+00
        -11   -1    0    0    0    0  0.00000000000E+00  0.00000000000E+00  0.45593999997E+02  0.45594000000E+02  0.51100000000E-03 0. -1.
         11   -1    0    0    0    0 -0.00000000000E+00 -0.00000000000E+00 -0.45593999997E+02  0.45594000000E+02  0.51100000000E-03 0.  1.
    9900012    2    1    2    0    0 -0.18986562432E+02 -0.18558341425E+02  0.17658621384E+02  0.59301819630E+02  0.49999773128E+02 0.  0.
        -12    1    1    2    0    0  0.18986562432E+02  0.18558341425E+02 -0.17658621384E+02  0.31886180370E+02  0.00000000000E+00 0.  1.
         11    1    3    3    0    0 -0.23999857436E+02 -0.36044803984E+00  0.68160292119E+01  0.24951579794E+02  0.51100000000E-03 0. -1.
        -11    1    3    3    0    0  0.12583739013E+01 -0.24849749606E+02  0.73009403873E+01  0.25930624581E+02  0.51100000000E-03 0.  1.
         12    1    3    3    0    0  0.37549211026E+01  0.66518562215E+01  0.35416517846E+01  0.84196152550E+01  0.00000000000E+00 0. -1.
</event>
<event>
 7    1  0.1113211E-011  0.5930221E+02  0.7816164E-02  0.1266604E+00
        -11   -1    0    0    0    0  0.00000000000E+00  0.00000000000E+00  0.45593999997E+02  0.45594000000E+02  0.51100000000E-03 0. -1.
         11   -1    0    0    0    0 -0.00000000000E+00 -0.00000000000E+00 -0.45593999997E+02  0.45594000000E+02  0.51100000000E-03 0.  1.
    9900012    2    1    2    0    0  0.27167330073E+01 -0.29065575699E+02 -0.12826350123E+02  0.59302210274E+02  0.50000485567E+02 0.  0.
        -12    1    1    2    0    0 -0.27167330073E+01  0.29065575699E+02  0.12826350123E+02  0.31885789726E+02  0.00000000000E+00 0.  1.
         11    1    3    3    0    0 -0.66951359371E+01 -0.13597728426E+02  0.10763319195E+02  0.18589569761E+02  0.51100000000E-03 0. -1.
        -11    1    3    3    0    0 -0.82033464680E+01 -0.11018747762E+02 -0.15822146767E+02  0.20953472841E+02  0.51100000000E-03 0.  1.
         12    1    3    3    0    0  0.17615215412E+02 -0.44490995118E+01 -0.77675225520E+01  0.19759167672E+02  0.00000000000E+00 0. -1.
</event>
<event>
 7    1  0.1113211E-011  0.5930194E+02  0.7816164E-02  0.1266605E+00
        -11   -1    0    0    0    0  0.00000000000E+00  0.00000000000E+00  0.45593999997E+02  0.45594000000E+02  0.51100000000E-03 0. -1.
         11   -1    0    0    0    0 -0.00000000000E+00 -0.00000000000E+00 -0.45593999997E+02  0.45594000000E+02  0.51100000000E-03 0.  1.
    9900012    2    1    2    0    0 -0.98882911164E+01  0.20560543535E+02  0.22275688210E+02  0.59301944476E+02  0.50000000817E+02 0.  0.
        -12    1    1    2    0    0  0.98882911164E+01 -0.20560543535E+02 -0.22275688210E+02  0.31886055524E+02  0.00000000000E+00 0.  1.
         11    1    3    3    0    0  0.13000544791E+02  0.14807907717E+02 -0.15136913452E+01  0.19763085730E+02  0.51100000000E-03 0. -1.
        -11    1    3    3    0    0 -0.17127844282E+02 -0.51521252383E+01  0.82412877496E+01  0.19693305163E+02  0.51100000000E-03 0.  1.
         12    1    3    3    0    0 -0.57609916253E+01  0.10904761056E+02  0.15548091806E+02  0.19845553582E+02  0.00000000000E+00 0. -1.
</event>
<event>
 7    1  0.1113211E-011  0.5930196E+02  0.7816164E-02  0.1266605E+00
        -11   -1    0    0    0    0  0.00000000000E+00  0.00000000000E+00  0.45593999997E+02  0.45594000000E+02  0.51100000000E-03 0. -1.
         11   -1    0    0    0    0 -0.00000000000E+00 -0.00000000000E+00 -0.45593999997E+02  0.45594000000E+02  0.51100000000E-03 0.  1.
    9900012    2    1    2    0    0 -0.10474892099E+02  0.25727055304E+02  0.15656144066E+02  0.59301959385E+02  0.50000028008E+02 0.  0.
        -12    1    1    2    0    0  0.10474892099E+02 -0.25727055304E+02 -0.15656144066E+02  0.31886040615E+02  0.00000000000E+00 0.  1.
         11    1    3    3    0    0  0.16445310473E+00  0.54689584918E+00  0.50341902563E+01  0.50664792204E+01  0.51100000000E-03 0. -1.
        -11    1    3    3    0    0  0.32305385924E+00 -0.33492781183E+01 -0.14367762941E+02  0.14756511780E+02  0.51100000000E-03 0.  1.
        -12    1    3    3    0    0 -0.10962399063E+02  0.28529437573E+02  0.24989716751E+02  0.39478968385E+02  0.00000000000E+00 0.  1.
</event>
<event>
 7    1  0.1113211E-011  0.5930181E+02  0.7816164E-02  0.1266605E+00
        -11   -1    0    0    0    0  0.00000000000E+00  0.00000000000E+00  0.45593999997E+02  0.45594000000E+02  0.51100000000E-03 0.  1.
         11   -1    0    0    0    0 -0.00000000000E+00 -0.00000000000E+00 -0.45593999997E+02  0.45594000000E+02  0.51100000000E-03 0. -1.
    9900012    2    1    2    0    0 -0.27092105031E+02  0.65096454706E+01 -0.15503915400E+02  0.59301811268E+02  0.49999757877E+02 0.  0.
        -12    1    1    2    0    0  0.27092105031E+02 -0.65096454706E+01  0.15503915400E+02  0.31886188732E+02  0.00000000000E+00 0.  1.
         11    1    3    3    0    0 -0.84574089341E+01  0.67190029272E+01 -0.93788283331E+01  0.14305075581E+02  0.51100000000E-03 0. -1.
        -11    1    3    3    0    0 -0.18442190864E+02 -0.15419300818E+02 -0.14051293150E+02  0.27844354563E+02  0.51100000000E-03 0.  1.
        -12    1    3    3    0    0 -0.19250523215E+00  0.15209943361E+02  0.79262060837E+01  0.17152381123E+02  0.00000000000E+00 0.  1.
</event>
<event>
 7    1  0.1113211E-011  0.5930195E+02  0.7816164E-02  0.1266605E+00
        -11   -1    0    0    0    0  0.00000000000E+00  0.00000000000E+00  0.45593999997E+02  0.45594000000E+02  0.51100000000E-03 0.  1.
         11   -1    0    0    0    0 -0.00000000000E+00 -0.00000000000E+00 -0.45593999997E+02  0.45594000000E+02  0.51100000000E-03 0. -1.
    9900012    2    1    2    0    0  0.52458638164E+01 -0.22055669248E+02 -0.22422054611E+02  0.59301950290E+02  0.50000011420E+02 0.  0.
        -12    1    1    2    0    0 -0.52458638164E+01  0.22055669248E+02  0.22422054611E+02  0.31886049710E+02  0.00000000000E+00 0.  1.
         11    1    3    3    0    0 -0.22987428569E+01  0.45445578479E+01 -0.55577925701E+01  0.75383209847E+01  0.51100000000E-03 0. -1.
        -11    1    3    3    0    0 -0.22708978767E+01 -0.32520780062E+02 -0.15530562239E+01  0.32636943744E+02  0.51100000000E-03 0.  1.
        -12    1    3    3    0    0  0.98155045501E+01  0.59205529663E+01 -0.15311205817E+02  0.19126685561E+02  0.00000000000E+00 0.  1.
</event>
<event>
 7    1  0.1113211E-011  0.5930214E+02  0.7816164E-02  0.1266604E+00
        -11   -1    0    0    0    0  0.00000000000E+00  0.00000000000E+00  0.45593999997E+02  0.45594000000E+02  0.51100000000E-03 0.  1.
         11   -1    0    0    0    0 -0.00000000000E+00 -0.00000000000E+00 -0.45593999997E+02  0.45594000000E+02  0.51100000000E-03 0. -1.
    9900012    2    1    2    0    0 -0.24237631307E+02  0.71582794278E+01 -0.19442341575E+02  0.59302135080E+02  0.50000348433E+02 0.  0.
        -12    1    1    2    0    0  0.24237631307E+02 -0.71582794278E+01  0.19442341575E+02  0.31885864920E+02  0.00000000000E+00 0.  1.
         11    1    3    3    0    0 -0.29316735783E+02 -0.60259830896E+01 -0.96767036383E+01  0.31455080078E+02  0.51100000000E-03 0.  1.
        -11    1    3    3    0    0  0.12596289938E+02  0.40349284494E+01 -0.12994234886E+01  0.13290435262E+02  0.51100000000E-03 0. -1.
         12    1    3    3    0    0 -0.75171854619E+01  0.91493340681E+01 -0.84662144484E+01  0.14556619740E+02  0.00000000000E+00 0. -1.
</event>
<event>
 7    1  0.1113211E-011  0.5930195E+02  0.7816164E-02  0.1266605E+00
        -11   -1    0    0    0    0  0.00000000000E+00  0.00000000000E+00  0.45593999997E+02  0.45594000000E+02  0.51100000000E-03 0.  1.
         11   -1    0    0    0    0 -0.00000000000E+00 -0.00000000000E+00 -0.45593999997E+02  0.45594000000E+02  0.51100000000E-03 0. -1.
    9900012    2    1    2    0    0 -0.68052361201E+01  0.58843982838E+01 -0.30590565548E+02  0.59301951603E+02  0.50000013816E+02 0.  0.
        -12    1    1    2    0    0  0.68052361201E+01 -0.58843982838E+01  0.30590565548E+02  0.31886048397E+02  0.00000000000E+00 0.  1.
         11    1    3    3    0    0 -0.24596001885E+01 -0.84483609074E+01 -0.34032361714E+02  0.35151473358E+02  0.51100000000E-03 0. -1.
        -11    1    3    3    0    0 -0.23496341062E+01  0.18347007194E+01  0.96166181737E+01  0.10068080876E+02  0.51100000000E-03 0.  1.
         12    1    3    3    0    0 -0.19960018254E+01  0.12498058472E+02 -0.61748220078E+01  0.14082397370E+02  0.00000000000E+00 0. -1.
</event>
<event>
 7    1  0.1113211E-011  0.5930196E+02  0.7816164E-02  0.1266605E+00
        -11   -1    0    0    0    0  0.00000000000E+00  0.00000000000E+00  0.45593999997E+02  0.45594000000E+02  0.51100000000E-03 0.  1.
         11   -1    0    0    0    0 -0.00000000000E+00 -0.00000000000E+00 -0.45593999997E+02  0.45594000000E+02  0.51100000000E-03 0. -1.
    9900012    2    1    2    0    0  0.10179264131E+02  0.13968141834E+02 -0.26795398090E+02  0.59301956605E+02  0.50000022939E+02 0.  0.
        -12    1    1    2    0    0 -0.10179264131E+02 -0.13968141834E+02  0.26795398090E+02  0.31886043395E+02  0.00000000000E+00 0.  1.
         11    1    3    3    0    0  0.17241694669E+02  0.10315791791E+02 -0.34258606235E+02  0.39715786493E+02  0.51100000000E-03 0. -1.
        -11    1    3    3    0    0 -0.30645951383E+01  0.95684778340E+01  0.73435909907E+01  0.12444912226E+02  0.51100000000E-03 0.  1.
         12    1    3    3    0    0 -0.39978354000E+01 -0.59161277911E+01  0.11961715427E+00  0.71412578857E+01  0.00000000000E+00 0. -1.
</event>
<event>
 7    1  0.1113211E-011  0.5930198E+02  0.7816164E-02  0.1266605E+00
        -11   -1    0    0    0    0  0.00000000000E+00  0.00000000000E+00  0.45593999997E+02  0.45594000000E+02  0.51100000000E-03 0.  1.
         11   -1    0    0    0    0 -0.00000000000E+00 -0.00000000000E+00 -0.45593999997E+02  0.45594000000E+02  0.51100000000E-03 0. -1.
    9900012    2    1    2    0    0 -0.11489429171E+02 -0.10225090976E+02 -0.27931326322E+02  0.59301977071E+02  0.50000060262E+02 0.  0.
        -12    1    1    2    0    0  0.11489429171E+02  0.10225090976E+02  0.27931326322E+02  0.31886022929E+02  0.00000000000E+00 0.  1.
         11    1    3    3    0    0 -0.19466837038E+02  0.17045986919E+01 -0.21330724223E+02  0.28928587886E+02  0.51100000000E-03 0. -1.
        -11    1    3    3    0    0  0.11459898033E+02 -0.12311233712E+02 -0.14195604108E+02  0.22009336989E+02  0.51100000000E-03 0.  1.
        -12    1    3    3    0    0 -0.34824901651E+01  0.38154404476E+00  0.75950020086E+01  0.83640521949E+01  0.00000000000E+00 0.  1.
</event>
<event>
 7    1  0.1113211E-011  0.5930194E+02  0.7816164E-02  0.1266605E+00
        -11   -1    0    0    0    0  0.00000000000E+00  0.00000000000E+00  0.45593999997E+02  0.45594000000E+02  0.51100000000E-03 0. -1.
         11   -1    0    0    0    0 -0.00000000000E+00 -0.00000000000E+00 -0.45593999997E+02  0.45594000000E+02  0.51100000000E-03 0.  1.
    9900012    2    1    2    0    0  0.80882721712E+01  0.21924521348E+02  0.21693690170E+02  0.59301937586E+02  0.49999988252E+02 0.  0.
        -12    1    1    2    0    0 -0.80882721712E+01 -0.21924521348E+02 -0.21693690170E+02  0.31886062414E+02  0.00000000000E+00 0.  1.
         11    1    3    3    0    0 -0.58910707003E+01  0.26448921962E+02 -0.52650688084E+01  0.27603824676E+02  0.51100000000E-03 0.  1.
        -11    1    3    3    0    0  0.10310593685E+02 -0.86639450240E+00  0.11879981944E+02  0.15754140815E+02  0.51100000000E-03 0. -1.
         12    1    3    3    0    0  0.36687491871E+01 -0.36580061112E+01  0.15078777034E+02  0.15943972095E+02  0.00000000000E+00 0. -1.
</event>
<event>
 7    1  0.1113211E-011  0.5930196E+02  0.7816164E-02  0.1266605E+00
        -11   -1    0    0    0    0  0.00000000000E+00  0.00000000000E+00  0.45593999997E+02  0.45594000000E+02  0.51100000000E-03 0.  1.
         11   -1    0    0    0    0 -0.00000000000E+00 -0.00000000000E+00 -0.45593999997E+02  0.45594000000E+02  0.51100000000E-03 0. -1.
    9900012    2    1    2    0    0 -0.14927161475E+01  0.31171813255E+02 -0.65428714921E+01  0.59301963707E+02  0.50000035890E+02 0.  0.
        -12    1    1    2    0    0  0.14927161475E+01 -0.31171813255E+02  0.65428714921E+01  0.31886036293E+02  0.00000000000E+00 0.  1.
         11    1    3    3    0    0 -0.10409276636E+02  0.98433069655E+01 -0.24607677659E+02  0.28474225751E+02  0.51100000000E-03 0. -1.
        -11    1    3    3    0    0 -0.18656878641E+01  0.55103979121E+01  0.47285050197E+01  0.74969351296E+01  0.51100000000E-03 0.  1.
         12    1    3    3    0    0  0.10782248352E+02  0.15818108378E+02  0.13336301148E+02  0.23330802826E+02  0.00000000000E+00 0. -1.
</event>
<event>
 7    1  0.1113211E-011  0.5930207E+02  0.7816164E-02  0.1266604E+00
        -11   -1    0    0    0    0  0.00000000000E+00  0.00000000000E+00  0.45593999997E+02  0.45594000000E+02  0.51100000000E-03 0.  1.
         11   -1    0    0    0    0 -0.00000000000E+00 -0.00000000000E+00 -0.45593999997E+02  0.45594000000E+02  0.51100000000E-03 0. -1.
    9900012    2    1    2    0    0 -0.29824804076E+02 -0.48039678395E+01  0.10203691201E+02  0.59302072708E+02  0.50000234681E+02 0.  0.
        -12    1    1    2    0    0  0.29824804076E+02  0.48039678395E+01 -0.10203691201E+02  0.31885927292E+02  0.00000000000E+00 0.  1.
         11    1    3    3    0    0 -0.25462780363E+02  0.15574445348E+02 -0.65813588365E+01  0.30565189614E+02  0.51100000000E-03 0. -1.
        -11    1    3    3    0    0  0.97601172016E+00 -0.13186421142E+02  0.54780878016E+01  0.14312363454E+02  0.51100000000E-03 0.  1.
         12    1    3    3    0    0 -0.53380354327E+01 -0.71919920455E+01  0.11306962236E+02  0.14424519641E+02  0.00000000000E+00 0. -1.
</event>
<event>
 7    1  0.1113211E-011  0.5930192E+02  0.7816164E-02  0.1266605E+00
        -11   -1    0    0    0    0  0.00000000000E+00  0.00000000000E+00  0.45593999997E+02  0.45594000000E+02  0.51100000000E-03 0. -1.
         11   -1    0    0    0    0 -0.00000000000E+00 -0.00000000000E+00 -0.45593999997E+02  0.45594000000E+02  0.51100000000E-03 0.  1.
    9900012    2    1    2    0    0 -0.19475221501E+02 -0.14098363432E+02  0.20944548752E+02  0.59301917983E+02  0.49999952500E+02 0.  0.
        -12    1    1    2    0    0  0.19475221501E+02  0.14098363432E+02 -0.20944548752E+02  0.31886082017E+02  0.00000000000E+00 0.  1.
         11    1    3    3    0    0  0.72888260995E+01 -0.20886424293E+02  0.11311135866E+02  0.24845754175E+02  0.51100000000E-03 0. -1.
        -11    1    3    3    0    0 -0.15511987996E+01  0.76882045147E+01  0.26473038234E+01  0.82778574625E+01  0.51100000000E-03 0.  1.
         12    1    3    3    0    0 -0.25212848801E+02 -0.90014365313E+00  0.69861090628E+01  0.26178306345E+02  0.00000000000E+00 0. -1.
</event>
<event>
 7    1  0.1113211E-011  0.5930193E+02  0.7816164E-02  0.1266605E+00
        -11   -1    0    0    0    0  0.00000000000E+00  0.00000000000E+00  0.45593999997E+02  0.45594000000E+02  0.51100000000E-03 0.  1.
         11   -1    0    0    0    0 -0.00000000000E+00 -0.00000000000E+00 -0.45593999997E+02  0.45594000000E+02  0.51100000000E-03 0. -1.
    9900012    2    1    2    0    0  0.17478413417E+01 -0.31822645466E+02 -0.99280661975E+00  0.59301931274E+02  0.49999976741E+02 0.  0.
        -12    1    1    2    0    0 -0.17478413417E+01  0.31822645466E+02  0.99280661975E+00  0.31886068726E+02  0.00000000000E+00 0.  1.
         11    1    3    3    0    0  0.48099972836E+01 -0.35028898014E+02 -0.10031216656E+02  0.36753028144E+02  0.51100000000E-03 0. -1.
        -11    1    3    3    0    0 -0.84118877426E+01  0.45104255838E+01 -0.24106256689E+01  0.98445371002E+01  0.51100000000E-03 0.  1.
        -12    1    3    3    0    0  0.53497318008E+01 -0.13041730359E+01  0.11449035705E+02  0.12704366030E+02  0.00000000000E+00 0.  1.
</event>
<event>
 7    1  0.1113211E-011  0.5930197E+02  0.7816164E-02  0.1266605E+00
        -11   -1    0    0    0    0  0.00000000000E+00  0.00000000000E+00  0.45593999997E+02  0.45594000000E+02  0.51100000000E-03 0. -1.
         11   -1    0    0    0    0 -0.00000000000E+00 -0.00000000000E+00 -0.45593999997E+02  0.45594000000E+02  0.51100000000E-03 0.  1.
    9900012    2    1    2    0    0 -0.25533194421E+02 -0.17574739667E+02 -0.74768755001E+01  0.59301966083E+02  0.50000040223E+02 0.  0.
        -12    1    1    2    0    0  0.25533194421E+02  0.17574739667E+02  0.74768755001E+01  0.31886033917E+02  0.00000000000E+00 0.  1.
         11    1    3    3    0    0 -0.29216626909E+02 -0.14407228419E+02 -0.65303105881E+01  0.33223854010E+02  0.51100000000E-03 0. -1.
        -11    1    3    3    0    0 -0.31284985847E+01  0.10306085033E+02  0.11657688366E+01  0.10833370175E+02  0.51100000000E-03 0.  1.
         12    1    3    3    0    0  0.68119310723E+01 -0.13473596281E+02 -0.21123337486E+01  0.15244741898E+02  0.00000000000E+00 0. -1.
</event>
<event>
 7    1  0.1113211E-011  0.5930195E+02  0.7816164E-02  0.1266605E+00
        -11   -1    0    0    0    0  0.00000000000E+00  0.00000000000E+00  0.45593999997E+02  0.45594000000E+02  0.51100000000E-03 0. -1.
         11   -1    0    0    0    0 -0.00000000000E+00 -0.00000000000E+00 -0.45593999997E+02  0.45594000000E+02  0.51100000000E-03 0.  1.
    9900012    2    1    2    0    0 -0.55908435588E+01  0.67806513520E+01  0.30651023108E+02  0.59301953177E+02  0.50000016686E+02 0.  0.
        -12    1    1    2    0    0  0.55908435588E+01 -0.67806513520E+01 -0.30651023108E+02  0.31886046823E+02  0.00000000000E+00 0.  1.
         11    1    3    3    0    0  0.13248099351E+02 -0.16493958375E+01  0.17801181373E+02  0.22251173039E+02  0.51100000000E-03 0. -1.
        -11    1    3    3    0    0 -0.20698156966E+02  0.15773169452E+02  0.13733212298E+02  0.29424610390E+02  0.51100000000E-03 0.  1.
        -12    1    3    3    0    0  0.18592140562E+01 -0.73431222626E+01 -0.88337056353E+00  0.76261697479E+01  0.00000000000E+00 0.  1.
</event>
<event>
 7    1  0.1113211E-011  0.5930191E+02  0.7816164E-02  0.1266605E+00
        -11   -1    0    0    0    0  0.00000000000E+00  0.00000000000E+00  0.45593999997E+02  0.45594000000E+02  0.51100000000E-03 0. -1.
         11   -1    0    0    0    0 -0.00000000000E+00 -0.00000000000E+00 -0.45593999997E+02  0.45594000000E+02  0.51100000000E-03 0.  1.
    9900012    2    1    2    0    0 -0.66964763708E+01 -0.65940864948E+01  0.30469623559E+02  0.59301910050E+02  0.49999938032E+02 0.  0.
        -12    1    1    2    0    0  0.66964763708E+01  0.65940864948E+01 -0.30469623559E+02  0.31886089950E+02  0.00000000000E+00 0.  1.
         11    1    3    3    0    0  0.33262732786E+01 -0.20372591510E+02  0.27130291035E+02  0.34090457179E+02  0.51100000000E-03 0. -1.
        -11    1    3    3    0    0  0.22753624423E+01  0.10216471880E+02 -0.30500957740E+01  0.10902139992E+02  0.51100000000E-03 0.  1.
         12    1    3    3    0    0 -0.12298112092E+02  0.35620331350E+01  0.63894282979E+01  0.14309312878E+02  0.00000000000E+00 0. -1.
</event>
<event>
 7    1  0.1113211E-011  0.5930201E+02  0.7816164E-02  0.1266605E+00
        -11   -1    0    0    0    0  0.00000000000E+00  0.00000000000E+00  0.45593999997E+02  0.45594000000E+02  0.51100000000E-03 0.  1.
         11   -1    0    0    0    0 -0.00000000000E+00 -0.00000000000E+00 -0.45593999997E+02  0.45594000000E+02  0.51100000000E-03 0. -1.
    9900012    2    1    2    0    0  0.21617007571E+02  0.18246674036E+02 -0.14713272689E+02  0.59302007418E+02  0.50000115609E+02 0.  0.
        -12    1    1    2    0    0 -0.21617007571E+02 -0.18246674036E+02  0.14713272689E+02  0.31885992582E+02  0.00000000000E+00 0.  1.
         11    1    3    3    0    0  0.13251629233E+02  0.11315300499E+02 -0.17963516516E+02  0.25026578443E+02  0.51100000000E-03 0. -1.
        -11    1    3    3    0    0 -0.60673843521E+01 -0.92717002538E+01  0.56612247654E+01  0.12442951602E+02  0.51100000000E-03 0.  1.
         12    1    3    3    0    0  0.14432762691E+02  0.16203073790E+02 -0.24109809391E+01  0.21832477372E+02  0.00000000000E+00 0. -1.
</event>
<event>
 7    1  0.1113211E-011  0.5930190E+02  0.7816164E-02  0.1266605E+00
        -11   -1    0    0    0    0  0.00000000000E+00  0.00000000000E+00  0.45593999997E+02  0.45594000000E+02  0.51100000000E-03 0.  1.
         11   -1    0    0    0    0 -0.00000000000E+00 -0.00000000000E+00 -0.45593999997E+02  0.45594000000E+02  0.51100000000E-03 0. -1.
    9900012    2    1    2    0    0  0.16613462830E+02  0.16302950549E+01 -0.27167228061E+02  0.59301901310E+02  0.49999922093E+02 0.  0.
        -12    1    1    2    0    0 -0.16613462830E+02 -0.16302950549E+01  0.27167228061E+02  0.31886098690E+02  0.00000000000E+00 0.  1.
         11    1    3    3    0    0  0.34575295052E+01 -0.12182432070E+02 -0.29087351286E+02  0.31724441154E+02  0.51100000000E-03 0. -1.
        -11    1    3    3    0    0 -0.16496820672E+01 -0.44074824404E+00  0.63315346006E+01  0.65577466097E+01  0.51100000000E-03 0.  1.
         12    1    3    3    0    0  0.14805615392E+02  0.14253475369E+02 -0.44114113749E+01  0.21019713546E+02  0.00000000000E+00 0. -1.
</event>
<event>
 7    1  0.1113211E-011  0.5930198E+02  0.7816164E-02  0.1266605E+00
        -11   -1    0    0    0    0  0.00000000000E+00  0.00000000000E+00  0.45593999997E+02  0.45594000000E+02  0.51100000000E-03 0.  1.
         11   -1    0    0    0    0 -0.00000000000E+00 -0.00000000000E+00 -0.45593999997E+02  0.45594000000E+02  0.51100000000E-03 0. -1.
    9900012    2    1    2    0    0 -0.26088092343E+01  0.30069600607E+02 -0.10282588649E+02  0.59301978053E+02  0.50000062054E+02 0.  0.
        -12    1    1    2    0    0  0.26088092343E+01 -0.30069600607E+02  0.10282588649E+02  0.31886021947E+02  0.00000000000E+00 0.  1.
         11    1    3    3    0    0 -0.10096134839E+01  0.10203012328E+02 -0.29651439182E+02  0.31374011949E+02  0.51100000000E-03 0. -1.
        -11    1    3    3    0    0 -0.78049501339E+00  0.13832114382E+02  0.11687574588E+02  0.18125560978E+02  0.51100000000E-03 0.  1.
         12    1    3    3    0    0 -0.81870073696E+00  0.60344738973E+01  0.76812759452E+01  0.98024051263E+01  0.00000000000E+00 0. -1.
</event>
<event>
 7    1  0.1113211E-011  0.5930212E+02  0.7816164E-02  0.1266604E+00
        -11   -1    0    0    0    0  0.00000000000E+00  0.00000000000E+00  0.45593999997E+02  0.45594000000E+02  0.51100000000E-03 0.  1.
         11   -1    0    0    0    0 -0.00000000000E+00 -0.00000000000E+00 -0.45593999997E+02  0.45594000000E+02  0.51100000000E-03 0. -1.
    9900012    2    1    2    0    0 -0.15604197927E+01  0.17395775478E+02 -0.26676981388E+02  0.59302121458E+02  0.50000323589E+02 0.  0.
        -12    1    1    2    0    0  0.15604197927E+01 -0.17395775478E+02  0.26676981388E+02  0.31885878542E+02  0.00000000000E+00 0.  1.
         11    1    3    3    0    0 -0.42887678788E+01  0.24570779484E+02 -0.19245221971E+02  0.31503893463E+02  0.51100000000E-03 0. -1.
        -11    1    3    3    0    0  0.49987273599E-01 -0.71532631818E+01  0.88035484682E+01  0.11343462380E+02  0.51100000000E-03 0.  1.
        -12    1    3    3    0    0  0.26783608125E+01 -0.21740824251E-01 -0.16235307885E+02  0.16454765615E+02  0.00000000000E+00 0.  1.
</event>
<event>
 7    1  0.1113211E-011  0.5930193E+02  0.7816164E-02  0.1266605E+00
        -11   -1    0    0    0    0  0.00000000000E+00  0.00000000000E+00  0.45593999997E+02  0.45594000000E+02  0.51100000000E-03 0. -1.
         11   -1    0    0    0    0 -0.00000000000E+00 -0.00000000000E+00 -0.45593999997E+02  0.45594000000E+02  0.51100000000E-03 0.  1.
    9900012    2    1    2    0    0  0.13875178479E+02  0.15236002033E+02  0.24332391053E+02  0.59301927961E+02  0.49999970698E+02 0.  0.
        -12    1    1    2    0    0 -0.13875178479E+02 -0.15236002033E+02 -0.24332391053E+02  0.31886072039E+02  0.00000000000E+00 0.  1.
         11    1    3    3    0    0  0.13080686194E+02  0.31135564730E+01  0.14290443255E+02  0.19621808120E+02  0.51100000000E-03 0. -1.
        -11    1    3    3    0    0 -0.16383700610E+02 -0.54716617760E+00  0.77747871193E+00  0.16411261679E+02  0.51100000000E-03 0.  1.
        -12    1    3    3    0    0  0.17178192894E+02  0.12669611737E+02  0.92644690856E+01  0.23268858161E+02  0.00000000000E+00 0.  1.
</event>
<event>
 7    1  0.1113211E-011  0.5930195E+02  0.7816164E-02  0.1266605E+00
        -11   -1    0    0    0    0  0.00000000000E+00  0.00000000000E+00  0.45593999997E+02  0.45594000000E+02  0.51100000000E-03 0.  1.
         11   -1    0    0    0    0 -0.00000000000E+00 -0.00000000000E+00 -0.45593999997E+02  0.45594000000E+02  0.51100000000E-03 0. -1.
    9900012    2    1    2    0    0  0.13581972892E+01 -0.29308249008E+02 -0.12486081065E+02  0.59301946933E+02  0.50000005299E+02 0.  0.
        -12    1    1    2    0    0 -0.13581972892E+01  0.29308249008E+02  0.12486081065E+02  0.31886053067E+02  0.00000000000E+00 0.  1.
         11    1    3    3    0    0  0.96660522039E+00  0.11590314274E+01 -0.36619791021E+01  0.39607790531E+01  0.51100000000E-03 0. -1.
        -11    1    3    3    0    0 -0.98726675796E+01 -0.37930218562E+02  0.11333656697E+01  0.39210401213E+02  0.51100000000E-03 0.  1.
        -12    1    3    3    0    0  0.10264259648E+02  0.74629381263E+01 -0.99574676327E+01  0.16130766667E+02  0.00000000000E+00 0.  1.
</event>
<event>
 7    1  0.1113211E-011  0.5930196E+02  0.7816164E-02  0.1266605E+00
        -11   -1    0    0    0    0  0.00000000000E+00  0.00000000000E+00  0.45593999997E+02  0.45594000000E+02  0.51100000000E-03 0. -1.
         11   -1    0    0    0    0 -0.00000000000E+00 -0.00000000000E+00 -0.45593999997E+02  0.45594000000E+02  0.51100000000E-03 0.  1.
    9900012    2    1    2    0    0  0.97381816893E+01  0.14220029211E+02  0.26826822469E+02  0.59301955762E+02  0.50000021400E+02 0.  0.
        -12    1    1    2    0    0 -0.97381816893E+01 -0.14220029211E+02 -0.26826822469E+02  0.31886044238E+02  0.00000000000E+00 0.  1.
         11    1    3    3    0    0  0.13540186304E+02  0.16380064308E+02  0.24449025438E+01  0.21392070975E+02  0.51100000000E-03 0. -1.
        -11    1    3    3    0    0  0.34860187560E+00 -0.87825172284E+01  0.27963745600E+02  0.29312543397E+02  0.51100000000E-03 0.  1.
        -12    1    3    3    0    0 -0.41506064902E+01  0.66224821310E+01 -0.35818256746E+01  0.85973413899E+01  0.00000000000E+00 0.  1.
</event>
<event>
 7    1  0.1113211E-011  0.5930192E+02  0.7816164E-02  0.1266605E+00
        -11   -1    0    0    0    0  0.00000000000E+00  0.00000000000E+00  0.45593999997E+02  0.45594000000E+02  0.51100000000E-03 0. -1.
         11   -1    0    0    0    0 -0.00000000000E+00 -0.00000000000E+00 -0.45593999997E+02  0.45594000000E+02  0.51100000000E-03 0.  1.
    9900012    2    1    2    0    0  0.12585317869E+02 -0.29297303538E+02 -0.11507529758E-01  0.59301916000E+02  0.49999948884E+02 0.  0.
        -12    1    1    2    0    0 -0.12585317869E+02  0.29297303538E+02  0.11507529758E-01  0.31886084000E+02  0.00000000000E+00 0.  1.
         11    1    3    3    0    0 -0.31143463563E+01 -0.40098767951E+01 -0.17095629469E+02  0.17833642711E+02  0.51100000000E-03 0. -1.
        -11    1    3    3    0    0  0.18568158210E+02 -0.15574139326E+02  0.34427963131E+01  0.24478218109E+02  0.51100000000E-03 0.  1.
         12    1    3    3    0    0 -0.28684939846E+01 -0.97132874164E+01  0.13641325626E+02  0.16990055180E+02  0.00000000000E+00 0. -1.
</event>
<event>
 7    1  0.1113211E-011  0.5930196E+02  0.7816164E-02  0.1266605E+00
        -11   -1    0    0    0    0  0.00000000000E+00  0.00000000000E+00  0.45593999997E+02  0.45594000000E+02  0.51100000000E-03 0. -1.
         11   -1    0    0    0    0 -0.00000000000E+00 -0.00000000000E+00 -0.45593999997E+02  0.45594000000E+02  0.51100000000E-03 0.  1.
    9900012    2    1    2    0    0 -0.25038503353E+02  0.19580282472E+02  0.25308338572E+01  0.59301964939E+02  0.50000038138E+02 0.  0.
        -12    1    1    2    0    0  0.25038503353E+02 -0.19580282472E+02 -0.25308338572E+01  0.31886035061E+02  0.00000000000E+00 0.  1.
         11    1    3    3    0    0 -0.14848143308E+02  0.15256235095E+02 -0.89056610482E+01  0.23076630341E+02  0.51100000000E-03 0. -1.
        -11    1    3    3    0    0  0.20074150463E+01 -0.37980589839E+00  0.20318021310E+02  0.20420478885E+02  0.51100000000E-03 0.  1.
        -12    1    3    3    0    0 -0.12197775092E+02  0.47038532762E+01 -0.88815264044E+01  0.15804855713E+02  0.00000000000E+00 0.  1.
</event>
<event>
 7    1  0.1113211E-011  0.5930193E+02  0.7816164E-02  0.1266605E+00
        -11   -1    0    0    0    0  0.00000000000E+00  0.00000000000E+00  0.45593999997E+02  0.45594000000E+02  0.51100000000E-03 0.  1.
         11   -1    0    0    0    0 -0.00000000000E+00 -0.00000000000E+00 -0.45593999997E+02  0.45594000000E+02  0.51100000000E-03 0. -1.
    9900012    2    1    2    0    0 -0.19884665952E+02  0.20154357545E+02 -0.14667082925E+02  0.59301931104E+02  0.49999976430E+02 0.  0.
        -12    1    1    2    0    0  0.19884665952E+02 -0.20154357545E+02  0.14667082925E+02  0.31886068896E+02  0.00000000000E+00 0.  1.
         11    1    3    3    0    0  0.41024836153E+01  0.27369052533E+01 -0.20649683894E+02  0.21230413735E+02  0.51100000000E-03 0. -1.
        -11    1    3    3    0    0 -0.93817055309E+01 -0.35983154532E+01  0.73391786913E+01  0.12442982636E+02  0.51100000000E-03 0.  1.
         12    1    3    3    0    0 -0.14605444037E+02  0.21015767745E+02 -0.13565777226E+01  0.25628534733E+02  0.00000000000E+00 0. -1.
</event>
<event>
 7    1  0.1113211E-011  0.5930195E+02  0.7816164E-02  0.1266605E+00
        -11   -1    0    0    0    0  0.00000000000E+00  0.00000000000E+00  0.45593999997E+02  0.45594000000E+02  0.51100000000E-03 0.  1.
         11   -1    0    0    0    0 -0.00000000000E+00 -0.00000000000E+00 -0.45593999997E+02  0.45594000000E+02  0.51100000000E-03 0. -1.
    9900012    2    1    2    0    0 -0.17522571635E+02 -0.12547651402E+02 -0.23499701896E+02  0.59301951929E+02  0.50000014410E+02 0.  0.
        -12    1    1    2    0    0  0.17522571635E+02  0.12547651402E+02  0.23499701896E+02  0.31886048071E+02  0.00000000000E+00 0.  1.
         11    1    3    3    0    0  0.65486330121E+01 -0.10823754960E+02 -0.11373531813E+02  0.17011628139E+02  0.51100000000E-03 0. -1.
        -11    1    3    3    0    0 -0.12374250469E+02  0.97282014186E+01 -0.18881098052E+02  0.24581615923E+02  0.51100000000E-03 0.  1.
        -12    1    3    3    0    0 -0.11696954178E+02 -0.11452097860E+02  0.67549279688E+01  0.17708707867E+02  0.00000000000E+00 0.  1.
</event>
<event>
 7    1  0.1113211E-011  0.5930193E+02  0.7816164E-02  0.1266605E+00
        -11   -1    0    0    0    0  0.00000000000E+00  0.00000000000E+00  0.45593999997E+02  0.45594000000E+02  0.51100000000E-03 0. -1.
         11   -1    0    0    0    0 -0.00000000000E+00 -0.00000000000E+00 -0.45593999997E+02  0.45594000000E+02  0.51100000000E-03 0.  1.
    9900012    2    1    2    0    0 -0.46853589289E+01  0.30366675889E+02  0.85225429679E+01  0.59301932016E+02  0.49999978094E+02 0.  0.
        -12    1    1    2    0    0  0.46853589289E+01 -0.30366675889E+02 -0.85225429679E+01  0.31886067984E+02  0.00000000000E+00 0.  1.
         11    1    3    3    0    0 -0.11912735539E+02  0.23707055243E+02 -0.16078022749E+02  0.31023226011E+02  0.51100000000E-03 0. -1.
        -11    1    3    3    0    0  0.24480569327E+01  0.60351860203E+01  0.21693301513E+02  0.22649851739E+02  0.51100000000E-03 0.  1.
         12    1    3    3    0    0  0.47793196779E+01  0.62443462529E+00  0.29072642048E+01  0.56288542655E+01  0.00000000000E+00 0. -1.
</event>
<event>
 7    1  0.1113211E-011  0.5930194E+02  0.7816164E-02  0.1266605E+00
        -11   -1    0    0    0    0  0.00000000000E+00  0.00000000000E+00  0.45593999997E+02  0.45594000000E+02  0.51100000000E-03 0. -1.
         11   -1    0    0    0    0 -0.00000000000E+00 -0.00000000000E+00 -0.45593999997E+02  0.45594000000E+02  0.51100000000E-03 0.  1.
    9900012    2    1    2    0    0  0.30470408053E+02  0.71317104192E+01  0.61166582307E+01  0.59301943982E+02  0.49999999917E+02 0.  0.
        -12    1    1    2    0    0 -0.30470408053E+02 -0.71317104192E+01 -0.61166582307E+01  0.31886056018E+02  0.00000000000E+00 0.  1.
         11    1    3    3    0    0  0.34068662699E+02  0.24005585676E+01  0.16654165541E+02  0.37997337929E+02  0.51100000000E-03 0. -1.
        -11    1    3    3    0    0 -0.11801964301E+01  0.95291733072E+01 -0.12341596854E+02  0.15636912122E+02  0.51100000000E-03 0.  1.
         12    1    3    3    0    0 -0.24180582157E+01 -0.47980214555E+01  0.18040895436E+01  0.56676939317E+01  0.00000000000E+00 0. -1.
</event>
<event>
 7    1  0.1113211E-011  0.5930193E+02  0.7816164E-02  0.1266605E+00
        -11   -1    0    0    0    0  0.00000000000E+00  0.00000000000E+00  0.45593999997E+02  0.45594000000E+02  0.51100000000E-03 0.  1.
         11   -1    0    0    0    0 -0.00000000000E+00 -0.00000000000E+00 -0.45593999997E+02  0.45594000000E+02  0.51100000000E-03 0. -1.
    9900012    2    1    2    0    0  0.14243097845E+02  0.27176479101E+02  0.86772499207E+01  0.59301929080E+02  0.49999972739E+02 0.  0.
        -12    1    1    2    0    0 -0.14243097845E+02 -0.27176479101E+02 -0.86772499207E+01  0.31886070920E+02  0.00000000000E+00 0.  1.
         11    1    3    3    0    0 -0.13781324676E+02  0.11189952861E+02 -0.95784391067E+01  0.20171426594E+02  0.51100000000E-03 0. -1.
        -11    1    3    3    0    0  0.97239294629E+01  0.96150680512E+01  0.19664259301E+01  0.13815613234E+02  0.51100000000E-03 0.  1.
         12    1    3    3    0    0  0.18300493058E+02  0.63714581891E+01  0.16289263097E+02  0.25314889252E+02  0.00000000000E+00 0. -1.
</event>
<event>
 7    1  0.1113211E-011  0.5930195E+02  0.7816164E-02  0.1266605E+00
        -11   -1    0    0    0    0  0.00000000000E+00  0.00000000000E+00  0.45593999997E+02  0.45594000000E+02  0.51100000000E-03 0.  1.
         11   -1    0    0    0    0 -0.00000000000E+00 -0.00000000000E+00 -0.45593999997E+02  0.45594000000E+02  0.51100000000E-03 0. -1.
    9900012    2    1    2    0    0 -0.20801265352E+02  0.12002114965E+02 -0.20975625988E+02  0.59301948356E+02  0.50000007893E+02 0.  0.
        -12    1    1    2    0    0  0.20801265352E+02 -0.12002114965E+02  0.20975625988E+02  0.31886051644E+02  0.00000000000E+00 0.  1.
         11    1    3    3    0    0 -0.91133219334E+01 -0.16382235686E+02 -0.18436913485E+02  0.26293536503E+02  0.51100000000E-03 0. -1.
        -11    1    3    3    0    0  0.12614437859E+01  0.95577349644E+01  0.16406434642E+01  0.97792253943E+01  0.51100000000E-03 0.  1.
         12    1    3    3    0    0 -0.12949387205E+02  0.18826615687E+02 -0.41793559673E+01  0.23229186458E+02  0.00000000000E+00 0. -1.
</event>
<event>
 7    1  0.1113211E-011  0.5930193E+02  0.7816164E-02  0.1266605E+00
        -11   -1    0    0    0    0  0.00000000000E+00  0.00000000000E+00  0.45593999997E+02  0.45594000000E+02  0.51100000000E-03 0. -1.
         11   -1    0    0    0    0 -0.00000000000E+00 -0.00000000000E+00 -0.45593999997E+02  0.45594000000E+02  0.51100000000E-03 0.  1.
    9900012    2    1    2    0    0  0.16305348892E+02  0.26407581441E+02  0.73141241364E+01  0.59301934518E+02  0.49999982656E+02 0.  0.
        -12    1    1    2    0    0 -0.16305348892E+02 -0.26407581441E+02 -0.73141241364E+01  0.31886065482E+02  0.00000000000E+00 0.  1.
         11    1    3    3    0    0 -0.22080496055E+01 -0.29527390738E+01  0.19863301536E+02  0.20202596350E+02  0.51100000000E-03 0. -1.
        -11    1    3    3    0    0  0.45211799047E+01  0.14131918202E+02 -0.10786135746E+02  0.18343742922E+02  0.51100000000E-03 0.  1.
         12    1    3    3    0    0  0.13992218592E+02  0.15228402313E+02 -0.17630416533E+01  0.20755595246E+02  0.00000000000E+00 0. -1.
</event>
<event>
 7    1  0.1113211E-011  0.5930197E+02  0.7816164E-02  0.1266605E+00
        -11   -1    0    0    0    0  0.00000000000E+00  0.00000000000E+00  0.45593999997E+02  0.45594000000E+02  0.51100000000E-03 0.  1.
         11   -1    0    0    0    0 -0.00000000000E+00 -0.00000000000E+00 -0.45593999997E+02  0.45594000000E+02  0.51100000000E-03 0. -1.
    9900012    2    1    2    0    0 -0.13246680867E+02  0.78627282815E+01 -0.27918130041E+02  0.59301968027E+02  0.50000043769E+02 0.  0.
        -12    1    1    2    0    0  0.13246680867E+02 -0.78627282815E+01  0.27918130041E+02  0.31886031973E+02  0.00000000000E+00 0.  1.
         11    1    3    3    0    0 -0.10194557195E+02  0.85752053034E+00 -0.14046662365E+02  0.17377372118E+02  0.51100000000E-03 0. -1.
        -11    1    3    3    0    0 -0.10423300736E+02 -0.66188155195E+01  0.83002153270E+01  0.14877751572E+02  0.51100000000E-03 0.  1.
        -12    1    3    3    0    0  0.73711770644E+01  0.13624023271E+02 -0.22171683003E+02  0.27046844337E+02  0.00000000000E+00 0.  1.
</event>
<event>
 7    1  0.1113211E-011  0.5930192E+02  0.7816164E-02  0.1266605E+00
        -11   -1    0    0    0    0  0.00000000000E+00  0.00000000000E+00  0.45593999997E+02  0.45594000000E+02  0.51100000000E-03 0.  1.
         11   -1    0    0    0    0 -0.00000000000E+00 -0.00000000000E+00 -0.45593999997E+02  0.45594000000E+02  0.51100000000E-03 0. -1.
    9900012    2    1    2    0    0  0.56651361927E+01 -0.25888907277E+02 -0.17731126669E+02  0.59301919321E+02  0.49999954942E+02 0.  0.
        -12    1    1    2    0    0 -0.56651361927E+01  0.25888907277E+02  0.17731126669E+02  0.31886080679E+02  0.00000000000E+00 0.  1.
         11    1    3    3    0    0 -0.74857376098E+00 -0.35378564520E+02 -0.86140167410E+01  0.36419836283E+02  0.51100000000E-03 0. -1.
        -11    1    3    3    0    0  0.79975131672E+01  0.75705710626E+01  0.22549979722E+01  0.11240942095E+02  0.51100000000E-03 0.  1.
         12    1    3    3    0    0 -0.15838032135E+01  0.19190861800E+01 -0.11372107900E+02  0.11641140944E+02  0.00000000000E+00 0. -1.
</event>
<event>
 7    1  0.1113211E-011  0.5930204E+02  0.7816164E-02  0.1266604E+00
        -11   -1    0    0    0    0  0.00000000000E+00  0.00000000000E+00  0.45593999997E+02  0.45594000000E+02  0.51100000000E-03 0.  1.
         11   -1    0    0    0    0 -0.00000000000E+00 -0.00000000000E+00 -0.45593999997E+02  0.45594000000E+02  0.51100000000E-03 0. -1.
    9900012    2    1    2    0    0  0.12024884586E+02 -0.39178710167E+00 -0.29529021302E+02  0.59302039994E+02  0.50000175019E+02 0.  0.
        -12    1    1    2    0    0 -0.12024884586E+02  0.39178710167E+00  0.29529021302E+02  0.31885960006E+02  0.00000000000E+00 0.  1.
         11    1    3    3    0    0 -0.52404964034E+00 -0.68524396635E+01 -0.88982818388E+01  0.11243219170E+02  0.51100000000E-03 0. -1.
        -11    1    3    3    0    0  0.21806133004E+02  0.78405282024E+01  0.23046960084E+01  0.23287184094E+02  0.51100000000E-03 0.  1.
        -12    1    3    3    0    0 -0.92571987775E+01 -0.13798756406E+01 -0.22935435472E+02  0.24771636730E+02  0.00000000000E+00 0.  1.
</event>
<event>
 7    1  0.1113211E-011  0.5930193E+02  0.7816164E-02  0.1266605E+00
        -11   -1    0    0    0    0  0.00000000000E+00  0.00000000000E+00  0.45593999997E+02  0.45594000000E+02  0.51100000000E-03 0.  1.
         11   -1    0    0    0    0 -0.00000000000E+00 -0.00000000000E+00 -0.45593999997E+02  0.45594000000E+02  0.51100000000E-03 0. -1.
    9900012    2    1    2    0    0 -0.50843315323E+01  0.21578687566E+02 -0.22917925047E+02  0.59301929803E+02  0.49999974057E+02 0.  0.
        -12    1    1    2    0    0  0.50843315323E+01 -0.21578687566E+02  0.22917925047E+02  0.31886070197E+02  0.00000000000E+00 0.  1.
         11    1    3    3    0    0  0.13944342988E+01  0.89384940178E+01 -0.10313072607E+01  0.91052027570E+01  0.51100000000E-03 0. -1.
        -11    1    3    3    0    0 -0.11183983594E+02 -0.11525863407E+02  0.16395304100E+01  0.16143576944E+02  0.51100000000E-03 0.  1.
        -12    1    3    3    0    0  0.47052177629E+01  0.24166056955E+02 -0.23526148196E+02  0.34053150102E+02  0.00000000000E+00 0.  1.
</event>
<event>
 7    1  0.1113211E-011  0.5930202E+02  0.7816164E-02  0.1266604E+00
        -11   -1    0    0    0    0  0.00000000000E+00  0.00000000000E+00  0.45593999997E+02  0.45594000000E+02  0.51100000000E-03 0.  1.
         11   -1    0    0    0    0 -0.00000000000E+00 -0.00000000000E+00 -0.45593999997E+02  0.45594000000E+02  0.51100000000E-03 0. -1.
    9900012    2    1    2    0    0  0.68346414688E+01  0.30348426131E+02 -0.69983157569E+01  0.59302020071E+02  0.50000138684E+02 0.  0.
        -12    1    1    2    0    0 -0.68346414688E+01 -0.30348426131E+02  0.69983157569E+01  0.31885979929E+02  0.00000000000E+00 0.  1.
         11    1    3    3    0    0 -0.63464641917E+01  0.24184101936E+02  0.16030216710E+02  0.29700441785E+02  0.51100000000E-03 0. -1.
        -11    1    3    3    0    0 -0.18939854854E+01 -0.66510376976E+00 -0.31530334711E+01  0.37378020780E+01  0.51100000000E-03 0.  1.
         12    1    3    3    0    0  0.15075091146E+02  0.68294279643E+01 -0.19875498996E+02  0.25863776208E+02  0.00000000000E+00 0. -1.
</event>
<event>
 7    1  0.1113211E-011  0.5930196E+02  0.7816164E-02  0.1266605E+00
        -11   -1    0    0    0    0  0.00000000000E+00  0.00000000000E+00  0.45593999997E+02  0.45594000000E+02  0.51100000000E-03 0.  1.
         11   -1    0    0    0    0 -0.00000000000E+00 -0.00000000000E+00 -0.45593999997E+02  0.45594000000E+02  0.51100000000E-03 0. -1.
    9900012    2    1    2    0    0  0.19148327096E+02  0.80154320311E+00 -0.25483688788E+02  0.59301963930E+02  0.50000036296E+02 0.  0.
        -12    1    1    2    0    0 -0.19148327096E+02 -0.80154320311E+00  0.25483688788E+02  0.31886036070E+02  0.00000000000E+00 0.  1.
         11    1    3    3    0    0  0.15585222842E+02  0.36963785719E+01 -0.38821908902E+02  0.41996464097E+02  0.51100000000E-03 0. -1.
        -11    1    3    3    0    0  0.13472867902E+01  0.32216525237E+01  0.85265983473E+01  0.92139625740E+01  0.51100000000E-03 0.  1.
         12    1    3    3    0    0  0.22158174637E+01 -0.61164878924E+01  0.48116217675E+01  0.80915372584E+01  0.00000000000E+00 0. -1.
</event>
<event>
 7    1  0.1113211E-011  0.5930194E+02  0.7816164E-02  0.1266605E+00
        -11   -1    0    0    0    0  0.00000000000E+00  0.00000000000E+00  0.45593999997E+02  0.45594000000E+02  0.51100000000E-03 0.  1.
         11   -1    0    0    0    0 -0.00000000000E+00 -0.00000000000E+00 -0.45593999997E+02  0.45594000000E+02  0.51100000000E-03 0. -1.
    9900012    2    1    2    0    0 -0.22207167783E+02 -0.84083626189E+01 -0.21280551170E+02  0.59301941589E+02  0.49999995552E+02 0.  0.
        -12    1    1    2    0    0  0.22207167783E+02  0.84083626189E+01  0.21280551170E+02  0.31886058411E+02  0.00000000000E+00 0.  1.
         11    1    3    3    0    0 -0.29607119941E+01  0.14946520375E+02 -0.61103839656E+01  0.16416488032E+02  0.51100000000E-03 0. -1.
        -11    1    3    3    0    0  0.72293555824E+00 -0.13852536240E+02  0.30838178869E+01  0.14210043249E+02  0.51100000000E-03 0.  1.
         12    1    3    3    0    0 -0.19969391347E+02 -0.95023467539E+01 -0.18253985091E+02  0.28675410308E+02  0.00000000000E+00 0. -1.
</event>
<event>
 7    1  0.1113211E-011  0.5930212E+02  0.7816164E-02  0.1266604E+00
        -11   -1    0    0    0    0  0.00000000000E+00  0.00000000000E+00  0.45593999997E+02  0.45594000000E+02  0.51100000000E-03 0.  1.
         11   -1    0    0    0    0 -0.00000000000E+00 -0.00000000000E+00 -0.45593999997E+02  0.45594000000E+02  0.51100000000E-03 0. -1.
    9900012    2    1    2    0    0  0.67433912548E+01  0.28749606798E+02 -0.12028980029E+02  0.59302116334E+02  0.50000314244E+02 0.  0.
        -12    1    1    2    0    0 -0.67433912548E+01 -0.28749606798E+02  0.12028980029E+02  0.31885883666E+02  0.00000000000E+00 0.  1.
         11    1    3    3    0    0  0.21311337384E+02  0.86898826512E+01 -0.13350089434E+02  0.26606616654E+02  0.51100000000E-03 0. -1.
        -11    1    3    3    0    0 -0.10474053511E+02 -0.42526292072E+00 -0.38629773744E+01  0.11171805582E+02  0.51100000000E-03 0.  1.
         12    1    3    3    0    0 -0.40938926182E+01  0.20484987067E+02  0.51840867801E+01  0.21523694099E+02  0.00000000000E+00 0. -1.
</event>
<event>
 7    1  0.1113211E-011  0.5930199E+02  0.7816164E-02  0.1266605E+00
        -11   -1    0    0    0    0  0.00000000000E+00  0.00000000000E+00  0.45593999997E+02  0.45594000000E+02  0.51100000000E-03 0. -1.
         11   -1    0    0    0    0 -0.00000000000E+00 -0.00000000000E+00 -0.45593999997E+02  0.45594000000E+02  0.51100000000E-03 0.  1.
    9900012    2    1    2    0    0 -0.67613738879E+01 -0.24305930494E+02  0.19499307072E+02  0.59301993503E+02  0.50000090231E+02 0.  0.
        -12    1    1    2    0    0  0.67613738879E+01  0.24305930494E+02 -0.19499307072E+02  0.31886006497E+02  0.00000000000E+00 0.  1.
         11    1    3    3    0    0  0.98794083474E+00  0.63536580835E+01  0.24325447430E+01  0.68747561647E+01  0.51100000000E-03 0. -1.
        -11    1    3    3    0    0  0.84792633676E+01 -0.32047045035E+02  0.13239253359E+02  0.35695781718E+02  0.51100000000E-03 0.  1.
        -12    1    3    3    0    0 -0.16228578090E+02  0.13874564570E+01  0.38275089698E+01  0.16731455620E+02  0.00000000000E+00 0.  1.
</event>
<event>
 7    1  0.1113211E-011  0.5930195E+02  0.7816164E-02  0.1266605E+00
        -11   -1    0    0    0    0  0.00000000000E+00  0.00000000000E+00  0.45593999997E+02  0.45594000000E+02  0.51100000000E-03 0. -1.
         11   -1    0    0    0    0 -0.00000000000E+00 -0.00000000000E+00 -0.45593999997E+02  0.45594000000E+02  0.51100000000E-03 0.  1.
    9900012    2    1    2    0    0  0.83961681527E+01  0.27540234975E+02  0.13702562377E+02  0.59301946656E+02  0.50000004793E+02 0.  0.
        -12    1    1    2    0    0 -0.83961681527E+01 -0.27540234975E+02 -0.13702562377E+02  0.31886053344E+02  0.00000000000E+00 0.  1.
         11    1    3    3    0    0  0.62790107703E+01 -0.12445539565E+02  0.12494262175E+02  0.18719615885E+02  0.51100000000E-03 0. -1.
        -11    1    3    3    0    0 -0.70283872636E+00  0.24802884379E+01 -0.13004848031E+01  0.28873991748E+01  0.51100000000E-03 0.  1.
         12    1    3    3    0    0  0.28199961087E+01  0.37505486103E+02  0.25087850051E+01  0.37694931596E+02  0.00000000000E+00 0. -1.
</event>
<event>
 7    1  0.1113211E-011  0.5930191E+02  0.7816164E-02  0.1266605E+00
        -11   -1    0    0    0    0  0.00000000000E+00  0.00000000000E+00  0.45593999997E+02  0.45594000000E+02  0.51100000000E-03 0. -1.
         11   -1    0    0    0    0 -0.00000000000E+00 -0.00000000000E+00 -0.45593999997E+02  0.45594000000E+02  0.51100000000E-03 0.  1.
    9900012    2    1    2    0    0 -0.23040991695E+02  0.21567212788E+02  0.45487161422E+01  0.59301909235E+02  0.49999936547E+02 0.  0.
        -12    1    1    2    0    0  0.23040991695E+02 -0.21567212788E+02 -0.45487161422E+01  0.31886090765E+02  0.00000000000E+00 0.  1.
         11    1    3    3    0    0 -0.23247698091E+02  0.17808517747E+02  0.23861559867E+02  0.37775293651E+02  0.51100000000E-03 0. -1.
        -11    1    3    3    0    0  0.34100662309E+01 -0.11526369152E+01 -0.63510241245E+01  0.73001802203E+01  0.51100000000E-03 0.  1.
         12    1    3    3    0    0 -0.32033598345E+01  0.49113319566E+01 -0.12961819600E+02  0.14226435364E+02  0.00000000000E+00 0. -1.
</event>
<event>
 7    1  0.1113211E-011  0.5930194E+02  0.7816164E-02  0.1266605E+00
        -11   -1    0    0    0    0  0.00000000000E+00  0.00000000000E+00  0.45593999997E+02  0.45594000000E+02  0.51100000000E-03 0.  1.
         11   -1    0    0    0    0 -0.00000000000E+00 -0.00000000000E+00 -0.45593999997E+02  0.45594000000E+02  0.51100000000E-03 0. -1.
    9900012    2    1    2    0    0  0.26318193857E+02  0.14817303730E+02 -0.10223555313E+02  0.59301938767E+02  0.49999990406E+02 0.  0.
        -12    1    1    2    0    0 -0.26318193857E+02 -0.14817303730E+02  0.10223555313E+02  0.31886061233E+02  0.00000000000E+00 0.  1.
         11    1    3    3    0    0 -0.44209863616E+01 -0.10393666152E+02 -0.94553413115E+01  0.14730135643E+02  0.51100000000E-03 0. -1.
        -11    1    3    3    0    0  0.25837902808E+02  0.18100385817E+02 -0.88279230983E+01  0.32759020356E+02  0.51100000000E-03 0.  1.
        -12    1    3    3    0    0  0.49012774110E+01  0.71105840647E+01  0.80597090965E+01  0.11812782768E+02  0.00000000000E+00 0.  1.
</event>
<event>
 7    1  0.1113211E-011  0.5930199E+02  0.7816164E-02  0.1266605E+00
        -11   -1    0    0    0    0  0.00000000000E+00  0.00000000000E+00  0.45593999997E+02  0.45594000000E+02  0.51100000000E-03 0. -1.
         11   -1    0    0    0    0 -0.00000000000E+00 -0.00000000000E+00 -0.45593999997E+02  0.45594000000E+02  0.51100000000E-03 0.  1.
    9900012    2    1    2    0    0 -0.25306518769E+02  0.19104308820E+02  0.33649699526E+01  0.59301991619E+02  0.50000086795E+02 0.  0.
        -12    1    1    2    0    0  0.25306518769E+02 -0.19104308820E+02 -0.33649699526E+01  0.31886008381E+02  0.00000000000E+00 0.  1.
         11    1    3    3    0    0 -0.31665228087E+02  0.13020596743E+02  0.11086989414E+02  0.35988108367E+02  0.51100000000E-03 0. -1.
        -11    1    3    3    0    0  0.29757167314E+01 -0.72018876535E+01 -0.52163703108E+01  0.93772381499E+01  0.51100000000E-03 0.  1.
         12    1    3    3    0    0  0.33829925866E+01  0.13285599730E+02 -0.25056491506E+01  0.13936645102E+02  0.00000000000E+00 0. -1.
</event>
<event>
 7    1  0.1113211E-011  0.5930191E+02  0.7816164E-02  0.1266605E+00
        -11   -1    0    0    0    0  0.00000000000E+00  0.00000000000E+00  0.45593999997E+02  0.45594000000E+02  0.51100000000E-03 0.  1.
         11   -1    0    0    0    0 -0.00000000000E+00 -0.00000000000E+00 -0.45593999997E+02  0.45594000000E+02  0.51100000000E-03 0. -1.
    9900012    2    1    2    0    0 -0.51444496655E+01  0.14299883239E+02 -0.28031607159E+02  0.59301905493E+02  0.49999929721E+02 0.  0.
        -12    1    1    2    0    0  0.51444496655E+01 -0.14299883239E+02  0.28031607159E+02  0.31886094507E+02  0.00000000000E+00 0.  1.
         11    1    3    3    0    0  0.97430581512E+01  0.21897169494E+02 -0.29186570942E+02  0.37765978573E+02  0.51100000000E-03 0. -1.
        -11    1    3    3    0    0 -0.36342302823E+01 -0.62844684121E+01 -0.48330264741E+01  0.87212566828E+01  0.51100000000E-03 0.  1.
         12    1    3    3    0    0 -0.11253277534E+02 -0.13128178425E+01  0.59879902573E+01  0.12814670237E+02  0.00000000000E+00 0. -1.
</event>
<event>
 7    1  0.1113211E-011  0.5930192E+02  0.7816164E-02  0.1266605E+00
        -11   -1    0    0    0    0  0.00000000000E+00  0.00000000000E+00  0.45593999997E+02  0.45594000000E+02  0.51100000000E-03 0.  1.
         11   -1    0    0    0    0 -0.00000000000E+00 -0.00000000000E+00 -0.45593999997E+02  0.45594000000E+02  0.51100000000E-03 0. -1.
    9900012    2    1    2    0    0  0.18791070762E+02 -0.22022835900E+02  0.13364596282E+02  0.59301920353E+02  0.49999956823E+02 0.  0.
        -12    1    1    2    0    0 -0.18791070762E+02  0.22022835900E+02 -0.13364596282E+02  0.31886079647E+02  0.00000000000E+00 0.  1.
         11    1    3    3    0    0  0.21237133429E+02 -0.62838648106E+01 -0.10273895354E+02  0.24414252379E+02  0.51100000000E-03 0. -1.
        -11    1    3    3    0    0 -0.92469527850E+01 -0.77996346521E+01  0.20788693207E+02  0.24052239023E+02  0.51100000000E-03 0.  1.
        -12    1    3    3    0    0  0.68008901184E+01 -0.79393364374E+01  0.28497984290E+01  0.10835428951E+02  0.00000000000E+00 0.  1.
</event>
<event>
 7    1  0.1113211E-011  0.5930197E+02  0.7816164E-02  0.1266605E+00
        -11   -1    0    0    0    0  0.00000000000E+00  0.00000000000E+00  0.45593999997E+02  0.45594000000E+02  0.51100000000E-03 0. -1.
         11   -1    0    0    0    0 -0.00000000000E+00 -0.00000000000E+00 -0.45593999997E+02  0.45594000000E+02  0.51100000000E-03 0.  1.
    9900012    2    1    2    0    0 -0.10743857428E+02  0.46897385915E+01  0.29652908334E+02  0.59301967114E+02  0.50000042105E+02 0.  0.
        -12    1    1    2    0    0  0.10743857428E+02 -0.46897385915E+01 -0.29652908334E+02  0.31886032886E+02  0.00000000000E+00 0.  1.
         11    1    3    3    0    0  0.11060558343E+01 -0.18278348582E+02  0.16564085296E+02  0.24691907751E+02  0.51100000000E-03 0. -1.
        -11    1    3    3    0    0 -0.55907723867E+01  0.19862533896E+02  0.10139105812E+01  0.20659259512E+02  0.51100000000E-03 0.  1.
        -12    1    3    3    0    0 -0.62591408754E+01  0.31055532779E+01  0.12074912457E+02  0.13950799852E+02  0.00000000000E+00 0.  1.
</event>
<event>
 7    1  0.1113211E-011  0.5930183E+02  0.7816164E-02  0.1266605E+00
        -11   -1    0    0    0    0  0.00000000000E+00  0.00000000000E+00  0.45593999997E+02  0.45594000000E+02  0.51100000000E-03 0.  1.
         11   -1    0    0    0    0 -0.00000000000E+00 -0.00000000000E+00 -0.45593999997E+02  0.45594000000E+02  0.51100000000E-03 0. -1.
    9900012    2    1    2    0    0 -0.99048289033E+01  0.26429233728E+01 -0.30193324913E+02  0.59301834522E+02  0.49999800287E+02 0.  0.
        -12    1    1    2    0    0  0.99048289033E+01 -0.26429233728E+01  0.30193324913E+02  0.31886165478E+02  0.00000000000E+00 0.  1.
         11    1    3    3    0    0 -0.93915629126E+01  0.14446455369E+02 -0.37085905525E+02  0.40893348059E+02  0.51100000000E-03 0. -1.
        -11    1    3    3    0    0  0.11283429487E+01 -0.35470977261E+01  0.89925383676E+01  0.97324614894E+01  0.51100000000E-03 0.  1.
         12    1    3    3    0    0 -0.16416089394E+01 -0.82564342696E+01 -0.20999577564E+01  0.86760249733E+01  0.00000000000E+00 0. -1.
</event>
<event>
 7    1  0.1113211E-011  0.5930190E+02  0.7816164E-02  0.1266605E+00
        -11   -1    0    0    0    0  0.00000000000E+00  0.00000000000E+00  0.45593999997E+02  0.45594000000E+02  0.51100000000E-03 0.  1.
         11   -1    0    0    0    0 -0.00000000000E+00 -0.00000000000E+00 -0.45593999997E+02  0.45594000000E+02  0.51100000000E-03 0. -1.
    9900012    2    1    2    0    0 -0.21285844603E+02 -0.72397171617E+01 -0.22610233392E+02  0.59301900535E+02  0.49999920680E+02 0.  0.
        -12    1    1    2    0    0  0.21285844603E+02  0.72397171617E+01  0.22610233392E+02  0.31886099465E+02  0.00000000000E+00 0.  1.
         11    1    3    3    0    0 -0.18119566003E+02  0.33554960760E+00  0.79075867724E+01  0.19772738670E+02  0.51100000000E-03 0.  1.
        -11    1    3    3    0    0  0.88600513675E+01  0.61469413561E-01 -0.19830454599E+02  0.21719834682E+02  0.51100000000E-03 0. -1.
        -12    1    3    3    0    0 -0.12026329967E+02 -0.76367361828E+01 -0.10687365565E+02  0.17809327184E+02  0.00000000000E+00 0.  1.
</event>
<event>
 7    1  0.1113211E-011  0.5930196E+02  0.7816164E-02  0.1266605E+00
        -11   -1    0    0    0    0  0.00000000000E+00  0.00000000000E+00  0.45593999997E+02  0.45594000000E+02  0.51100000000E-03 0. -1.
         11   -1    0    0    0    0 -0.00000000000E+00 -0.00000000000E+00 -0.45593999997E+02  0.45594000000E+02  0.51100000000E-03 0.  1.
    9900012    2    1    2    0    0  0.18544991505E+02  0.88642273802E+01  0.24376797618E+02  0.59301960749E+02  0.50000030496E+02 0.  0.
        -12    1    1    2    0    0 -0.18544991505E+02 -0.88642273802E+01 -0.24376797618E+02  0.31886039251E+02  0.00000000000E+00 0.  1.
         11    1    3    3    0    0 -0.15841726106E+01  0.26607517481E+01  0.27056528936E+02  0.27233159219E+02  0.51100000000E-03 0. -1.
        -11    1    3    3    0    0  0.15750167948E+02 -0.75855303654E+01 -0.18089065343E+01  0.17574988035E+02  0.51100000000E-03 0.  1.
         12    1    3    3    0    0  0.43789961670E+01  0.13789005998E+02 -0.87082478322E+00  0.14493813495E+02  0.00000000000E+00 0. -1.
</event>
<event>
 7    1  0.1113211E-011  0.5930194E+02  0.7816164E-02  0.1266605E+00
        -11   -1    0    0    0    0  0.00000000000E+00  0.00000000000E+00  0.45593999997E+02  0.45594000000E+02  0.51100000000E-03 0.  1.
         11   -1    0    0    0    0 -0.00000000000E+00 -0.00000000000E+00 -0.45593999997E+02  0.45594000000E+02  0.51100000000E-03 0. -1.
    9900012    2    1    2    0    0 -0.18688941800E+02  0.58580774702E+01 -0.25162021025E+02  0.59301938479E+02  0.49999989881E+02 0.  0.
        -12    1    1    2    0    0  0.18688941800E+02 -0.58580774702E+01  0.25162021025E+02  0.31886061521E+02  0.00000000000E+00 0.  1.
         11    1    3    3    0    0 -0.16235181135E+02 -0.85985486997E+01 -0.29482387973E+02  0.34737981333E+02  0.51100000000E-03 0. -1.
        -11    1    3    3    0    0 -0.84268451369E+01  0.56295189271E+01  0.83887232887E+01  0.13155754672E+02  0.51100000000E-03 0.  1.
        -12    1    3    3    0    0  0.59730844719E+01  0.88271072427E+01 -0.40683563408E+01  0.11408202475E+02  0.00000000000E+00 0.  1.
</event>
<event>
 7    1  0.1113211E-011  0.5930195E+02  0.7816164E-02  0.1266605E+00
        -11   -1    0    0    0    0  0.00000000000E+00  0.00000000000E+00  0.45593999997E+02  0.45594000000E+02  0.51100000000E-03 0. -1.
         11   -1    0    0    0    0 -0.00000000000E+00 -0.00000000000E+00 -0.45593999997E+02  0.45594000000E+02  0.51100000000E-03 0.  1.
    9900012    2    1    2    0    0  0.21743174663E+02  0.32555846637E+01  0.23094492603E+02  0.59301951883E+02  0.50000014327E+02 0.  0.
        -12    1    1    2    0    0 -0.21743174663E+02 -0.32555846637E+01 -0.23094492603E+02  0.31886048117E+02  0.00000000000E+00 0.  1.
         11    1    3    3    0    0  0.17944816783E+01  0.17291598939E+02  0.25490671429E+02  0.30854398204E+02  0.51100000000E-03 0. -1.
        -11    1    3    3    0    0  0.13101318807E+02 -0.26240078119E+01 -0.60189645980E+01  0.14654620656E+02  0.51100000000E-03 0.  1.
         12    1    3    3    0    0  0.68473741779E+01 -0.11412006463E+02  0.36227857716E+01  0.13792933024E+02  0.00000000000E+00 0. -1.
</event>
<event>
 7    1  0.1113211E-011  0.5930195E+02  0.7816164E-02  0.1266605E+00
        -11   -1    0    0    0    0  0.00000000000E+00  0.00000000000E+00  0.45593999997E+02  0.45594000000E+02  0.51100000000E-03 0. -1.
         11   -1    0    0    0    0 -0.00000000000E+00 -0.00000000000E+00 -0.45593999997E+02  0.45594000000E+02  0.51100000000E-03 0.  1.
    9900012    2    1    2    0    0 -0.13856504612E+02  0.15026159518E+02  0.24473084556E+02  0.59301951991E+02  0.50000014523E+02 0.  0.
        -12    1    1    2    0    0  0.13856504612E+02 -0.15026159518E+02 -0.24473084556E+02  0.31886048009E+02  0.00000000000E+00 0.  1.
         11    1    3    3    0    0  0.32829172432E+01 -0.31522415221E+01  0.74970795499E+01  0.87704261172E+01  0.51100000000E-03 0. -1.
        -11    1    3    3    0    0 -0.23364259885E+02  0.42028031168E+01 -0.45012735171E+01  0.24162236187E+02  0.51100000000E-03 0.  1.
        -12    1    3    3    0    0  0.62248380302E+01  0.13975597923E+02  0.21477278523E+02  0.26369289687E+02  0.00000000000E+00 0.  1.
</event>
<event>
 7    1  0.1113211E-011  0.5930195E+02  0.7816164E-02  0.1266605E+00
        -11   -1    0    0    0    0  0.00000000000E+00  0.00000000000E+00  0.45593999997E+02  0.45594000000E+02  0.51100000000E-03 0. -1.
         11   -1    0    0    0    0 -0.00000000000E+00 -0.00000000000E+00 -0.45593999997E+02  0.45594000000E+02  0.51100000000E-03 0.  1.
    9900012    2    1    2    0    0  0.38107136040E+01 -0.29510725023E+02  0.11459300619E+02  0.59301952891E+02  0.50000016165E+02 0.  0.
        -12    1    1    2    0    0 -0.38107136040E+01  0.29510725023E+02 -0.11459300619E+02  0.31886047109E+02  0.00000000000E+00 0.  1.
         11    1    3    3    0    0 -0.98329353993E+01 -0.15959710013E+01  0.19228667873E+01  0.10145499443E+02  0.51100000000E-03 0. -1.
        -11    1    3    3    0    0  0.24912356618E+02 -0.17797052145E+02 -0.11228862034E+01  0.30636929530E+02  0.51100000000E-03 0.  1.
        -12    1    3    3    0    0 -0.11268707614E+02 -0.10117701876E+02  0.10659320035E+02  0.18519523919E+02  0.00000000000E+00 0.  1.
</event>
<event>
 7    1  0.1113211E-011  0.5930194E+02  0.7816164E-02  0.1266605E+00
        -11   -1    0    0    0    0  0.00000000000E+00  0.00000000000E+00  0.45593999997E+02  0.45594000000E+02  0.51100000000E-03 0.  1.
         11   -1    0    0    0    0 -0.00000000000E+00 -0.00000000000E+00 -0.45593999997E+02  0.45594000000E+02  0.51100000000E-03 0. -1.
    9900012    2    1    2    0    0  0.15850225989E+02  0.25774532846E+02 -0.10058047660E+02  0.59301944583E+02  0.50000001013E+02 0.  0.
        -12    1    1    2    0    0 -0.15850225989E+02 -0.25774532846E+02  0.10058047660E+02  0.31886055417E+02  0.00000000000E+00 0.  1.
         11    1    3    3    0    0 -0.85338924798E+01  0.89366151735E+01  0.10932653755E+02  0.16498888751E+02  0.51100000000E-03 0.  1.
        -11    1    3    3    0    0  0.56094613351E+01 -0.56262745489E+01 -0.56635630009E+01  0.97568933527E+01  0.51100000000E-03 0. -1.
         12    1    3    3    0    0  0.18774657133E+02  0.22464192221E+02 -0.15327138415E+02  0.33046162479E+02  0.00000000000E+00 0. -1.
</event>
<event>
 7    1  0.1113211E-011  0.5930199E+02  0.7816164E-02  0.1266605E+00
        -11   -1    0    0    0    0  0.00000000000E+00  0.00000000000E+00  0.45593999997E+02  0.45594000000E+02  0.51100000000E-03 0.  1.
         11   -1    0    0    0    0 -0.00000000000E+00 -0.00000000000E+00 -0.45593999997E+02  0.45594000000E+02  0.51100000000E-03 0. -1.
    9900012    2    1    2    0    0 -0.16971009300E+02  0.47829642362E+01 -0.26567386216E+02  0.59301985606E+02  0.50000075829E+02 0.  0.
        -12    1    1    2    0    0  0.16971009300E+02 -0.47829642362E+01  0.26567386216E+02  0.31886014394E+02  0.00000000000E+00 0.  1.
         11    1    3    3    0    0 -0.76524291007E+01  0.13698865006E+02 -0.23840445168E+02  0.28540942515E+02  0.51100000000E-03 0. -1.
        -11    1    3    3    0    0 -0.22284137794E+01 -0.12862656438E+02  0.94586761844E+01  0.16120803765E+02  0.51100000000E-03 0.  1.
        -12    1    3    3    0    0 -0.70901664199E+01  0.39467556680E+01 -0.12185617233E+02  0.14640239326E+02  0.00000000000E+00 0.  1.
</event>
<event>
 7    1  0.1113211E-011  0.5930194E+02  0.7816164E-02  0.1266605E+00
        -11   -1    0    0    0    0  0.00000000000E+00  0.00000000000E+00  0.45593999997E+02  0.45594000000E+02  0.51100000000E-03 0.  1.
         11   -1    0    0    0    0 -0.00000000000E+00 -0.00000000000E+00 -0.45593999997E+02  0.45594000000E+02  0.51100000000E-03 0. -1.
    9900012    2    1    2    0    0  0.44578771929E+01  0.12797241457E+02 -0.28863098862E+02  0.59301944522E+02  0.50000000902E+02 0.  0.
        -12    1    1    2    0    0 -0.44578771929E+01 -0.12797241457E+02  0.28863098862E+02  0.31886055478E+02  0.00000000000E+00 0.  1.
         11    1    3    3    0    0 -0.10815821701E+01 -0.14421145920E+02 -0.22867729430E+02  0.27056834981E+02  0.51100000000E-03 0. -1.
        -11    1    3    3    0    0 -0.35594536037E+01  0.18651660284E+02 -0.18491060844E+01  0.19078085200E+02  0.51100000000E-03 0.  1.
         12    1    3    3    0    0  0.90989129667E+01  0.85667270930E+01 -0.41462633476E+01  0.13167024341E+02  0.00000000000E+00 0. -1.
</event>
<event>
 7    1  0.1113211E-011  0.5930195E+02  0.7816164E-02  0.1266605E+00
        -11   -1    0    0    0    0  0.00000000000E+00  0.00000000000E+00  0.45593999997E+02  0.45594000000E+02  0.51100000000E-03 0. -1.
         11   -1    0    0    0    0 -0.00000000000E+00 -0.00000000000E+00 -0.45593999997E+02  0.45594000000E+02  0.51100000000E-03 0.  1.
    9900012    2    1    2    0    0  0.20519716517E+02 -0.95057803340E+01  0.22478913914E+02  0.59301949815E+02  0.50000010554E+02 0.  0.
        -12    1    1    2    0    0 -0.20519716517E+02  0.95057803340E+01 -0.22478913914E+02  0.31886050185E+02  0.00000000000E+00 0.  1.
         11    1    3    3    0    0 -0.58234237736E+01  0.12994916500E+00  0.80026011075E+01  0.98980187906E+01  0.51100000000E-03 0. -1.
        -11    1    3    3    0    0  0.14793173056E+02  0.93188841134E+01 -0.67026946548E+01  0.18724467578E+02  0.51100000000E-03 0.  1.
        -12    1    3    3    0    0  0.11549967234E+02 -0.18954613612E+02  0.21179007461E+02  0.30679463446E+02  0.00000000000E+00 0.  1.
</event>
<event>
 7    1  0.1113211E-011  0.5930194E+02  0.7816164E-02  0.1266605E+00
        -11   -1    0    0    0    0  0.00000000000E+00  0.00000000000E+00  0.45593999997E+02  0.45594000000E+02  0.51100000000E-03 0.  1.
         11   -1    0    0    0    0 -0.00000000000E+00 -0.00000000000E+00 -0.45593999997E+02  0.45594000000E+02  0.51100000000E-03 0. -1.
    9900012    2    1    2    0    0 -0.86290801565E+01 -0.12253782907E+02 -0.28144348047E+02  0.59301944319E+02  0.50000000531E+02 0.  0.
        -12    1    1    2    0    0  0.86290801565E+01  0.12253782907E+02  0.28144348047E+02  0.31886055681E+02  0.00000000000E+00 0.  1.
         11    1    3    3    0    0  0.25696828109E+01 -0.27102413617E+02 -0.14774192039E+02  0.30974519274E+02  0.51100000000E-03 0. -1.
        -11    1    3    3    0    0  0.14449298800E+00  0.12986256186E+02 -0.42855678023E+01  0.13675884600E+02  0.51100000000E-03 0.  1.
         12    1    3    3    0    0 -0.11343255955E+02  0.18623745233E+01 -0.90845882060E+01  0.14651540445E+02  0.00000000000E+00 0. -1.
</event>
<event>
 7    1  0.1113211E-011  0.5930179E+02  0.7816164E-02  0.1266605E+00
        -11   -1    0    0    0    0  0.00000000000E+00  0.00000000000E+00  0.45593999997E+02  0.45594000000E+02  0.51100000000E-03 0.  1.
         11   -1    0    0    0    0 -0.00000000000E+00 -0.00000000000E+00 -0.45593999997E+02  0.45594000000E+02  0.51100000000E-03 0. -1.
    9900012    2    1    2    0    0  0.14296725564E+02  0.12197379237E+02 -0.25759620187E+02  0.59301788963E+02  0.49999717199E+02 0.  0.
        -12    1    1    2    0    0 -0.14296725564E+02 -0.12197379237E+02  0.25759620187E+02  0.31886211037E+02  0.00000000000E+00 0.  1.
         11    1    3    3    0    0  0.24815000613E+02  0.89848999705E+01 -0.19024235327E+02  0.32533585922E+02  0.51100000000E-03 0. -1.
        -11    1    3    3    0    0 -0.12939704129E+02  0.10762565186E+02 -0.81729668114E+01  0.18710054492E+02  0.51100000000E-03 0.  1.
        -12    1    3    3    0    0  0.24214290795E+01 -0.75500859194E+01  0.14375819516E+01  0.80581485494E+01  0.00000000000E+00 0.  1.
</event>
<event>
 7    1  0.1113211E-011  0.5930193E+02  0.7816164E-02  0.1266605E+00
        -11   -1    0    0    0    0  0.00000000000E+00  0.00000000000E+00  0.45593999997E+02  0.45594000000E+02  0.51100000000E-03 0.  1.
         11   -1    0    0    0    0 -0.00000000000E+00 -0.00000000000E+00 -0.45593999997E+02  0.45594000000E+02  0.51100000000E-03 0. -1.
    9900012    2    1    2    0    0  0.10956669212E+02  0.24411926153E+02  0.17341592657E+02  0.59301928203E+02  0.49999971140E+02 0.  0.
        -12    1    1    2    0    0 -0.10956669212E+02 -0.24411926153E+02 -0.17341592657E+02  0.31886071797E+02  0.00000000000E+00 0.  1.
         11    1    3    3    0    0 -0.13071099749E+02  0.16890618574E+02  0.21790161082E+02  0.30511600494E+02  0.51100000000E-03 0. -1.
        -11    1    3    3    0    0  0.15623084639E+02  0.10344853382E+01  0.28395019571E+01  0.15912690067E+02  0.51100000000E-03 0.  1.
         12    1    3    3    0    0  0.84046843228E+01  0.64868222410E+01 -0.72880703819E+01  0.12877637642E+02  0.00000000000E+00 0. -1.
</event>
<event>
 7    1  0.1113211E-011  0.5930194E+02  0.7816164E-02  0.1266605E+00
        -11   -1    0    0    0    0  0.00000000000E+00  0.00000000000E+00  0.45593999997E+02  0.45594000000E+02  0.51100000000E-03 0. -1.
         11   -1    0    0    0    0 -0.00000000000E+00 -0.00000000000E+00 -0.45593999997E+02  0.45594000000E+02  0.51100000000E-03 0.  1.
    9900012    2    1    2    0    0 -0.22036332810E+02  0.59017631003E+01  0.22277571399E+02  0.59301937859E+02  0.49999988749E+02 0.  0.
        -12    1    1    2    0    0  0.22036332810E+02 -0.59017631003E+01 -0.22277571399E+02  0.31886062141E+02  0.00000000000E+00 0.  1.
         11    1    3    3    0    0 -0.25600635187E+02  0.16594482979E+02  0.48089033603E+01  0.30885189640E+02  0.51100000000E-03 0.  1.
        -11    1    3    3    0    0  0.11172647506E+02 -0.51426878601E+01  0.13307593057E+02  0.18120908475E+02  0.51100000000E-03 0. -1.
        -12    1    3    3    0    0 -0.76083451298E+01 -0.55500320188E+01  0.41610749816E+01  0.10295839744E+02  0.00000000000E+00 0.  1.
</event>
<event>
 7    1  0.1113211E-011  0.5930195E+02  0.7816164E-02  0.1266605E+00
        -11   -1    0    0    0    0  0.00000000000E+00  0.00000000000E+00  0.45593999997E+02  0.45594000000E+02  0.51100000000E-03 0.  1.
         11   -1    0    0    0    0 -0.00000000000E+00 -0.00000000000E+00 -0.45593999997E+02  0.45594000000E+02  0.51100000000E-03 0. -1.
    9900012    2    1    2    0    0  0.82692646937E+01 -0.11911784635E+02 -0.28398037391E+02  0.59301954785E+02  0.50000019619E+02 0.  0.
        -12    1    1    2    0    0 -0.82692646937E+01  0.11911784635E+02  0.28398037391E+02  0.31886045215E+02  0.00000000000E+00 0.  1.
         11    1    3    3    0    0  0.67650585723E+01  0.26588977180E+01 -0.52947025802E+01  0.89927543187E+01  0.51100000000E-03 0. -1.
        -11    1    3    3    0    0 -0.18038615430E+02 -0.32561185268E+01 -0.46848540956E+00  0.18336123727E+02  0.51100000000E-03 0.  1.
        -12    1    3    3    0    0  0.19542821551E+02 -0.11314563826E+02 -0.22634849402E+02  0.31973076740E+02  0.00000000000E+00 0.  1.
</event>
<event>
 7    1  0.1792334E-011  0.5930178E+02  0.7816164E-02  0.1266605E+00
        -11   -1    0    0    0    0  0.00000000000E+00  0.00000000000E+00  0.45593999997E+02  0.45594000000E+02  0.51100000000E-03 0. -1.
         11   -1    0    0    0    0 -0.00000000000E+00 -0.00000000000E+00 -0.45593999997E+02  0.45594000000E+02  0.51100000000E-03 0.  1.
    9900012    2    1    2    0    0  0.13154064931E+02  0.20918892491E+02  0.20151953743E+02  0.59301784688E+02  0.49999709402E+02 0.  0.
        -12    1    1    2    0    0 -0.13154064931E+02 -0.20918892491E+02 -0.20151953743E+02  0.31886215312E+02  0.00000000000E+00 0.  1.
         11    1    3    3    0    0  0.12118165087E+02  0.21239106748E+02  0.21234276378E+02  0.32385862257E+02  0.51100000000E-03 0. -1.
        -11    1    3    3    0    0  0.67755291298E+01 -0.11011718796E+02  0.43215127722E+01  0.13632359251E+02  0.51100000000E-03 0.  1.
        -12    1    3    3    0    0 -0.57396292859E+01  0.10691504540E+02 -0.54038354081E+01  0.13283563181E+02  0.00000000000E+00 0.  1.
</event>
<event>
 7    1  0.1113211E-011  0.5930195E+02  0.7816164E-02  0.1266605E+00
        -11   -1    0    0    0    0  0.00000000000E+00  0.00000000000E+00  0.45593999997E+02  0.45594000000E+02  0.51100000000E-03 0. -1.
         11   -1    0    0    0    0 -0.00000000000E+00 -0.00000000000E+00 -0.45593999997E+02  0.45594000000E+02  0.51100000000E-03 0.  1.
    9900012    2    1    2    0    0  0.15561718041E+02 -0.27237197530E+02 -0.57173631286E+01  0.59301949150E+02  0.50000009341E+02 0.  0.
        -12    1    1    2    0    0 -0.15561718041E+02  0.27237197530E+02  0.57173631286E+01  0.31886050850E+02  0.00000000000E+00 0.  1.
         11    1    3    3    0    0  0.22897776196E+02 -0.10031559150E+02  0.81273104936E+01  0.26286755407E+02  0.51100000000E-03 0. -1.
        -11    1    3    3    0    0 -0.14691632094E+02 -0.10013058475E+02 -0.29351279532E+01  0.18019999167E+02  0.51100000000E-03 0.  1.
        -12    1    3    3    0    0  0.73555739389E+01 -0.71925799057E+01 -0.10909545669E+02  0.14995194576E+02  0.00000000000E+00 0.  1.
</event>
<event>
 7    1  0.1113211E-011  0.5930194E+02  0.7816164E-02  0.1266605E+00
        -11   -1    0    0    0    0  0.00000000000E+00  0.00000000000E+00  0.45593999997E+02  0.45594000000E+02  0.51100000000E-03 0.  1.
         11   -1    0    0    0    0 -0.00000000000E+00 -0.00000000000E+00 -0.45593999997E+02  0.45594000000E+02  0.51100000000E-03 0. -1.
    9900012    2    1    2    0    0  0.22012572695E+01 -0.27928552577E+02 -0.15227318495E+02  0.59301940175E+02  0.49999992974E+02 0.  0.
        -12    1    1    2    0    0 -0.22012572695E+01  0.27928552577E+02  0.15227318495E+02  0.31886059825E+02  0.00000000000E+00 0.  1.
         11    1    3    3    0    0  0.14179481448E+02 -0.11289440821E+02 -0.12521240807E+02  0.22029313194E+02  0.51100000000E-03 0. -1.
        -11    1    3    3    0    0 -0.15259402908E+02 -0.23022152642E+02  0.34272622988E+01  0.27831906448E+02  0.51100000000E-03 0.  1.
        -12    1    3    3    0    0  0.32811787290E+01  0.63830408862E+01 -0.61333399863E+01  0.94407205336E+01  0.00000000000E+00 0.  1.
</event>
<event>
 7    1  0.1113211E-011  0.5930194E+02  0.7816164E-02  0.1266605E+00
        -11   -1    0    0    0    0  0.00000000000E+00  0.00000000000E+00  0.45593999997E+02  0.45594000000E+02  0.51100000000E-03 0. -1.
         11   -1    0    0    0    0 -0.00000000000E+00 -0.00000000000E+00 -0.45593999997E+02  0.45594000000E+02  0.51100000000E-03 0.  1.
    9900012    2    1    2    0    0  0.22980467196E+02  0.21258552985E+02  0.60574664426E+01  0.59301939609E+02  0.49999991941E+02 0.  0.
        -12    1    1    2    0    0 -0.22980467196E+02 -0.21258552985E+02 -0.60574664426E+01  0.31886060391E+02  0.00000000000E+00 0.  1.
         11    1    3    3    0    0  0.26615458258E+02  0.18227778705E+02  0.17467197663E+02  0.36684295403E+02  0.51100000000E-03 0. -1.
        -11    1    3    3    0    0 -0.93701164070E+01  0.74672194517E+01 -0.51612494964E+01  0.13045955099E+02  0.51100000000E-03 0.  1.
        -12    1    3    3    0    0  0.57351253454E+01 -0.44364451713E+01 -0.62484817244E+01  0.95716891062E+01  0.00000000000E+00 0.  1.
</event>
<event>
 7    1  0.1113211E-011  0.5930190E+02  0.7816164E-02  0.1266605E+00
        -11   -1    0    0    0    0  0.00000000000E+00  0.00000000000E+00  0.45593999997E+02  0.45594000000E+02  0.51100000000E-03 0. -1.
         11   -1    0    0    0    0 -0.00000000000E+00 -0.00000000000E+00 -0.45593999997E+02  0.45594000000E+02  0.51100000000E-03 0.  1.
    9900012    2    1    2    0    0 -0.26181467899E+02  0.89775889919E+01  0.15832148538E+02  0.59301901261E+02  0.49999922003E+02 0.  0.
        -12    1    1    2    0    0  0.26181467899E+02 -0.89775889919E+01 -0.15832148538E+02  0.31886098739E+02  0.00000000000E+00 0.  1.
         11    1    3    3    0    0 -0.10606360540E+02  0.13749687804E+02  0.30768110572E+01  0.17635633392E+02  0.51100000000E-03 0. -1.
        -11    1    3    3    0    0 -0.10933852584E+02 -0.18842521651E+02  0.15316318383E+02  0.26630421769E+02  0.51100000000E-03 0.  1.
        -12    1    3    3    0    0 -0.46412547755E+01  0.14070422839E+02 -0.25609809024E+01  0.15035846100E+02  0.00000000000E+00 0.  1.
</event>
<event>
 7    1  0.1113211E-011  0.5930200E+02  0.7816164E-02  0.1266605E+00
        -11   -1    0    0    0    0  0.00000000000E+00  0.00000000000E+00  0.45593999997E+02  0.45594000000E+02  0.51100000000E-03 0.  1.
         11   -1    0    0    0    0 -0.00000000000E+00 -0.00000000000E+00 -0.45593999997E+02  0.45594000000E+02  0.51100000000E-03 0. -1.
    9900012    2    1    2    0    0  0.17344396995E+02 -0.23027096671E+02 -0.13625040289E+02  0.59301999763E+02  0.50000101648E+02 0.  0.
        -12    1    1    2    0    0 -0.17344396995E+02  0.23027096671E+02  0.13625040289E+02  0.31886000237E+02  0.00000000000E+00 0.  1.
         11    1    3    3    0    0  0.23799230066E+01  0.11119661940E+02 -0.12802511760E+02  0.17123528340E+02  0.51100000000E-03 0. -1.
        -11    1    3    3    0    0  0.40580996277E+01 -0.30130369831E+02  0.97406578695E+00  0.30418023656E+02  0.51100000000E-03 0.  1.
        -12    1    3    3    0    0  0.10906374361E+02 -0.40163887803E+01 -0.17965943161E+01  0.11760447767E+02  0.00000000000E+00 0.  1.
</event>
<event>
 7    1  0.1113211E-011  0.5930192E+02  0.7816164E-02  0.1266605E+00
        -11   -1    0    0    0    0  0.00000000000E+00  0.00000000000E+00  0.45593999997E+02  0.45594000000E+02  0.51100000000E-03 0. -1.
         11   -1    0    0    0    0 -0.00000000000E+00 -0.00000000000E+00 -0.45593999997E+02  0.45594000000E+02  0.51100000000E-03 0.  1.
    9900012    2    1    2    0    0 -0.31783538600E+02 -0.19498240642E+01 -0.16513114047E+01  0.59301922016E+02  0.49999959856E+02 0.  0.
        -12    1    1    2    0    0  0.31783538600E+02  0.19498240642E+01  0.16513114047E+01  0.31886077984E+02  0.00000000000E+00 0.  1.
         11    1    3    3    0    0 -0.20413102023E+02 -0.13824089237E+02 -0.20094722346E+02  0.31805629122E+02  0.51100000000E-03 0. -1.
        -11    1    3    3    0    0 -0.83350049528E+01  0.15557842741E+01  0.37111567740E+01  0.92555635773E+01  0.51100000000E-03 0.  1.
         12    1    3    3    0    0 -0.30354316247E+01  0.10318480898E+02  0.14732254167E+02  0.18240729318E+02  0.00000000000E+00 0. -1.
</event>
<event>
 7    1  0.1113211E-011  0.5930195E+02  0.7816164E-02  0.1266605E+00
        -11   -1    0    0    0    0  0.00000000000E+00  0.00000000000E+00  0.45593999997E+02  0.45594000000E+02  0.51100000000E-03 0. -1.
         11   -1    0    0    0    0 -0.00000000000E+00 -0.00000000000E+00 -0.45593999997E+02  0.45594000000E+02  0.51100000000E-03 0.  1.
    9900012    2    1    2    0    0 -0.23471325123E+02 -0.21567346163E+02 -0.81663680866E+00  0.59301946321E+02  0.50000004182E+02 0.  0.
        -12    1    1    2    0    0  0.23471325123E+02  0.21567346163E+02  0.81663680866E+00  0.31886053679E+02  0.00000000000E+00 0.  1.
         11    1    3    3    0    0 -0.23037617515E+01 -0.25809632264E+01  0.12265668417E+02  0.12744226589E+02  0.51100000000E-03 0. -1.
        -11    1    3    3    0    0 -0.13036855480E+01 -0.20219738264E+02 -0.16788643654E+02  0.26313418012E+02  0.51100000000E-03 0.  1.
        -12    1    3    3    0    0 -0.19863877823E+02  0.12333553271E+01  0.37063384289E+01  0.20244301719E+02  0.00000000000E+00 0.  1.
</event>
<event>
 7    1  0.1113211E-011  0.5930195E+02  0.7816164E-02  0.1266605E+00
        -11   -1    0    0    0    0  0.00000000000E+00  0.00000000000E+00  0.45593999997E+02  0.45594000000E+02  0.51100000000E-03 0.  1.
         11   -1    0    0    0    0 -0.00000000000E+00 -0.00000000000E+00 -0.45593999997E+02  0.45594000000E+02  0.51100000000E-03 0. -1.
    9900012    2    1    2    0    0 -0.18897567801E+02 -0.22864667140E+02  0.11696551441E+02  0.59301946814E+02  0.50000005081E+02 0.  0.
        -12    1    1    2    0    0  0.18897567801E+02  0.22864667140E+02 -0.11696551441E+02  0.31886053186E+02  0.00000000000E+00 0.  1.
         11    1    3    3    0    0  0.84137344124E+01 -0.32620168635E+01 -0.11891695493E+02  0.14927963784E+02  0.51100000000E-03 0. -1.
        -11    1    3    3    0    0 -0.24853102576E+02 -0.87623936766E+01  0.14960448732E+02  0.30302991224E+02  0.51100000000E-03 0.  1.
         12    1    3    3    0    0 -0.24581996376E+01 -0.10840256600E+02  0.86277982014E+01  0.14070991806E+02  0.00000000000E+00 0. -1.
</event>
<event>
 7    1  0.1113211E-011  0.5930197E+02  0.7816164E-02  0.1266605E+00
        -11   -1    0    0    0    0  0.00000000000E+00  0.00000000000E+00  0.45593999997E+02  0.45594000000E+02  0.51100000000E-03 0. -1.
         11   -1    0    0    0    0 -0.00000000000E+00 -0.00000000000E+00 -0.45593999997E+02  0.45594000000E+02  0.51100000000E-03 0.  1.
    9900012    2    1    2    0    0 -0.19431412072E+02 -0.43620096926E+01  0.24902052946E+02  0.59301966308E+02  0.50000040634E+02 0.  0.
        -12    1    1    2    0    0  0.19431412072E+02  0.43620096926E+01 -0.24902052946E+02  0.31886033692E+02  0.00000000000E+00 0.  1.
         11    1    3    3    0    0 -0.23829069593E+02 -0.17875467829E+02  0.27547084193E+02  0.40573374959E+02  0.51100000000E-03 0. -1.
        -11    1    3    3    0    0  0.23121019464E+01  0.14427324599E+02  0.76137297582E+00  0.14631240534E+02  0.51100000000E-03 0.  1.
         12    1    3    3    0    0  0.20855555739E+01 -0.91386646263E+00 -0.34064042235E+01  0.40973508145E+01  0.00000000000E+00 0. -1.
</event>
<event>
 7    1  0.1113211E-011  0.5930201E+02  0.7816164E-02  0.1266605E+00
        -11   -1    0    0    0    0  0.00000000000E+00  0.00000000000E+00  0.45593999997E+02  0.45594000000E+02  0.51100000000E-03 0.  1.
         11   -1    0    0    0    0 -0.00000000000E+00 -0.00000000000E+00 -0.45593999997E+02  0.45594000000E+02  0.51100000000E-03 0. -1.
    9900012    2    1    2    0    0  0.26378210618E+01  0.28904216580E+02 -0.13202444455E+02  0.59302009728E+02  0.50000119821E+02 0.  0.
        -12    1    1    2    0    0 -0.26378210618E+01 -0.28904216580E+02  0.13202444455E+02  0.31885990272E+02  0.00000000000E+00 0.  1.
         11    1    3    3    0    0  0.19880811890E+02  0.83745550415E+01  0.79089458708E+00  0.21587157480E+02  0.51100000000E-03 0. -1.
        -11    1    3    3    0    0 -0.54105294664E+01  0.22233675570E+02 -0.11010932757E+02  0.25393912634E+02  0.51100000000E-03 0.  1.
         12    1    3    3    0    0 -0.11832461362E+02 -0.17040140312E+01 -0.29824062854E+01  0.12320939613E+02  0.00000000000E+00 0. -1.
</event>
<event>
 7    1  0.1113211E-011  0.5930162E+02  0.7816164E-02  0.1266606E+00
        -11   -1    0    0    0    0  0.00000000000E+00  0.00000000000E+00  0.45593999997E+02  0.45594000000E+02  0.51100000000E-03 0. -1.
         11   -1    0    0    0    0 -0.00000000000E+00 -0.00000000000E+00 -0.45593999997E+02  0.45594000000E+02  0.51100000000E-03 0.  1.
    9900012    2    1    2    0    0 -0.14424769979E+01 -0.55596157596E+01  0.31364803032E+02  0.59301624594E+02  0.49999417426E+02 0.  0.
        -12    1    1    2    0    0  0.14424769979E+01  0.55596157596E+01 -0.31364803032E+02  0.31886375406E+02  0.00000000000E+00 0.  1.
         11    1    3    3    0    0 -0.17013642870E+02 -0.74624049772E+01  0.28101601063E+02  0.33687557263E+02  0.51100000000E-03 0. -1.
        -11    1    3    3    0    0  0.69788196412E+00  0.64012086930E+01 -0.48720436841E+01  0.80746097051E+01  0.51100000000E-03 0.  1.
         12    1    3    3    0    0  0.14873283908E+02 -0.44984194754E+01  0.81352456530E+01  0.17539457626E+02  0.00000000000E+00 0. -1.
</event>
<event>
 7    1  0.1113211E-011  0.5930196E+02  0.7816164E-02  0.1266605E+00
        -11   -1    0    0    0    0  0.00000000000E+00  0.00000000000E+00  0.45593999997E+02  0.45594000000E+02  0.51100000000E-03 0.  1.
         11   -1    0    0    0    0 -0.00000000000E+00 -0.00000000000E+00 -0.45593999997E+02  0.45594000000E+02  0.51100000000E-03 0. -1.
    9900012    2    1    2    0    0  0.40469240466E+01  0.13406011289E+02 -0.28646484161E+02  0.59301956223E+02  0.50000022242E+02 0.  0.
        -12    1    1    2    0    0 -0.40469240466E+01 -0.13406011289E+02  0.28646484161E+02  0.31886043777E+02  0.00000000000E+00 0.  1.
         11    1    3    3    0    0 -0.25250475886E+01  0.15219391573E+01 -0.10839062277E+02  0.11232872982E+02  0.51100000000E-03 0. -1.
        -11    1    3    3    0    0  0.66472138105E+01 -0.13242579875E+02  0.33844621613E+01  0.15198880142E+02  0.51100000000E-03 0.  1.
        -12    1    3    3    0    0 -0.75242175286E-01  0.25126652006E+02 -0.21191884046E+02  0.32870203100E+02  0.00000000000E+00 0.  1.
</event>
<event>
 7    1  0.1113211E-011  0.5930200E+02  0.7816164E-02  0.1266605E+00
        -11   -1    0    0    0    0  0.00000000000E+00  0.00000000000E+00  0.45593999997E+02  0.45594000000E+02  0.51100000000E-03 0.  1.
         11   -1    0    0    0    0 -0.00000000000E+00 -0.00000000000E+00 -0.45593999997E+02  0.45594000000E+02  0.51100000000E-03 0. -1.
    9900012    2    1    2    0    0 -0.20579243514E+02 -0.71352027785E+01 -0.23287351714E+02  0.59301997865E+02  0.50000098186E+02 0.  0.
        -12    1    1    2    0    0  0.20579243514E+02  0.71352027785E+01  0.23287351714E+02  0.31886002135E+02  0.00000000000E+00 0.  1.
         11    1    3    3    0    0 -0.61296837052E+00  0.35406946437E+01 -0.57151928250E+01  0.67509760829E+01  0.51100000000E-03 0. -1.
        -11    1    3    3    0    0 -0.47377425081E+01 -0.24312165882E+02  0.11987630526E+01  0.24798480741E+02  0.51100000000E-03 0.  1.
        -12    1    3    3    0    0 -0.15228532635E+02  0.13636268460E+02 -0.18770921942E+02  0.27752541041E+02  0.00000000000E+00 0.  1.
</event>
<event>
 7    1  0.1113211E-011  0.5930197E+02  0.7816164E-02  0.1266605E+00
        -11   -1    0    0    0    0  0.00000000000E+00  0.00000000000E+00  0.45593999997E+02  0.45594000000E+02  0.51100000000E-03 0.  1.
         11   -1    0    0    0    0 -0.00000000000E+00 -0.00000000000E+00 -0.45593999997E+02  0.45594000000E+02  0.51100000000E-03 0. -1.
    9900012    2    1    2    0    0  0.15863767019E+02 -0.19075441185E+02 -0.20029657740E+02  0.59301972502E+02  0.50000051930E+02 0.  0.
        -12    1    1    2    0    0 -0.15863767019E+02  0.19075441185E+02  0.20029657740E+02  0.31886027498E+02  0.00000000000E+00 0.  1.
         11    1    3    3    0    0  0.28304829142E+02 -0.90023540789E+01 -0.66796783494E+01  0.30443781546E+02  0.51100000000E-03 0. -1.
        -11    1    3    3    0    0 -0.96834986574E+01 -0.16149397949E+02 -0.88225347052E+01  0.20794478095E+02  0.51100000000E-03 0.  1.
        -12    1    3    3    0    0 -0.27575634657E+01  0.60763108421E+01 -0.45274446852E+01  0.80637128604E+01  0.00000000000E+00 0.  1.
</event>
<event>
 7    1  0.1113211E-011  0.5930196E+02  0.7816164E-02  0.1266605E+00
        -11   -1    0    0    0    0  0.00000000000E+00  0.00000000000E+00  0.45593999997E+02  0.45594000000E+02  0.51100000000E-03 0.  1.
         11   -1    0    0    0    0 -0.00000000000E+00 -0.00000000000E+00 -0.45593999997E+02  0.45594000000E+02  0.51100000000E-03 0. -1.
    9900012    2    1    2    0    0  0.12188603135E+02 -0.23609410928E+02 -0.17628194021E+02  0.59301959870E+02  0.50000028892E+02 0.  0.
        -12    1    1    2    0    0 -0.12188603135E+02  0.23609410928E+02  0.17628194021E+02  0.31886040130E+02  0.00000000000E+00 0.  1.
         11    1    3    3    0    0 -0.24333844203E+01  0.20834290076E+01 -0.16662756942E+01  0.36108878572E+01  0.51100000000E-03 0. -1.
        -11    1    3    3    0    0  0.27591718320E+02 -0.27874053936E+02 -0.71688277233E+01  0.39870514091E+02  0.51100000000E-03 0.  1.
        -12    1    3    3    0    0 -0.12969730764E+02  0.21812140004E+01 -0.87930906032E+01  0.15820557922E+02  0.00000000000E+00 0.  1.
</event>
<event>
 7    1  0.1113211E-011  0.5930193E+02  0.7816164E-02  0.1266605E+00
        -11   -1    0    0    0    0  0.00000000000E+00  0.00000000000E+00  0.45593999997E+02  0.45594000000E+02  0.51100000000E-03 0. -1.
         11   -1    0    0    0    0 -0.00000000000E+00 -0.00000000000E+00 -0.45593999997E+02  0.45594000000E+02  0.51100000000E-03 0.  1.
    9900012    2    1    2    0    0 -0.42930018861E+01 -0.52612097129E+01  0.31154638774E+02  0.59301926080E+02  0.49999967268E+02 0.  0.
        -12    1    1    2    0    0  0.42930018861E+01  0.52612097129E+01 -0.31154638774E+02  0.31886073920E+02  0.00000000000E+00 0.  1.
         11    1    3    3    0    0 -0.23535202527E+01  0.30812695130E+01  0.41041827795E+01  0.56460247910E+01  0.51100000000E-03 0. -1.
        -11    1    3    3    0    0  0.21117088439E+02 -0.74361919321E+01  0.81383266650E+01  0.23821434377E+02  0.51100000000E-03 0.  1.
        -12    1    3    3    0    0 -0.23056570073E+02 -0.90628729376E+00  0.18912129330E+02  0.29834466913E+02  0.00000000000E+00 0.  1.
</event>
<event>
 7    1  0.1113211E-011  0.5930192E+02  0.7816164E-02  0.1266605E+00
        -11   -1    0    0    0    0  0.00000000000E+00  0.00000000000E+00  0.45593999997E+02  0.45594000000E+02  0.51100000000E-03 0.  1.
         11   -1    0    0    0    0 -0.00000000000E+00 -0.00000000000E+00 -0.45593999997E+02  0.45594000000E+02  0.51100000000E-03 0. -1.
    9900012    2    1    2    0    0  0.10508286314E+02 -0.22648651812E+02 -0.19832708524E+02  0.59301924081E+02  0.49999963621E+02 0.  0.
        -12    1    1    2    0    0 -0.10508286314E+02  0.22648651812E+02  0.19832708524E+02  0.31886075919E+02  0.00000000000E+00 0.  1.
         11    1    3    3    0    0  0.21950115549E+02 -0.16323590943E+02  0.24757141465E+01  0.27466276680E+02  0.51100000000E-03 0. -1.
        -11    1    3    3    0    0 -0.58044930104E+01  0.59924450546E+01 -0.12825032957E+02  0.15299771484E+02  0.51100000000E-03 0.  1.
         12    1    3    3    0    0 -0.56373362248E+01 -0.12317505924E+02 -0.94833897134E+01  0.16535875917E+02  0.00000000000E+00 0. -1.
</event>
<event>
 7    1  0.1113211E-011  0.5930195E+02  0.7816164E-02  0.1266605E+00
        -11   -1    0    0    0    0  0.00000000000E+00  0.00000000000E+00  0.45593999997E+02  0.45594000000E+02  0.51100000000E-03 0.  1.
         11   -1    0    0    0    0 -0.00000000000E+00 -0.00000000000E+00 -0.45593999997E+02  0.45594000000E+02  0.51100000000E-03 0. -1.
    9900012    2    1    2    0    0  0.45902520050E+01 -0.17826423472E+02 -0.26035901742E+02  0.59301953415E+02  0.50000017121E+02 0.  0.
        -12    1    1    2    0    0 -0.45902520050E+01  0.17826423472E+02  0.26035901742E+02  0.31886046585E+02  0.00000000000E+00 0.  1.
         11    1    3    3    0    0 -0.20149042915E+02 -0.78318278411E+01 -0.77889304202E+01  0.22978008945E+02  0.51100000000E-03 0. -1.
        -11    1    3    3    0    0  0.81973303415E+01  0.14167426682E+01  0.11448809376E+01  0.83972696240E+01  0.51100000000E-03 0.  1.
         12    1    3    3    0    0  0.16541964579E+02 -0.11411338299E+02 -0.19391852259E+02  0.27926674846E+02  0.00000000000E+00 0. -1.
</event>
<event>
 7    1  0.1113211E-011  0.5930200E+02  0.7816164E-02  0.1266605E+00
        -11   -1    0    0    0    0  0.00000000000E+00  0.00000000000E+00  0.45593999997E+02  0.45594000000E+02  0.51100000000E-03 0.  1.
         11   -1    0    0    0    0 -0.00000000000E+00 -0.00000000000E+00 -0.45593999997E+02  0.45594000000E+02  0.51100000000E-03 0. -1.
    9900012    2    1    2    0    0 -0.58324318355E+01  0.31337599337E+02 -0.80916474383E+00  0.59301997728E+02  0.50000097936E+02 0.  0.
        -12    1    1    2    0    0  0.58324318355E+01 -0.31337599337E+02  0.80916474383E+00  0.31886002272E+02  0.00000000000E+00 0.  1.
         11    1    3    3    0    0  0.51013293076E+01  0.99166285856E+01 -0.89034243356E+01  0.14270040237E+02  0.51100000000E-03 0. -1.
        -11    1    3    3    0    0 -0.22689313613E+02  0.51665754828E+01 -0.33625019953E+00  0.23272548612E+02  0.51100000000E-03 0.  1.
        -12    1    3    3    0    0  0.11755552470E+02  0.16254395268E+02  0.84305097913E+01  0.21759408879E+02  0.00000000000E+00 0.  1.
</event>
<event>
 7    1  0.1113211E-011  0.5930196E+02  0.7816164E-02  0.1266605E+00
        -11   -1    0    0    0    0  0.00000000000E+00  0.00000000000E+00  0.45593999997E+02  0.45594000000E+02  0.51100000000E-03 0.  1.
         11   -1    0    0    0    0 -0.00000000000E+00 -0.00000000000E+00 -0.45593999997E+02  0.45594000000E+02  0.51100000000E-03 0. -1.
    9900012    2    1    2    0    0 -0.27599644064E+02 -0.68033006107E+01 -0.14446252051E+02  0.59301961520E+02  0.50000031902E+02 0.  0.
        -12    1    1    2    0    0  0.27599644064E+02  0.68033006107E+01  0.14446252051E+02  0.31886038480E+02  0.00000000000E+00 0.  1.
         11    1    3    3    0    0 -0.23647188721E+02  0.13713975231E+02 -0.18796500621E+01  0.27400652103E+02  0.51100000000E-03 0. -1.
        -11    1    3    3    0    0 -0.45825661426E+01 -0.15737711699E+02  0.20417826988E+01  0.16518001054E+02  0.51100000000E-03 0.  1.
         12    1    3    3    0    0  0.63011080051E+00 -0.47795641419E+01 -0.14608384687E+02  0.15383308363E+02  0.00000000000E+00 0. -1.
</event>
<event>
 7    1  0.1113211E-011  0.5930195E+02  0.7816164E-02  0.1266605E+00
        -11   -1    0    0    0    0  0.00000000000E+00  0.00000000000E+00  0.45593999997E+02  0.45594000000E+02  0.51100000000E-03 0.  1.
         11   -1    0    0    0    0 -0.00000000000E+00 -0.00000000000E+00 -0.45593999997E+02  0.45594000000E+02  0.51100000000E-03 0. -1.
    9900012    2    1    2    0    0 -0.31832923862E+02 -0.17484002007E+01  0.57306186806E+00  0.59301947489E+02  0.50000006312E+02 0.  0.
        -12    1    1    2    0    0  0.31832923862E+02  0.17484002007E+01 -0.57306186806E+00  0.31886052511E+02  0.00000000000E+00 0.  1.
         11    1    3    3    0    0 -0.18495830784E+02 -0.14665847657E+02 -0.54447894690E+01  0.24224544919E+02  0.51100000000E-03 0. -1.
        -11    1    3    3    0    0  0.75176324368E+01  0.90889555663E+01 -0.27850793457E+01  0.12119429771E+02  0.51100000000E-03 0.  1.
        -12    1    3    3    0    0 -0.20854725515E+02  0.38284918904E+01  0.88029306827E+01  0.22957972799E+02  0.00000000000E+00 0.  1.
</event>
<event>
 7    1  0.1113211E-011  0.5930194E+02  0.7816164E-02  0.1266605E+00
        -11   -1    0    0    0    0  0.00000000000E+00  0.00000000000E+00  0.45593999997E+02  0.45594000000E+02  0.51100000000E-03 0.  1.
         11   -1    0    0    0    0 -0.00000000000E+00 -0.00000000000E+00 -0.45593999997E+02  0.45594000000E+02  0.51100000000E-03 0. -1.
    9900012    2    1    2    0    0  0.18314228097E+02  0.88270274030E+01 -0.24564063275E+02  0.59301943985E+02  0.49999999923E+02 0.  0.
        -12    1    1    2    0    0 -0.18314228097E+02 -0.88270274030E+01  0.24564063275E+02  0.31886056015E+02  0.00000000000E+00 0.  1.
         11    1    3    3    0    0 -0.38154358797E+01 -0.32574722748E+00 -0.20567636918E+02  0.20921074323E+02  0.51100000000E-03 0. -1.
        -11    1    3    3    0    0  0.19013424199E+02 -0.80764027590E+01 -0.24981069826E+01  0.20808150327E+02  0.51100000000E-03 0.  1.
        -12    1    3    3    0    0  0.31162397786E+01  0.17229177389E+02 -0.14983193749E+01  0.17572719335E+02  0.00000000000E+00 0.  1.
</event>
<event>
 7    1  0.1113211E-011  0.5930202E+02  0.7816164E-02  0.1266604E+00
        -11   -1    0    0    0    0  0.00000000000E+00  0.00000000000E+00  0.45593999997E+02  0.45594000000E+02  0.51100000000E-03 0.  1.
         11   -1    0    0    0    0 -0.00000000000E+00 -0.00000000000E+00 -0.45593999997E+02  0.45594000000E+02  0.51100000000E-03 0. -1.
    9900012    2    1    2    0    0 -0.19903769781E+02  0.24776246202E+02 -0.25870957930E+01  0.59302023584E+02  0.50000145091E+02 0.  0.
        -12    1    1    2    0    0  0.19903769781E+02 -0.24776246202E+02  0.25870957930E+01  0.31885976416E+02  0.00000000000E+00 0.  1.
         11    1    3    3    0    0 -0.16105756968E+02  0.25970228806E+01 -0.21780981955E+02  0.27213068746E+02  0.51100000000E-03 0. -1.
        -11    1    3    3    0    0 -0.44275089046E+01  0.10794322356E+01  0.41916429387E+01  0.61917590262E+01  0.51100000000E-03 0.  1.
         12    1    3    3    0    0  0.62949609144E+00  0.21099791086E+02  0.15002243223E+02  0.25897195812E+02  0.00000000000E+00 0. -1.
</event>
<event>
 7    1  0.1113211E-011  0.5930198E+02  0.7816164E-02  0.1266605E+00
        -11   -1    0    0    0    0  0.00000000000E+00  0.00000000000E+00  0.45593999997E+02  0.45594000000E+02  0.51100000000E-03 0. -1.
         11   -1    0    0    0    0 -0.00000000000E+00 -0.00000000000E+00 -0.45593999997E+02  0.45594000000E+02  0.51100000000E-03 0.  1.
    9900012    2    1    2    0    0  0.24806395405E+02  0.12809513986E+01  0.19993001248E+02  0.59301981302E+02  0.50000067979E+02 0.  0.
        -12    1    1    2    0    0 -0.24806395405E+02 -0.12809513986E+01 -0.19993001248E+02  0.31886018698E+02  0.00000000000E+00 0.  1.
         11    1    3    3    0    0  0.15796101194E+02  0.11408072545E+01  0.95004148532E+01  0.18468246716E+02  0.51100000000E-03 0. -1.
        -11    1    3    3    0    0  0.71672196984E+01 -0.34955328784E+01 -0.13942072528E+02  0.16061418833E+02  0.51100000000E-03 0.  1.
        -12    1    3    3    0    0  0.18430745129E+01  0.36356770226E+01  0.24434658923E+02  0.24772315753E+02  0.00000000000E+00 0.  1.
</event>
<event>
 7    1  0.1113211E-011  0.5930196E+02  0.7816164E-02  0.1266605E+00
        -11   -1    0    0    0    0  0.00000000000E+00  0.00000000000E+00  0.45593999997E+02  0.45594000000E+02  0.51100000000E-03 0.  1.
         11   -1    0    0    0    0 -0.00000000000E+00 -0.00000000000E+00 -0.45593999997E+02  0.45594000000E+02  0.51100000000E-03 0. -1.
    9900012    2    1    2    0    0  0.82764589848E+01 -0.18086952492E+01 -0.30740016882E+02  0.59301956191E+02  0.50000022184E+02 0.  0.
        -12    1    1    2    0    0 -0.82764589848E+01  0.18086952492E+01  0.30740016882E+02  0.31886043809E+02  0.00000000000E+00 0.  1.
         11    1    3    3    0    0 -0.23760610377E+01 -0.22043549236E+02 -0.78963467153E+01  0.23535420554E+02  0.51100000000E-03 0. -1.
        -11    1    3    3    0    0  0.13129909680E+02  0.15839381328E+02 -0.22814311028E+02  0.30720893819E+02  0.51100000000E-03 0.  1.
         12    1    3    3    0    0 -0.24773896570E+01  0.43954726582E+01 -0.29359138982E-01  0.50456418185E+01  0.00000000000E+00 0. -1.
</event>
<event>
 7    1  0.1113211E-011  0.5930192E+02  0.7816164E-02  0.1266605E+00
        -11   -1    0    0    0    0  0.00000000000E+00  0.00000000000E+00  0.45593999997E+02  0.45594000000E+02  0.51100000000E-03 0. -1.
         11   -1    0    0    0    0 -0.00000000000E+00 -0.00000000000E+00 -0.45593999997E+02  0.45594000000E+02  0.51100000000E-03 0.  1.
    9900012    2    1    2    0    0 -0.45762280625E+01 -0.21772822287E+02  0.22841284863E+02  0.59301922351E+02  0.49999960468E+02 0.  0.
        -12    1    1    2    0    0  0.45762280625E+01  0.21772822287E+02 -0.22841284863E+02  0.31886077649E+02  0.00000000000E+00 0.  1.
         11    1    3    3    0    0 -0.15487843232E+02 -0.23464731762E+02  0.52230707390E+01  0.28596282850E+02  0.51100000000E-03 0. -1.
        -11    1    3    3    0    0  0.10585104102E+02 -0.87921110708E+01  0.13947432588E+02  0.19592767083E+02  0.51100000000E-03 0.  1.
         12    1    3    3    0    0  0.32651106731E+00  0.10484020546E+02  0.36707815363E+01  0.11112872418E+02  0.00000000000E+00 0. -1.
</event>
<event>
 7    1  0.1113211E-011  0.5930195E+02  0.7816164E-02  0.1266605E+00
        -11   -1    0    0    0    0  0.00000000000E+00  0.00000000000E+00  0.45593999997E+02  0.45594000000E+02  0.51100000000E-03 0.  1.
         11   -1    0    0    0    0 -0.00000000000E+00 -0.00000000000E+00 -0.45593999997E+02  0.45594000000E+02  0.51100000000E-03 0. -1.
    9900012    2    1    2    0    0  0.96648138306E+01 -0.24212251318E+02 -0.18359702071E+02  0.59301946616E+02  0.50000004720E+02 0.  0.
        -12    1    1    2    0    0 -0.96648138306E+01  0.24212251318E+02  0.18359702071E+02  0.31886053384E+02  0.00000000000E+00 0.  1.
         11    1    3    3    0    0 -0.40403694147E+00 -0.80382619409E+01 -0.31825059211E+02  0.32826990342E+02  0.51100000000E-03 0. -1.
        -11    1    3    3    0    0  0.10743353798E+02 -0.64074208792E+01  0.47912908478E+01  0.13395191727E+02  0.51100000000E-03 0.  1.
         12    1    3    3    0    0 -0.67450302582E+00 -0.97665684981E+01  0.86740662917E+01  0.13079764547E+02  0.00000000000E+00 0. -1.
</event>
<event>
 7    1  0.1113211E-011  0.5930195E+02  0.7816164E-02  0.1266605E+00
        -11   -1    0    0    0    0  0.00000000000E+00  0.00000000000E+00  0.45593999997E+02  0.45594000000E+02  0.51100000000E-03 0.  1.
         11   -1    0    0    0    0 -0.00000000000E+00 -0.00000000000E+00 -0.45593999997E+02  0.45594000000E+02  0.51100000000E-03 0. -1.
    9900012    2    1    2    0    0 -0.11635860237E+02  0.16332935827E+02 -0.24790368678E+02  0.59301946381E+02  0.50000004292E+02 0.  0.
        -12    1    1    2    0    0  0.11635860237E+02 -0.16332935827E+02  0.24790368678E+02  0.31886053619E+02  0.00000000000E+00 0.  1.
         11    1    3    3    0    0 -0.11779126886E+02 -0.18072566738E+01 -0.57153995974E+01  0.13216648581E+02  0.51100000000E-03 0. -1.
        -11    1    3    3    0    0 -0.28129939035E+00  0.19006213590E+02 -0.29784103228E+02  0.35332818876E+02  0.51100000000E-03 0.  1.
        -12    1    3    3    0    0  0.42456603924E+00 -0.86602108923E+00  0.10709134147E+02  0.10752478924E+02  0.00000000000E+00 0.  1.
</event>
<event>
 7    1  0.1113211E-011  0.5930197E+02  0.7816164E-02  0.1266605E+00
        -11   -1    0    0    0    0  0.00000000000E+00  0.00000000000E+00  0.45593999997E+02  0.45594000000E+02  0.51100000000E-03 0.  1.
         11   -1    0    0    0    0 -0.00000000000E+00 -0.00000000000E+00 -0.45593999997E+02  0.45594000000E+02  0.51100000000E-03 0. -1.
    9900012    2    1    2    0    0 -0.21041470124E+01 -0.30694500901E+02 -0.83749099064E+01  0.59301969577E+02  0.50000046595E+02 0.  0.
        -12    1    1    2    0    0  0.21041470124E+01  0.30694500901E+02  0.83749099064E+01  0.31886030423E+02  0.00000000000E+00 0.  1.
         11    1    3    3    0    0  0.47055787443E+01 -0.87317390661E+00 -0.10593136742E+02  0.11624089224E+02  0.51100000000E-03 0. -1.
        -11    1    3    3    0    0 -0.21042423236E+02 -0.24093561064E+02 -0.98962478107E+00  0.32004103141E+02  0.51100000000E-03 0.  1.
        -12    1    3    3    0    0  0.14232697479E+02 -0.57277659307E+01  0.32078516167E+01  0.15673777212E+02  0.00000000000E+00 0.  1.
</event>
<event>
 7    1  0.1113211E-011  0.5930197E+02  0.7816164E-02  0.1266605E+00
        -11   -1    0    0    0    0  0.00000000000E+00  0.00000000000E+00  0.45593999997E+02  0.45594000000E+02  0.51100000000E-03 0.  1.
         11   -1    0    0    0    0 -0.00000000000E+00 -0.00000000000E+00 -0.45593999997E+02  0.45594000000E+02  0.51100000000E-03 0. -1.
    9900012    2    1    2    0    0  0.21112069213E+02 -0.20974260443E+02 -0.11449023110E+02  0.59301965475E+02  0.50000039114E+02 0.  0.
        -12    1    1    2    0    0 -0.21112069213E+02  0.20974260443E+02  0.11449023110E+02  0.31886034525E+02  0.00000000000E+00 0.  1.
         11    1    3    3    0    0  0.11995484571E+02 -0.23038665455E+02 -0.16799273686E+02  0.30933595858E+02  0.51100000000E-03 0. -1.
        -11    1    3    3    0    0  0.93688585527E+01  0.21494255029E+01  0.15487323857E+02  0.18227801324E+02  0.51100000000E-03 0.  1.
        -12    1    3    3    0    0 -0.25227391094E+00 -0.85020490922E-01 -0.10137073281E+02  0.10140568293E+02  0.00000000000E+00 0.  1.
</event>
<event>
 7    1  0.1113211E-011  0.5930194E+02  0.7816164E-02  0.1266605E+00
        -11   -1    0    0    0    0  0.00000000000E+00  0.00000000000E+00  0.45593999997E+02  0.45594000000E+02  0.51100000000E-03 0. -1.
         11   -1    0    0    0    0 -0.00000000000E+00 -0.00000000000E+00 -0.45593999997E+02  0.45594000000E+02  0.51100000000E-03 0.  1.
    9900012    2    1    2    0    0  0.28268771169E+02 -0.11564718055E+02  0.91572061781E+01  0.59301944238E+02  0.50000000383E+02 0.  0.
        -12    1    1    2    0    0 -0.28268771169E+02  0.11564718055E+02 -0.91572061781E+01  0.31886055762E+02  0.00000000000E+00 0.  1.
         11    1    3    3    0    0  0.22475569214E+02 -0.28609337535E+01  0.17820862134E+02  0.28825670519E+02  0.51100000000E-03 0. -1.
        -11    1    3    3    0    0 -0.10225549182E+02 -0.79817175774E+01 -0.20587804411E+01  0.13134239556E+02  0.51100000000E-03 0.  1.
        -12    1    3    3    0    0  0.16018751136E+02 -0.72206672451E+00 -0.66048755145E+01  0.17342034162E+02  0.00000000000E+00 0.  1.
</event>
<event>
 7    1  0.1113211E-011  0.5930190E+02  0.7816164E-02  0.1266605E+00
        -11   -1    0    0    0    0  0.00000000000E+00  0.00000000000E+00  0.45593999997E+02  0.45594000000E+02  0.51100000000E-03 0. -1.
         11   -1    0    0    0    0 -0.00000000000E+00 -0.00000000000E+00 -0.45593999997E+02  0.45594000000E+02  0.51100000000E-03 0.  1.
    9900012    2    1    2    0    0  0.96126243694E+01 -0.30275637427E+02  0.27760212665E+01  0.59301904865E+02  0.49999928576E+02 0.  0.
        -12    1    1    2    0    0 -0.96126243694E+01  0.30275637427E+02 -0.27760212665E+01  0.31886095135E+02  0.00000000000E+00 0.  1.
         11    1    3    3    0    0  0.99301970951E+01  0.55263774719E+00  0.10459224076E+01  0.10000408830E+02  0.51100000000E-03 0. -1.
        -11    1    3    3    0    0 -0.38120180692E+01 -0.25588734111E+02 -0.16045664438E+02  0.30443031102E+02  0.51100000000E-03 0.  1.
        -12    1    3    3    0    0  0.34944453435E+01 -0.52395410636E+01  0.17775763297E+02  0.18858464932E+02  0.00000000000E+00 0.  1.
</event>
<event>
 7    1  0.1113211E-011  0.5930194E+02  0.7816164E-02  0.1266605E+00
        -11   -1    0    0    0    0  0.00000000000E+00  0.00000000000E+00  0.45593999997E+02  0.45594000000E+02  0.51100000000E-03 0.  1.
         11   -1    0    0    0    0 -0.00000000000E+00 -0.00000000000E+00 -0.45593999997E+02  0.45594000000E+02  0.51100000000E-03 0. -1.
    9900012    2    1    2    0    0  0.24236904358E+02  0.15374393441E+02 -0.13889604067E+02  0.59301943365E+02  0.49999998792E+02 0.  0.
        -12    1    1    2    0    0 -0.24236904358E+02 -0.15374393441E+02  0.13889604067E+02  0.31886056635E+02  0.00000000000E+00 0.  1.
         11    1    3    3    0    0  0.15379030420E+02  0.23474446988E+01 -0.28741099217E+02  0.32681429861E+02  0.51100000000E-03 0. -1.
        -11    1    3    3    0    0  0.81864227572E+01  0.16564681400E+02  0.12780012882E+02  0.22466306260E+02  0.51100000000E-03 0.  1.
         12    1    3    3    0    0  0.67145118103E+00 -0.35377326574E+01  0.20714822678E+01  0.41542072444E+01  0.00000000000E+00 0. -1.
</event>
<event>
 7    1  0.1113211E-011  0.5930196E+02  0.7816164E-02  0.1266605E+00
        -11   -1    0    0    0    0  0.00000000000E+00  0.00000000000E+00  0.45593999997E+02  0.45594000000E+02  0.51100000000E-03 0. -1.
         11   -1    0    0    0    0 -0.00000000000E+00 -0.00000000000E+00 -0.45593999997E+02  0.45594000000E+02  0.51100000000E-03 0.  1.
    9900012    2    1    2    0    0  0.20186307834E+02 -0.24676217779E+02  0.56307337706E+00  0.59301956039E+02  0.50000021906E+02 0.  0.
        -12    1    1    2    0    0 -0.20186307834E+02  0.24676217779E+02 -0.56307337706E+00  0.31886043961E+02  0.00000000000E+00 0.  1.
         11    1    3    3    0    0  0.13496330859E+02 -0.15642045788E+02  0.23656643946E+02  0.31407982205E+02  0.51100000000E-03 0. -1.
        -11    1    3    3    0    0  0.39088059475E+01 -0.60007951550E+01 -0.22649455225E+02  0.23754707505E+02  0.51100000000E-03 0.  1.
        -12    1    3    3    0    0  0.27811710270E+01 -0.30333768357E+01 -0.44411534434E+00  0.41392663296E+01  0.00000000000E+00 0.  1.
</event>
<event>
 7    1  0.1113211E-011  0.5930196E+02  0.7816164E-02  0.1266605E+00
        -11   -1    0    0    0    0  0.00000000000E+00  0.00000000000E+00  0.45593999997E+02  0.45594000000E+02  0.51100000000E-03 0. -1.
         11   -1    0    0    0    0 -0.00000000000E+00 -0.00000000000E+00 -0.45593999997E+02  0.45594000000E+02  0.51100000000E-03 0.  1.
    9900012    2    1    2    0    0 -0.59867676413E+01 -0.25235719882E+02  0.18548230906E+02  0.59301955804E+02  0.50000021477E+02 0.  0.
        -12    1    1    2    0    0  0.59867676413E+01  0.25235719882E+02 -0.18548230906E+02  0.31886044196E+02  0.00000000000E+00 0.  1.
         11    1    3    3    0    0 -0.99173338657E+01 -0.31943913118E+02  0.17264594273E+01  0.33492503023E+02  0.51100000000E-03 0. -1.
        -11    1    3    3    0    0 -0.18034743469E+01  0.11740526050E+02  0.11271828985E+02  0.16375182459E+02  0.51100000000E-03 0.  1.
         12    1    3    3    0    0  0.57340405712E+01 -0.50323328138E+01  0.55499424938E+01  0.94342703218E+01  0.00000000000E+00 0. -1.
</event>
<event>
 7    1  0.1113211E-011  0.5930194E+02  0.7816164E-02  0.1266605E+00
        -11   -1    0    0    0    0  0.00000000000E+00  0.00000000000E+00  0.45593999997E+02  0.45594000000E+02  0.51100000000E-03 0.  1.
         11   -1    0    0    0    0 -0.00000000000E+00 -0.00000000000E+00 -0.45593999997E+02  0.45594000000E+02  0.51100000000E-03 0. -1.
    9900012    2    1    2    0    0 -0.20854645258E+02 -0.95871820964E+01 -0.22133465804E+02  0.59301943520E+02  0.49999999073E+02 0.  0.
        -12    1    1    2    0    0  0.20854645258E+02  0.95871820964E+01  0.22133465804E+02  0.31886056480E+02  0.00000000000E+00 0.  1.
         11    1    3    3    0    0 -0.16853709882E+02 -0.21654372908E+02 -0.65620767729E+01  0.28213830911E+02  0.51100000000E-03 0. -1.
        -11    1    3    3    0    0  0.37500346684E+01  0.22026755830E+01 -0.17819813734E+02  0.18342854236E+02  0.51100000000E-03 0.  1.
         12    1    3    3    0    0 -0.77509700449E+01  0.98645152289E+01  0.22484247037E+01  0.12745258373E+02  0.00000000000E+00 0. -1.
</event>
<event>
 7    1  0.1113211E-011  0.5930194E+02  0.7816164E-02  0.1266605E+00
        -11   -1    0    0    0    0  0.00000000000E+00  0.00000000000E+00  0.45593999997E+02  0.45594000000E+02  0.51100000000E-03 0.  1.
         11   -1    0    0    0    0 -0.00000000000E+00 -0.00000000000E+00 -0.45593999997E+02  0.45594000000E+02  0.51100000000E-03 0. -1.
    9900012    2    1    2    0    0  0.13549536607E+02 -0.16555298587E+02 -0.23644295917E+02  0.59301943753E+02  0.49999999499E+02 0.  0.
        -12    1    1    2    0    0 -0.13549536607E+02  0.16555298587E+02  0.23644295917E+02  0.31886056247E+02  0.00000000000E+00 0.  1.
         11    1    3    3    0    0 -0.11013948061E+02  0.22429694197E+01  0.83282352606E+01  0.13989191061E+02  0.51100000000E-03 0. -1.
        -11    1    3    3    0    0  0.30634752839E+01 -0.65646629318E+01 -0.56165490262E+01  0.91665317022E+01  0.51100000000E-03 0.  1.
         12    1    3    3    0    0  0.21500009384E+02 -0.12233605075E+02 -0.26355982152E+02  0.36146220990E+02  0.00000000000E+00 0. -1.
</event>
<event>
 7    1  0.1113211E-011  0.5930194E+02  0.7816164E-02  0.1266605E+00
        -11   -1    0    0    0    0  0.00000000000E+00  0.00000000000E+00  0.45593999997E+02  0.45594000000E+02  0.51100000000E-03 0. -1.
         11   -1    0    0    0    0 -0.00000000000E+00 -0.00000000000E+00 -0.45593999997E+02  0.45594000000E+02  0.51100000000E-03 0.  1.
    9900012    2    1    2    0    0 -0.14972467929E+02  0.17015307702E+02  0.22428232529E+02  0.59301935545E+02  0.49999984529E+02 0.  0.
        -12    1    1    2    0    0  0.14972467929E+02 -0.17015307702E+02 -0.22428232529E+02  0.31886064455E+02  0.00000000000E+00 0.  1.
         11    1    3    3    0    0 -0.27823833598E+02 -0.23596628001E+01  0.99157166801E+01  0.29631995582E+02  0.51100000000E-03 0. -1.
        -11    1    3    3    0    0  0.14389010865E+02  0.12423420279E+02  0.57754643888E+01  0.19868089850E+02  0.51100000000E-03 0.  1.
         12    1    3    3    0    0 -0.15376451962E+01  0.69515502230E+01  0.67370514600E+01  0.98018501125E+01  0.00000000000E+00 0. -1.
</event>
<event>
 7    1  0.1113211E-011  0.5930193E+02  0.7816164E-02  0.1266605E+00
        -11   -1    0    0    0    0  0.00000000000E+00  0.00000000000E+00  0.45593999997E+02  0.45594000000E+02  0.51100000000E-03 0. -1.
         11   -1    0    0    0    0 -0.00000000000E+00 -0.00000000000E+00 -0.45593999997E+02  0.45594000000E+02  0.51100000000E-03 0.  1.
    9900012    2    1    2    0    0 -0.31725987058E+02  0.19860326174E+01 -0.24977153409E+01  0.59301934669E+02  0.49999982931E+02 0.  0.
        -12    1    1    2    0    0  0.31725987058E+02 -0.19860326174E+01  0.24977153409E+01  0.31886065331E+02  0.00000000000E+00 0.  1.
         11    1    3    3    0    0 -0.31738716524E+02  0.67110895664E+00 -0.11616958898E+01  0.31767059219E+02  0.51100000000E-03 0. -1.
        -11    1    3    3    0    0  0.69328650282E+01  0.12321768088E+02 -0.29218303918E+01  0.14437024604E+02  0.51100000000E-03 0.  1.
        -12    1    3    3    0    0 -0.69201355621E+01 -0.11006844427E+02  0.15858109408E+01  0.13097850846E+02  0.00000000000E+00 0.  1.
</event>
<event>
 7    1  0.1113211E-011  0.5930192E+02  0.7816164E-02  0.1266605E+00
        -11   -1    0    0    0    0  0.00000000000E+00  0.00000000000E+00  0.45593999997E+02  0.45594000000E+02  0.51100000000E-03 0.  1.
         11   -1    0    0    0    0 -0.00000000000E+00 -0.00000000000E+00 -0.45593999997E+02  0.45594000000E+02  0.51100000000E-03 0. -1.
    9900012    2    1    2    0    0  0.25031523272E+02  0.78741475419E+01 -0.18114708999E+02  0.59301920923E+02  0.49999957862E+02 0.  0.
        -12    1    1    2    0    0 -0.25031523272E+02 -0.78741475419E+01  0.18114708999E+02  0.31886079077E+02  0.00000000000E+00 0.  1.
         11    1    3    3    0    0  0.23635872881E+01  0.69477951031E+01 -0.94813528989E+01  0.11989764581E+02  0.51100000000E-03 0. -1.
        -11    1    3    3    0    0  0.71078129201E+01  0.48376562071E+01  0.15854856633E+02  0.18036086083E+02  0.51100000000E-03 0.  1.
        -12    1    3    3    0    0  0.15560123063E+02 -0.39113037683E+01 -0.24488212733E+02  0.29276070258E+02  0.00000000000E+00 0.  1.
</event>
<event>
 7    1  0.1113211E-011  0.5930195E+02  0.7816164E-02  0.1266605E+00
        -11   -1    0    0    0    0  0.00000000000E+00  0.00000000000E+00  0.45593999997E+02  0.45594000000E+02  0.51100000000E-03 0.  1.
         11   -1    0    0    0    0 -0.00000000000E+00 -0.00000000000E+00 -0.45593999997E+02  0.45594000000E+02  0.51100000000E-03 0. -1.
    9900012    2    1    2    0    0 -0.23935282104E+02  0.62810435093E+01  0.20108977016E+02  0.59301949859E+02  0.50000010635E+02 0.  0.
        -12    1    1    2    0    0  0.23935282104E+02 -0.62810435093E+01 -0.20108977016E+02  0.31886050141E+02  0.00000000000E+00 0.  1.
         11    1    3    3    0    0  0.95407703632E+01  0.14346278812E+02 -0.22165927185E+01  0.17371105273E+02  0.51100000000E-03 0.  1.
        -11    1    3    3    0    0 -0.28763409514E+02 -0.98339954763E+01  0.19989011303E+02  0.36381338170E+02  0.51100000000E-03 0. -1.
        -12    1    3    3    0    0 -0.47126429526E+01  0.17687601734E+01  0.23365584314E+01  0.55495064153E+01  0.00000000000E+00 0.  1.
</event>
<event>
 7    1  0.1113211E-011  0.5930195E+02  0.7816164E-02  0.1266605E+00
        -11   -1    0    0    0    0  0.00000000000E+00  0.00000000000E+00  0.45593999997E+02  0.45594000000E+02  0.51100000000E-03 0.  1.
         11   -1    0    0    0    0 -0.00000000000E+00 -0.00000000000E+00 -0.45593999997E+02  0.45594000000E+02  0.51100000000E-03 0. -1.
    9900012    2    1    2    0    0  0.18002601765E+02  0.26293908459E+02  0.11210636972E+01  0.59301951700E+02  0.50000013992E+02 0.  0.
        -12    1    1    2    0    0 -0.18002601765E+02 -0.26293908459E+02 -0.11210636972E+01  0.31886048300E+02  0.00000000000E+00 0.  1.
         11    1    3    3    0    0  0.67228212287E+01 -0.33306743424E+01  0.12746780133E+02  0.14790879652E+02  0.51100000000E-03 0.  1.
        -11    1    3    3    0    0 -0.77124087735E+00  0.23122694175E+02 -0.18090392853E+02  0.29368624623E+02  0.51100000000E-03 0. -1.
         12    1    3    3    0    0  0.12051021414E+02  0.65018886263E+01  0.64646764170E+01  0.15142447425E+02  0.00000000000E+00 0. -1.
</event>
<event>
 7    1  0.1113211E-011  0.5930198E+02  0.7816164E-02  0.1266605E+00
        -11   -1    0    0    0    0  0.00000000000E+00  0.00000000000E+00  0.45593999997E+02  0.45594000000E+02  0.51100000000E-03 0.  1.
         11   -1    0    0    0    0 -0.00000000000E+00 -0.00000000000E+00 -0.45593999997E+02  0.45594000000E+02  0.51100000000E-03 0. -1.
    9900012    2    1    2    0    0  0.31044810684E+02  0.58374017286E+01 -0.43431249317E+01  0.59301980124E+02  0.50000065830E+02 0.  0.
        -12    1    1    2    0    0 -0.31044810684E+02 -0.58374017286E+01  0.43431249317E+01  0.31886019876E+02  0.00000000000E+00 0.  1.
         11    1    3    3    0    0  0.18967898952E+02  0.15873097670E+02 -0.19916930943E+02  0.31755638219E+02  0.51100000000E-03 0. -1.
        -11    1    3    3    0    0 -0.34944927452E+01 -0.42032740486E+01  0.12678025836E+01  0.56112668736E+01  0.51100000000E-03 0.  1.
         12    1    3    3    0    0  0.15571404478E+02 -0.58324218928E+01  0.14306003427E+02  0.21935075031E+02  0.00000000000E+00 0. -1.
</event>
<event>
 7    1  0.1113211E-011  0.5930195E+02  0.7816164E-02  0.1266605E+00
        -11   -1    0    0    0    0  0.00000000000E+00  0.00000000000E+00  0.45593999997E+02  0.45594000000E+02  0.51100000000E-03 0. -1.
         11   -1    0    0    0    0 -0.00000000000E+00 -0.00000000000E+00 -0.45593999997E+02  0.45594000000E+02  0.51100000000E-03 0.  1.
    9900012    2    1    2    0    0  0.25886184204E+02  0.84470654296E+01 -0.16591340048E+02  0.59301952712E+02  0.50000015839E+02 0.  0.
        -12    1    1    2    0    0 -0.25886184204E+02 -0.84470654296E+01  0.16591340048E+02  0.31886047288E+02  0.00000000000E+00 0.  1.
         11    1    3    3    0    0  0.32825663378E+01 -0.94202984351E+01 -0.17608836970E+01  0.10130053111E+02  0.51100000000E-03 0. -1.
        -11    1    3    3    0    0  0.51934768849E+00  0.23842329239E+02 -0.55653714563E+01  0.24488767737E+02  0.51100000000E-03 0.  1.
        -12    1    3    3    0    0  0.22084270178E+02 -0.59749653747E+01 -0.92650848950E+01  0.24683131864E+02  0.00000000000E+00 0.  1.
</event>
<event>
 7    1  0.1113211E-011  0.5930193E+02  0.7816164E-02  0.1266605E+00
        -11   -1    0    0    0    0  0.00000000000E+00  0.00000000000E+00  0.45593999997E+02  0.45594000000E+02  0.51100000000E-03 0.  1.
         11   -1    0    0    0    0 -0.00000000000E+00 -0.00000000000E+00 -0.45593999997E+02  0.45594000000E+02  0.51100000000E-03 0. -1.
    9900012    2    1    2    0    0 -0.26018393518E+02 -0.12693846840E+02 -0.13365277392E+02  0.59301934257E+02  0.49999982180E+02 0.  0.
        -12    1    1    2    0    0  0.26018393518E+02  0.12693846840E+02  0.13365277392E+02  0.31886065743E+02  0.00000000000E+00 0.  1.
         11    1    3    3    0    0 -0.36530277573E+02 -0.19713437290E+02 -0.18035802305E+02  0.45258932316E+02  0.51100000000E-03 0. -1.
        -11    1    3    3    0    0  0.75473749379E+01  0.69715428248E+01  0.37707503134E+01  0.10944580211E+02  0.51100000000E-03 0.  1.
         12    1    3    3    0    0  0.29645091179E+01  0.48047625425E-01  0.89977459959E+00  0.30984217296E+01  0.00000000000E+00 0. -1.
</event>
<event>
 7    1  0.1113211E-011  0.5930192E+02  0.7816164E-02  0.1266605E+00
        -11   -1    0    0    0    0  0.00000000000E+00  0.00000000000E+00  0.45593999997E+02  0.45594000000E+02  0.51100000000E-03 0. -1.
         11   -1    0    0    0    0 -0.00000000000E+00 -0.00000000000E+00 -0.45593999997E+02  0.45594000000E+02  0.51100000000E-03 0.  1.
    9900012    2    1    2    0    0  0.16339799485E+02 -0.27057041018E+02  0.42011329092E+01  0.59301921006E+02  0.49999958014E+02 0.  0.
        -12    1    1    2    0    0 -0.16339799485E+02  0.27057041018E+02 -0.42011329092E+01  0.31886078994E+02  0.00000000000E+00 0.  1.
         11    1    3    3    0    0  0.70562300634E+01 -0.34740259678E+02 -0.77853739994E+01  0.36294463404E+02  0.51100000000E-03 0. -1.
        -11    1    3    3    0    0  0.47954233833E+01  0.10986370916E+00  0.13270652279E+02  0.14110930786E+02  0.51100000000E-03 0.  1.
         12    1    3    3    0    0  0.44881460387E+01  0.75733549503E+01 -0.12841453706E+01  0.88965268167E+01  0.00000000000E+00 0. -1.
</event>
<event>
 7    1  0.1113211E-011  0.5930211E+02  0.7816164E-02  0.1266604E+00
        -11   -1    0    0    0    0  0.00000000000E+00  0.00000000000E+00  0.45593999997E+02  0.45594000000E+02  0.51100000000E-03 0. -1.
         11   -1    0    0    0    0 -0.00000000000E+00 -0.00000000000E+00 -0.45593999997E+02  0.45594000000E+02  0.51100000000E-03 0.  1.
    9900012    2    1    2    0    0  0.21377609501E+02  0.91433519754E+00  0.23640468097E+02  0.59302110822E+02  0.50000304192E+02 0.  0.
        -12    1    1    2    0    0 -0.21377609501E+02 -0.91433519754E+00 -0.23640468097E+02  0.31885889178E+02  0.00000000000E+00 0.  1.
         11    1    3    3    0    0  0.31846908312E+02 -0.28465021039E+01  0.21694401881E+02  0.38639037469E+02  0.51100000000E-03 0. -1.
        -11    1    3    3    0    0  0.12499581801E+01  0.72038924113E+01 -0.24046367420E+01  0.76968005982E+01  0.51100000000E-03 0.  1.
         12    1    3    3    0    0 -0.11719256992E+02 -0.34430551099E+01  0.43507029581E+01  0.12966272755E+02  0.00000000000E+00 0. -1.
</event>
<event>
 7    1  0.1113211E-011  0.5930196E+02  0.7816164E-02  0.1266605E+00
        -11   -1    0    0    0    0  0.00000000000E+00  0.00000000000E+00  0.45593999997E+02  0.45594000000E+02  0.51100000000E-03 0. -1.
         11   -1    0    0    0    0 -0.00000000000E+00 -0.00000000000E+00 -0.45593999997E+02  0.45594000000E+02  0.51100000000E-03 0.  1.
    9900012    2    1    2    0    0  0.14303607585E+02 -0.45626037655E+01  0.28130214689E+02  0.59301960398E+02  0.50000029856E+02 0.  0.
        -12    1    1    2    0    0 -0.14303607585E+02  0.45626037655E+01 -0.28130214689E+02  0.31886039602E+02  0.00000000000E+00 0.  1.
         11    1    3    3    0    0  0.18111609850E+02  0.17103427247E+02  0.13642936265E+02  0.28402241904E+02  0.51100000000E-03 0.  1.
        -11    1    3    3    0    0 -0.85281296485E+01 -0.14147179695E+02  0.36982484761E+01  0.16927750314E+02  0.51100000000E-03 0. -1.
        -12    1    3    3    0    0  0.47201273832E+01 -0.75188513174E+01  0.10789029947E+02  0.13971968181E+02  0.00000000000E+00 0.  1.
</event>
<event>
 7    1  0.1113211E-011  0.5930193E+02  0.7816164E-02  0.1266605E+00
        -11   -1    0    0    0    0  0.00000000000E+00  0.00000000000E+00  0.45593999997E+02  0.45594000000E+02  0.51100000000E-03 0.  1.
         11   -1    0    0    0    0 -0.00000000000E+00 -0.00000000000E+00 -0.45593999997E+02  0.45594000000E+02  0.51100000000E-03 0. -1.
    9900012    2    1    2    0    0 -0.66339168470E+01 -0.22265716199E+02 -0.21839201607E+02  0.59301926278E+02  0.49999967629E+02 0.  0.
        -12    1    1    2    0    0  0.66339168470E+01  0.22265716199E+02  0.21839201607E+02  0.31886073722E+02  0.00000000000E+00 0.  1.
         11    1    3    3    0    0 -0.88683234927E+01 -0.26864302618E+02 -0.17054388812E+00  0.28290758248E+02  0.51100000000E-03 0. -1.
        -11    1    3    3    0    0  0.10467591175E+02  0.23033052432E+01 -0.41031475541E+01  0.11476563082E+02  0.51100000000E-03 0.  1.
         12    1    3    3    0    0 -0.82331845296E+01  0.22952811763E+01 -0.17565510164E+02  0.19534604949E+02  0.00000000000E+00 0. -1.
</event>
<event>
 7    1  0.1113211E-011  0.5930182E+02  0.7816164E-02  0.1266605E+00
        -11   -1    0    0    0    0  0.00000000000E+00  0.00000000000E+00  0.45593999997E+02  0.45594000000E+02  0.51100000000E-03 0.  1.
         11   -1    0    0    0    0 -0.00000000000E+00 -0.00000000000E+00 -0.45593999997E+02  0.45594000000E+02  0.51100000000E-03 0. -1.
    9900012    2    1    2    0    0 -0.16418623987E+02  0.24858841949E+02 -0.11366418349E+02  0.59301816428E+02  0.49999767289E+02 0.  0.
        -12    1    1    2    0    0  0.16418623987E+02 -0.24858841949E+02  0.11366418349E+02  0.31886183572E+02  0.00000000000E+00 0.  1.
         11    1    3    3    0    0 -0.93238419473E+01 -0.24596652045E+01 -0.12029178237E+02  0.15417039628E+02  0.51100000000E-03 0. -1.
        -11    1    3    3    0    0  0.81963857786E+01  0.18818363031E+02  0.11279078457E+02  0.23420698924E+02  0.51100000000E-03 0.  1.
         12    1    3    3    0    0 -0.15291167818E+02  0.85001441231E+01 -0.10616318569E+02  0.20464077876E+02  0.00000000000E+00 0. -1.
</event>
<event>
 7    1  0.1128346E-011  0.5930197E+02  0.7816164E-02  0.1266605E+00
        -11   -1    0    0    0    0  0.00000000000E+00  0.00000000000E+00  0.45593999997E+02  0.45594000000E+02  0.51100000000E-03 0.  1.
         11   -1    0    0    0    0 -0.00000000000E+00 -0.00000000000E+00 -0.45593999997E+02  0.45594000000E+02  0.51100000000E-03 0. -1.
    9900012    2    1    2    0    0  0.26667659758E+02 -0.16320345376E+02 -0.62611025859E+01  0.59301966133E+02  0.50000040315E+02 0.  0.
        -12    1    1    2    0    0 -0.26667659758E+02  0.16320345376E+02  0.62611025859E+01  0.31886033867E+02  0.00000000000E+00 0.  1.
         11    1    3    3    0    0  0.27984705569E+01 -0.19847402006E+02  0.59508598703E+00  0.20052554237E+02  0.51100000000E-03 0. -1.
        -11    1    3    3    0    0 -0.10515356770E+01  0.12209522758E+02 -0.23244495517E+01  0.12473220885E+02  0.51100000000E-03 0.  1.
         12    1    3    3    0    0  0.24920724879E+02 -0.86824661277E+01 -0.45317390212E+01  0.26776191012E+02  0.00000000000E+00 0. -1.
</event>
<event>
 7    1  0.1113211E-011  0.5930178E+02  0.7816164E-02  0.1266605E+00
        -11   -1    0    0    0    0  0.00000000000E+00  0.00000000000E+00  0.45593999997E+02  0.45594000000E+02  0.51100000000E-03 0. -1.
         11   -1    0    0    0    0 -0.00000000000E+00 -0.00000000000E+00 -0.45593999997E+02  0.45594000000E+02  0.51100000000E-03 0.  1.
    9900012    2    1    2    0    0  0.54037461073E+01  0.73826695879E+00  0.31416328665E+02  0.59301777005E+02  0.49999695390E+02 0.  0.
        -12    1    1    2    0    0 -0.54037461073E+01 -0.73826695879E+00 -0.31416328665E+02  0.31886222995E+02  0.00000000000E+00 0.  1.
         11    1    3    3    0    0 -0.45881316235E+01  0.20859793195E+02  0.54575556896E+01  0.22044655549E+02  0.51100000000E-03 0. -1.
        -11    1    3    3    0    0  0.11890940504E+02 -0.21068915940E+02  0.21700564714E+02  0.32499356826E+02  0.51100000000E-03 0.  1.
         12    1    3    3    0    0 -0.18990627736E+01  0.94738970391E+00  0.42582082619E+01  0.47577646297E+01  0.00000000000E+00 0. -1.
</event>
<event>
 7    1  0.1113211E-011  0.5930195E+02  0.7816164E-02  0.1266605E+00
        -11   -1    0    0    0    0  0.00000000000E+00  0.00000000000E+00  0.45593999997E+02  0.45594000000E+02  0.51100000000E-03 0.  1.
         11   -1    0    0    0    0 -0.00000000000E+00 -0.00000000000E+00 -0.45593999997E+02  0.45594000000E+02  0.51100000000E-03 0. -1.
    9900012    2    1    2    0    0 -0.24775726363E+02 -0.69962491726E+01 -0.18813188548E+02  0.59301950031E+02  0.50000010948E+02 0.  0.
        -12    1    1    2    0    0  0.24775726363E+02  0.69962491726E+01  0.18813188548E+02  0.31886049969E+02  0.00000000000E+00 0.  1.
         11    1    3    3    0    0 -0.15284486454E+02 -0.12068133778E+02 -0.19139689379E+02  0.27305367399E+02  0.51100000000E-03 0. -1.
        -11    1    3    3    0    0 -0.63934810347E+00  0.17051561974E+02  0.93249316258E+00  0.17089004521E+02  0.51100000000E-03 0.  1.
        -12    1    3    3    0    0 -0.88518918057E+01 -0.11979677369E+02 -0.60599233247E+00  0.14907578110E+02  0.00000000000E+00 0.  1.
</event>
<event>
 7    1  0.1113211E-011  0.5930192E+02  0.7816164E-02  0.1266605E+00
        -11   -1    0    0    0    0  0.00000000000E+00  0.00000000000E+00  0.45593999997E+02  0.45594000000E+02  0.51100000000E-03 0.  1.
         11   -1    0    0    0    0 -0.00000000000E+00 -0.00000000000E+00 -0.45593999997E+02  0.45594000000E+02  0.51100000000E-03 0. -1.
    9900012    2    1    2    0    0  0.79919417326E+00  0.17712729233E+02 -0.26501749639E+02  0.59301918050E+02  0.49999952622E+02 0.  0.
        -12    1    1    2    0    0 -0.79919417326E+00 -0.17712729233E+02  0.26501749639E+02  0.31886081950E+02  0.00000000000E+00 0.  1.
         11    1    3    3    0    0  0.60946332087E+01  0.13275302813E+02  0.29024155760E+01  0.14893026394E+02  0.51100000000E-03 0. -1.
        -11    1    3    3    0    0 -0.18077271261E+02 -0.28796765938E+01 -0.13588459952E+02  0.22797511216E+02  0.51100000000E-03 0.  1.
         12    1    3    3    0    0  0.12781832225E+02  0.73171030135E+01 -0.15815705263E+02  0.21611380440E+02  0.00000000000E+00 0. -1.
</event>
<event>
 7    1  0.1113211E-011  0.5930195E+02  0.7816164E-02  0.1266605E+00
        -11   -1    0    0    0    0  0.00000000000E+00  0.00000000000E+00  0.45593999997E+02  0.45594000000E+02  0.51100000000E-03 0.  1.
         11   -1    0    0    0    0 -0.00000000000E+00 -0.00000000000E+00 -0.45593999997E+02  0.45594000000E+02  0.51100000000E-03 0. -1.
    9900012    2    1    2    0    0  0.19743016517E+02 -0.24883934921E+02  0.27790484888E+01  0.59301952442E+02  0.50000015346E+02 0.  0.
        -12    1    1    2    0    0 -0.19743016517E+02  0.24883934921E+02 -0.27790484888E+01  0.31886047558E+02  0.00000000000E+00 0.  1.
         11    1    3    3    0    0  0.54011974964E+01 -0.19454206612E+02 -0.13245579673E+02  0.24147142076E+02  0.51100000000E-03 0. -1.
        -11    1    3    3    0    0  0.19454014340E+02  0.45813056985E+01  0.91753535880E+01  0.21991683645E+02  0.51100000000E-03 0.  1.
        -12    1    3    3    0    0 -0.51121953192E+01 -0.10011034007E+02  0.68492745741E+01  0.13163126721E+02  0.00000000000E+00 0.  1.
</event>
<event>
 7    1  0.1113211E-011  0.5930205E+02  0.7816164E-02  0.1266604E+00
        -11   -1    0    0    0    0  0.00000000000E+00  0.00000000000E+00  0.45593999997E+02  0.45594000000E+02  0.51100000000E-03 0.  1.
         11   -1    0    0    0    0 -0.00000000000E+00 -0.00000000000E+00 -0.45593999997E+02  0.45594000000E+02  0.51100000000E-03 0. -1.
    9900012    2    1    2    0    0  0.21619795620E+02 -0.65532450617E+01 -0.22502289224E+02  0.59302053192E+02  0.50000199089E+02 0.  0.
        -12    1    1    2    0    0 -0.21619795620E+02  0.65532450617E+01  0.22502289224E+02  0.31885946808E+02  0.00000000000E+00 0.  1.
         11    1    3    3    0    0  0.19543447447E+02  0.94251883027E+01 -0.22251999126E+02  0.31079446231E+02  0.51100000000E-03 0. -1.
        -11    1    3    3    0    0 -0.43233593092E+01  0.19143054523E+01  0.65163371305E+01  0.80510031015E+01  0.51100000000E-03 0.  1.
         12    1    3    3    0    0  0.63997074822E+01 -0.17892738817E+02 -0.67666272289E+01  0.20171603860E+02  0.00000000000E+00 0. -1.
</event>
<event>
 7    1  0.1113211E-011  0.5930193E+02  0.7816164E-02  0.1266605E+00
        -11   -1    0    0    0    0  0.00000000000E+00  0.00000000000E+00  0.45593999997E+02  0.45594000000E+02  0.51100000000E-03 0.  1.
         11   -1    0    0    0    0 -0.00000000000E+00 -0.00000000000E+00 -0.45593999997E+02  0.45594000000E+02  0.51100000000E-03 0. -1.
    9900012    2    1    2    0    0 -0.27928691850E+02 -0.20281199148E+01 -0.15251104360E+02  0.59301932775E+02  0.49999979478E+02 0.  0.
        -12    1    1    2    0    0  0.27928691850E+02  0.20281199148E+01  0.15251104360E+02  0.31886067225E+02  0.00000000000E+00 0.  1.
         11    1    3    3    0    0 -0.98419168129E+01 -0.46409304441E+01  0.12922892012E+01  0.10957717535E+02  0.51100000000E-03 0. -1.
        -11    1    3    3    0    0  0.12956725903E+02  0.12476908788E+01  0.25817389625E+00  0.13019221661E+02  0.51100000000E-03 0.  1.
        -12    1    3    3    0    0 -0.31043500940E+02  0.13651196505E+01 -0.16801567458E+02  0.35324993579E+02  0.00000000000E+00 0.  1.
</event>
<event>
 7    1  0.1113211E-011  0.5930181E+02  0.7816164E-02  0.1266605E+00
        -11   -1    0    0    0    0  0.00000000000E+00  0.00000000000E+00  0.45593999997E+02  0.45594000000E+02  0.51100000000E-03 0.  1.
         11   -1    0    0    0    0 -0.00000000000E+00 -0.00000000000E+00 -0.45593999997E+02  0.45594000000E+02  0.51100000000E-03 0. -1.
    9900012    2    1    2    0    0 -0.28066198002E+02 -0.23320317573E+01 -0.14952570799E+02  0.59301808382E+02  0.49999752614E+02 0.  0.
        -12    1    1    2    0    0  0.28066198002E+02  0.23320317573E+01  0.14952570799E+02  0.31886191618E+02  0.00000000000E+00 0.  1.
         11    1    3    3    0    0 -0.96634408880E+01 -0.13369107809E+02 -0.98835541012E+01  0.19230178765E+02  0.51100000000E-03 0. -1.
        -11    1    3    3    0    0 -0.81814321171E+01  0.63268204380E+01  0.14313252302E+02  0.17658813099E+02  0.51100000000E-03 0.  1.
        -12    1    3    3    0    0 -0.10221324997E+02  0.47102556141E+01 -0.19382269001E+02  0.22412816517E+02  0.00000000000E+00 0.  1.
</event>
<event>
 7    1  0.1113211E-011  0.5930195E+02  0.7816164E-02  0.1266605E+00
        -11   -1    0    0    0    0  0.00000000000E+00  0.00000000000E+00  0.45593999997E+02  0.45594000000E+02  0.51100000000E-03 0.  1.
         11   -1    0    0    0    0 -0.00000000000E+00 -0.00000000000E+00 -0.45593999997E+02  0.45594000000E+02  0.51100000000E-03 0. -1.
    9900012    2    1    2    0    0  0.24192635864E+02  0.12080006780E+02 -0.16897042355E+02  0.59301949222E+02  0.50000009473E+02 0.  0.
        -12    1    1    2    0    0 -0.24192635864E+02 -0.12080006780E+02  0.16897042355E+02  0.31886050778E+02  0.00000000000E+00 0.  1.
         11    1    3    3    0    0 -0.84107047769E+01  0.90795757348E+01  0.42261069964E+01  0.13078173839E+02  0.51100000000E-03 0. -1.
        -11    1    3    3    0    0  0.26611839892E+02  0.39516815002E+01 -0.29501073777E+01  0.27064902418E+02  0.51100000000E-03 0.  1.
        -12    1    3    3    0    0  0.59915007489E+01 -0.95125045463E+00 -0.18173041974E+02  0.19158872964E+02  0.00000000000E+00 0.  1.
</event>
<event>
 7    1  0.1113211E-011  0.5930194E+02  0.7816164E-02  0.1266605E+00
        -11   -1    0    0    0    0  0.00000000000E+00  0.00000000000E+00  0.45593999997E+02  0.45594000000E+02  0.51100000000E-03 0. -1.
         11   -1    0    0    0    0 -0.00000000000E+00 -0.00000000000E+00 -0.45593999997E+02  0.45594000000E+02  0.51100000000E-03 0.  1.
    9900012    2    1    2    0    0 -0.28240653430E+02 -0.19685829414E+01  0.14673468650E+02  0.59301944942E+02  0.50000001667E+02 0.  0.
        -12    1    1    2    0    0  0.28240653430E+02  0.19685829414E+01 -0.14673468650E+02  0.31886055058E+02  0.00000000000E+00 0.  1.
         11    1    3    3    0    0 -0.19327025657E+02 -0.92505295191E+01 -0.15128869130E+02  0.26229542477E+02  0.51100000000E-03 0. -1.
        -11    1    3    3    0    0 -0.37434616489E+01  0.82661990644E+01  0.18626322995E+02  0.20719156852E+02  0.51100000000E-03 0.  1.
         12    1    3    3    0    0 -0.51701661236E+01 -0.98425248673E+00  0.11176014785E+02  0.12353245613E+02  0.00000000000E+00 0. -1.
</event>
<event>
 7    1  0.1113211E-011  0.5930189E+02  0.7816164E-02  0.1266605E+00
        -11   -1    0    0    0    0  0.00000000000E+00  0.00000000000E+00  0.45593999997E+02  0.45594000000E+02  0.51100000000E-03 0.  1.
         11   -1    0    0    0    0 -0.00000000000E+00 -0.00000000000E+00 -0.45593999997E+02  0.45594000000E+02  0.51100000000E-03 0. -1.
    9900012    2    1    2    0    0 -0.60054947729E+01  0.21888476628E+02 -0.22395368462E+02  0.59301891659E+02  0.49999904493E+02 0.  0.
        -12    1    1    2    0    0  0.60054947729E+01 -0.21888476628E+02  0.22395368462E+02  0.31886108341E+02  0.00000000000E+00 0.  1.
         11    1    3    3    0    0 -0.68723733658E+01  0.65783029522E+01 -0.30020139421E+00  0.95180726278E+01  0.51100000000E-03 0. -1.
        -11    1    3    3    0    0  0.44528196409E+01  0.27347990920E+02 -0.24510285471E+02  0.36993165643E+02  0.51100000000E-03 0.  1.
        -12    1    3    3    0    0 -0.35859410480E+01 -0.12037817245E+02  0.24151184032E+01  0.12790653389E+02  0.00000000000E+00 0.  1.
</event>
<event>
 7    1  0.1113211E-011  0.5930195E+02  0.7816164E-02  0.1266605E+00
        -11   -1    0    0    0    0  0.00000000000E+00  0.00000000000E+00  0.45593999997E+02  0.45594000000E+02  0.51100000000E-03 0.  1.
         11   -1    0    0    0    0 -0.00000000000E+00 -0.00000000000E+00 -0.45593999997E+02  0.45594000000E+02  0.51100000000E-03 0. -1.
    9900012    2    1    2    0    0  0.80841005500E+01  0.26786634352E+02 -0.15291958743E+02  0.59301945622E+02  0.50000002907E+02 0.  0.
        -12    1    1    2    0    0 -0.80841005500E+01 -0.26786634352E+02  0.15291958743E+02  0.31886054378E+02  0.00000000000E+00 0.  1.
         11    1    3    3    0    0  0.28182963000E+01 -0.14198623974E+02  0.61621038413E+00  0.14488734668E+02  0.51100000000E-03 0. -1.
        -11    1    3    3    0    0 -0.73447637610E+00  0.28796619859E+01  0.26754674041E+00  0.29838716828E+01  0.51100000000E-03 0.  1.
         12    1    3    3    0    0  0.60002806260E+01  0.38105596340E+02 -0.16175715867E+02  0.41829339271E+02  0.00000000000E+00 0. -1.
</event>
<event>
 7    1  0.1113211E-011  0.5930196E+02  0.7816164E-02  0.1266605E+00
        -11   -1    0    0    0    0  0.00000000000E+00  0.00000000000E+00  0.45593999997E+02  0.45594000000E+02  0.51100000000E-03 0. -1.
         11   -1    0    0    0    0 -0.00000000000E+00 -0.00000000000E+00 -0.45593999997E+02  0.45594000000E+02  0.51100000000E-03 0.  1.
    9900012    2    1    2    0    0 -0.42203155987E+01 -0.29419141977E+01  0.31468295240E+02  0.59301960293E+02  0.50000029664E+02 0.  0.
        -12    1    1    2    0    0  0.42203155987E+01  0.29419141977E+01 -0.31468295240E+02  0.31886039707E+02  0.00000000000E+00 0.  1.
         11    1    3    3    0    0  0.94737885106E+01  0.13277609569E+02  0.65364301357E+01  0.17571923736E+02  0.51100000000E-03 0. -1.
        -11    1    3    3    0    0 -0.96286782160E+00 -0.17842187561E+02  0.22391189916E+02  0.28646747765E+02  0.51100000000E-03 0.  1.
        -12    1    3    3    0    0 -0.12731236288E+02  0.16226637940E+01  0.25406751886E+01  0.13083288792E+02  0.00000000000E+00 0.  1.
</event>
<event>
 7    1  0.1113211E-011  0.5930196E+02  0.7816164E-02  0.1266605E+00
        -11   -1    0    0    0    0  0.00000000000E+00  0.00000000000E+00  0.45593999997E+02  0.45594000000E+02  0.51100000000E-03 0. -1.
         11   -1    0    0    0    0 -0.00000000000E+00 -0.00000000000E+00 -0.45593999997E+02  0.45594000000E+02  0.51100000000E-03 0.  1.
    9900012    2    1    2    0    0 -0.12904492796E+02 -0.29062793748E+02  0.23553386086E+01  0.59301960191E+02  0.50000029478E+02 0.  0.
        -12    1    1    2    0    0  0.12904492796E+02  0.29062793748E+02 -0.23553386086E+01  0.31886039809E+02  0.00000000000E+00 0.  1.
         11    1    3    3    0    0 -0.16848019587E+02 -0.32370866558E+02  0.44923665514E+00  0.36495624116E+02  0.51100000000E-03 0. -1.
        -11    1    3    3    0    0 -0.78225917561E+01  0.67878606910E+01  0.19358997468E+01  0.10536398941E+02  0.51100000000E-03 0.  1.
         12    1    3    3    0    0  0.11766118548E+02 -0.34797878809E+01 -0.29797793357E-01  0.12269937135E+02  0.00000000000E+00 0. -1.
</event>
<event>
 7    1  0.1113211E-011  0.5930192E+02  0.7816164E-02  0.1266605E+00
        -11   -1    0    0    0    0  0.00000000000E+00  0.00000000000E+00  0.45593999997E+02  0.45594000000E+02  0.51100000000E-03 0.  1.
         11   -1    0    0    0    0 -0.00000000000E+00 -0.00000000000E+00 -0.45593999997E+02  0.45594000000E+02  0.51100000000E-03 0. -1.
    9900012    2    1    2    0    0 -0.20531434493E+01 -0.28739751427E+02 -0.13657724308E+02  0.59301919285E+02  0.49999954875E+02 0.  0.
        -12    1    1    2    0    0  0.20531434493E+01  0.28739751427E+02  0.13657724308E+02  0.31886080715E+02  0.00000000000E+00 0.  1.
         11    1    3    3    0    0 -0.14052499651E+02 -0.78667638838E+01 -0.15039266876E+02  0.22034932922E+02  0.51100000000E-03 0. -1.
        -11    1    3    3    0    0  0.12868138653E+02 -0.19757455644E+02  0.12067993223E+02  0.26487402791E+02  0.51100000000E-03 0.  1.
        -12    1    3    3    0    0 -0.86878245164E+00 -0.11155318985E+01 -0.10686450656E+02  0.10779583572E+02  0.00000000000E+00 0.  1.
</event>
<event>
 7    1  0.1113211E-011  0.5930195E+02  0.7816164E-02  0.1266605E+00
        -11   -1    0    0    0    0  0.00000000000E+00  0.00000000000E+00  0.45593999997E+02  0.45594000000E+02  0.51100000000E-03 0.  1.
         11   -1    0    0    0    0 -0.00000000000E+00 -0.00000000000E+00 -0.45593999997E+02  0.45594000000E+02  0.51100000000E-03 0. -1.
    9900012    2    1    2    0    0  0.30791243682E+02  0.16009337131E+01 -0.81275214623E+01  0.59301948483E+02  0.50000008125E+02 0.  0.
        -12    1    1    2    0    0 -0.30791243682E+02 -0.16009337131E+01  0.81275214623E+01  0.31886051517E+02  0.00000000000E+00 0.  1.
         11    1    3    3    0    0 -0.85323022433E+01 -0.21570889422E+01 -0.15378212910E+02  0.17718426759E+02  0.51100000000E-03 0. -1.
        -11    1    3    3    0    0  0.15627380855E+02 -0.28687962639E+01  0.58744393666E+01  0.16939718490E+02  0.51100000000E-03 0.  1.
         12    1    3    3    0    0  0.23696165070E+02  0.66268189192E+01  0.13762520807E+01  0.24643803234E+02  0.00000000000E+00 0. -1.
</event>
<event>
 7    1  0.1113211E-011  0.5930194E+02  0.7816164E-02  0.1266605E+00
        -11   -1    0    0    0    0  0.00000000000E+00  0.00000000000E+00  0.45593999997E+02  0.45594000000E+02  0.51100000000E-03 0. -1.
         11   -1    0    0    0    0 -0.00000000000E+00 -0.00000000000E+00 -0.45593999997E+02  0.45594000000E+02  0.51100000000E-03 0.  1.
    9900012    2    1    2    0    0  0.26477078286E+02 -0.17584239103E+02 -0.25455789985E+01  0.59301935460E+02  0.49999984375E+02 0.  0.
        -12    1    1    2    0    0 -0.26477078286E+02  0.17584239103E+02  0.25455789985E+01  0.31886064540E+02  0.00000000000E+00 0.  1.
         11    1    3    3    0    0 -0.91042751930E+01 -0.14742569891E+02  0.40270983615E+01  0.17789005460E+02  0.51100000000E-03 0. -1.
        -11    1    3    3    0    0  0.22642516820E+02 -0.75786256673E+00 -0.13819256622E+02  0.26537328001E+02  0.51100000000E-03 0.  1.
        -12    1    3    3    0    0  0.12938836659E+02 -0.20838066445E+01  0.72465792621E+01  0.14975601999E+02  0.00000000000E+00 0.  1.
</event>
<event>
 7    1  0.1113211E-011  0.5930194E+02  0.7816164E-02  0.1266605E+00
        -11   -1    0    0    0    0  0.00000000000E+00  0.00000000000E+00  0.45593999997E+02  0.45594000000E+02  0.51100000000E-03 0. -1.
         11   -1    0    0    0    0 -0.00000000000E+00 -0.00000000000E+00 -0.45593999997E+02  0.45594000000E+02  0.51100000000E-03 0.  1.
    9900012    2    1    2    0    0 -0.12074976911E+02  0.23600067458E+02  0.17718699806E+02  0.59301943890E+02  0.49999999749E+02 0.  0.
        -12    1    1    2    0    0  0.12074976911E+02 -0.23600067458E+02 -0.17718699806E+02  0.31886056110E+02  0.00000000000E+00 0.  1.
         11    1    3    3    0    0  0.91533513881E+01  0.18696361214E+02  0.26391347764E+02  0.33613107582E+02  0.51100000000E-03 0.  1.
        -11    1    3    3    0    0 -0.17524551261E+02  0.48775608692E+01 -0.11053568832E+02  0.21285720122E+02  0.51100000000E-03 0. -1.
        -12    1    3    3    0    0 -0.37037770391E+01  0.26145375193E-01  0.23809208747E+01  0.44031161860E+01  0.00000000000E+00 0.  1.
</event>
<event>
 7    1  0.1113211E-011  0.5930193E+02  0.7816164E-02  0.1266605E+00
        -11   -1    0    0    0    0  0.00000000000E+00  0.00000000000E+00  0.45593999997E+02  0.45594000000E+02  0.51100000000E-03 0.  1.
         11   -1    0    0    0    0 -0.00000000000E+00 -0.00000000000E+00 -0.45593999997E+02  0.45594000000E+02  0.51100000000E-03 0. -1.
    9900012    2    1    2    0    0  0.23225506644E+02 -0.10139211017E+02 -0.19351838391E+02  0.59301930816E+02  0.49999975905E+02 0.  0.
        -12    1    1    2    0    0 -0.23225506644E+02  0.10139211017E+02  0.19351838391E+02  0.31886069184E+02  0.00000000000E+00 0.  1.
         11    1    3    3    0    0 -0.12275944637E+02  0.19674805510E+01 -0.40576882285E+01  0.13078020893E+02  0.51100000000E-03 0. -1.
        -11    1    3    3    0    0  0.21728677841E+02  0.38360862456E+01 -0.43744362792E+01  0.22494147937E+02  0.51100000000E-03 0.  1.
         12    1    3    3    0    0  0.13772773440E+02 -0.15942777814E+02 -0.10919713883E+02  0.23729761986E+02  0.00000000000E+00 0. -1.
</event>
<event>
 7    1  0.1113211E-011  0.5930193E+02  0.7816164E-02  0.1266605E+00
        -11   -1    0    0    0    0  0.00000000000E+00  0.00000000000E+00  0.45593999997E+02  0.45594000000E+02  0.51100000000E-03 0.  1.
         11   -1    0    0    0    0 -0.00000000000E+00 -0.00000000000E+00 -0.45593999997E+02  0.45594000000E+02  0.51100000000E-03 0. -1.
    9900012    2    1    2    0    0 -0.22121576922E+02  0.22475163293E+02 -0.47142749496E+01  0.59301929078E+02  0.49999972734E+02 0.  0.
        -12    1    1    2    0    0  0.22121576922E+02 -0.22475163293E+02  0.47142749496E+01  0.31886070922E+02  0.00000000000E+00 0.  1.
         11    1    3    3    0    0 -0.11513642451E+02  0.24435321232E+02  0.70646188986E+01  0.27920561002E+02  0.51100000000E-03 0. -1.
        -11    1    3    3    0    0 -0.10820943728E+02 -0.13625927888E+02 -0.76085301298E+01  0.18990746825E+02  0.51100000000E-03 0.  1.
         12    1    3    3    0    0  0.21300925642E+00  0.11665769949E+02 -0.41703637185E+01  0.12390621251E+02  0.00000000000E+00 0. -1.
</event>
<event>
 7    1  0.1113211E-011  0.5930196E+02  0.7816164E-02  0.1266605E+00
        -11   -1    0    0    0    0  0.00000000000E+00  0.00000000000E+00  0.45593999997E+02  0.45594000000E+02  0.51100000000E-03 0. -1.
         11   -1    0    0    0    0 -0.00000000000E+00 -0.00000000000E+00 -0.45593999997E+02  0.45594000000E+02  0.51100000000E-03 0.  1.
    9900012    2    1    2    0    0 -0.25566381568E+02 -0.18950444288E+02 -0.19901379930E+01  0.59301955177E+02  0.50000020335E+02 0.  0.
        -12    1    1    2    0    0  0.25566381568E+02  0.18950444288E+02  0.19901379930E+01  0.31886044823E+02  0.00000000000E+00 0.  1.
         11    1    3    3    0    0 -0.12733964329E+02 -0.31531860420E+02 -0.53775134750E+00  0.34010310876E+02  0.51100000000E-03 0. -1.
        -11    1    3    3    0    0 -0.17247604218E+02  0.87686631034E+01 -0.18953990848E+01  0.19441240748E+02  0.51100000000E-03 0.  1.
         12    1    3    3    0    0  0.44151869791E+01  0.38127530286E+01  0.44301243924E+00  0.58504035535E+01  0.00000000000E+00 0. -1.
</event>
<event>
 7    1  0.1113211E-011  0.5930195E+02  0.7816164E-02  0.1266605E+00
        -11   -1    0    0    0    0  0.00000000000E+00  0.00000000000E+00  0.45593999997E+02  0.45594000000E+02  0.51100000000E-03 0.  1.
         11   -1    0    0    0    0 -0.00000000000E+00 -0.00000000000E+00 -0.45593999997E+02  0.45594000000E+02  0.51100000000E-03 0. -1.
    9900012    2    1    2    0    0 -0.16659808830E+02  0.20552023363E+02 -0.17798458878E+02  0.59301952377E+02  0.50000015227E+02 0.  0.
        -12    1    1    2    0    0  0.16659808830E+02 -0.20552023363E+02  0.17798458878E+02  0.31886047623E+02  0.00000000000E+00 0.  1.
         11    1    3    3    0    0 -0.27480870391E+02  0.15525338334E+02 -0.17026986600E+02  0.35862970328E+02  0.51100000000E-03 0. -1.
        -11    1    3    3    0    0  0.11338910960E+02  0.21417276967E+01  0.80982547785E+01  0.14097504389E+02  0.51100000000E-03 0.  1.
        -12    1    3    3    0    0 -0.51784939883E+00  0.28849573324E+01 -0.88697270564E+01  0.93414776596E+01  0.00000000000E+00 0.  1.
</event>
<event>
 7    1  0.1113211E-011  0.5930194E+02  0.7816164E-02  0.1266605E+00
        -11   -1    0    0    0    0  0.00000000000E+00  0.00000000000E+00  0.45593999997E+02  0.45594000000E+02  0.51100000000E-03 0.  1.
         11   -1    0    0    0    0 -0.00000000000E+00 -0.00000000000E+00 -0.45593999997E+02  0.45594000000E+02  0.51100000000E-03 0. -1.
    9900012    2    1    2    0    0 -0.10473230161E+02  0.20117946436E+02 -0.22412061581E+02  0.59301939987E+02  0.49999992631E+02 0.  0.
        -12    1    1    2    0    0  0.10473230161E+02 -0.20117946436E+02  0.22412061581E+02  0.31886060013E+02  0.00000000000E+00 0.  1.
         11    1    3    3    0    0  0.16148097871E+01 -0.88956656869E+01 -0.10875288474E+02  0.14142573257E+02  0.51100000000E-03 0.  1.
        -11    1    3    3    0    0 -0.26283440677E+01  0.33094878627E+02 -0.71419295957E+01  0.33958597475E+02  0.51100000000E-03 0. -1.
        -12    1    3    3    0    0 -0.94596958801E+01 -0.40812665041E+01 -0.43948435112E+01  0.11200769255E+02  0.00000000000E+00 0.  1.
</event>
<event>
 7    1  0.1113211E-011  0.5930193E+02  0.7816164E-02  0.1266605E+00
        -11   -1    0    0    0    0  0.00000000000E+00  0.00000000000E+00  0.45593999997E+02  0.45594000000E+02  0.51100000000E-03 0.  1.
         11   -1    0    0    0    0 -0.00000000000E+00 -0.00000000000E+00 -0.45593999997E+02  0.45594000000E+02  0.51100000000E-03 0. -1.
    9900012    2    1    2    0    0  0.18766993017E+02 -0.70296755052E+01 -0.24801318423E+02  0.59301925295E+02  0.49999965835E+02 0.  0.
        -12    1    1    2    0    0 -0.18766993017E+02  0.70296755052E+01  0.24801318423E+02  0.31886074705E+02  0.00000000000E+00 0.  1.
         11    1    3    3    0    0 -0.57270271139E+01  0.82037198474E+01  0.62188576481E+01  0.11780239794E+02  0.51100000000E-03 0.  1.
        -11    1    3    3    0    0  0.10950163218E+02 -0.14596411811E+02 -0.28330978145E+02  0.33698748273E+02  0.51100000000E-03 0. -1.
         12    1    3    3    0    0  0.13543856913E+02 -0.63698354127E+00 -0.26891979263E+01  0.13822937227E+02  0.00000000000E+00 0. -1.
</event>
<event>
 7    1  0.1113211E-011  0.5930196E+02  0.7816164E-02  0.1266605E+00
        -11   -1    0    0    0    0  0.00000000000E+00  0.00000000000E+00  0.45593999997E+02  0.45594000000E+02  0.51100000000E-03 0.  1.
         11   -1    0    0    0    0 -0.00000000000E+00 -0.00000000000E+00 -0.45593999997E+02  0.45594000000E+02  0.51100000000E-03 0. -1.
    9900012    2    1    2    0    0 -0.49426785862E+01 -0.27118907431E+02 -0.16026680887E+02  0.59301957409E+02  0.50000024404E+02 0.  0.
        -12    1    1    2    0    0  0.49426785862E+01  0.27118907431E+02  0.16026680887E+02  0.31886042591E+02  0.00000000000E+00 0.  1.
         11    1    3    3    0    0 -0.39774092846E+01 -0.61357078037E+01  0.56018006991E+00  0.73335187217E+01  0.51100000000E-03 0. -1.
        -11    1    3    3    0    0  0.19619239770E+01 -0.19465535818E+02 -0.31288506093E+02  0.36901583221E+02  0.51100000000E-03 0.  1.
        -12    1    3    3    0    0 -0.29271932786E+01 -0.15176638097E+01  0.14701645137E+02  0.15066855467E+02  0.00000000000E+00 0.  1.
</event>
<event>
 7    1  0.1113211E-011  0.5930194E+02  0.7816164E-02  0.1266605E+00
        -11   -1    0    0    0    0  0.00000000000E+00  0.00000000000E+00  0.45593999997E+02  0.45594000000E+02  0.51100000000E-03 0.  1.
         11   -1    0    0    0    0 -0.00000000000E+00 -0.00000000000E+00 -0.45593999997E+02  0.45594000000E+02  0.51100000000E-03 0. -1.
    9900012    2    1    2    0    0  0.41484778846E+01  0.97186848089E+01 -0.30084185473E+02  0.59301938488E+02  0.49999989897E+02 0.  0.
        -12    1    1    2    0    0 -0.41484778846E+01 -0.97186848089E+01  0.30084185473E+02  0.31886061512E+02  0.00000000000E+00 0.  1.
         11    1    3    3    0    0  0.11233726234E+02 -0.73729852493E+01 -0.63873647683E+01  0.14878035674E+02  0.51100000000E-03 0. -1.
        -11    1    3    3    0    0 -0.19076905767E+02  0.14841773450E+02 -0.20790012443E+02  0.31881518007E+02  0.51100000000E-03 0.  1.
        -12    1    3    3    0    0  0.11991657418E+02  0.22498966086E+01 -0.29068082619E+01  0.12542384807E+02  0.00000000000E+00 0.  1.
</event>
<event>
 7    1  0.1113211E-011  0.5930214E+02  0.7816164E-02  0.1266604E+00
        -11   -1    0    0    0    0  0.00000000000E+00  0.00000000000E+00  0.45593999997E+02  0.45594000000E+02  0.51100000000E-03 0. -1.
         11   -1    0    0    0    0 -0.00000000000E+00 -0.00000000000E+00 -0.45593999997E+02  0.45594000000E+02  0.51100000000E-03 0.  1.
    9900012    2    1    2    0    0  0.30649289027E+02  0.74987814064E+01  0.45932129591E+01  0.59302137212E+02  0.50000352321E+02 0.  0.
        -12    1    1    2    0    0 -0.30649289027E+02 -0.74987814064E+01 -0.45932129591E+01  0.31885862788E+02  0.00000000000E+00 0.  1.
         11    1    3    3    0    0  0.23131184147E+02 -0.15189782896E+01  0.18601085213E+02  0.29721361786E+02  0.51100000000E-03 0. -1.
        -11    1    3    3    0    0  0.11809597795E+01  0.14079403764E+02 -0.15881529920E+02  0.21256699396E+02  0.51100000000E-03 0.  1.
        -12    1    3    3    0    0  0.63371451008E+01 -0.50616440679E+01  0.18736576658E+01  0.83240760297E+01  0.00000000000E+00 0.  1.
</event>
<event>
 7    1  0.1113211E-011  0.5930194E+02  0.7816164E-02  0.1266605E+00
        -11   -1    0    0    0    0  0.00000000000E+00  0.00000000000E+00  0.45593999997E+02  0.45594000000E+02  0.51100000000E-03 0. -1.
         11   -1    0    0    0    0 -0.00000000000E+00 -0.00000000000E+00 -0.45593999997E+02  0.45594000000E+02  0.51100000000E-03 0.  1.
    9900012    2    1    2    0    0  0.18273422311E+02 -0.12211135725E+02  0.23101758154E+02  0.59301936768E+02  0.49999986759E+02 0.  0.
        -12    1    1    2    0    0 -0.18273422311E+02  0.12211135725E+02 -0.23101758154E+02  0.31886063232E+02  0.00000000000E+00 0.  1.
         11    1    3    3    0    0 -0.12456875348E+00  0.74972438279E+01  0.33510621726E+01  0.82130262593E+01  0.51100000000E-03 0. -1.
        -11    1    3    3    0    0  0.15135816396E+02 -0.25284750776E+02 -0.86817322849E+00  0.29481609264E+02  0.51100000000E-03 0.  1.
        -12    1    3    3    0    0  0.32621746686E+01  0.55763712224E+01  0.20618869210E+02  0.21607301245E+02  0.00000000000E+00 0.  1.
</event>
<event>
 7    1  0.1113211E-011  0.5930192E+02  0.7816164E-02  0.1266605E+00
        -11   -1    0    0    0    0  0.00000000000E+00  0.00000000000E+00  0.45593999997E+02  0.45594000000E+02  0.51100000000E-03 0.  1.
         11   -1    0    0    0    0 -0.00000000000E+00 -0.00000000000E+00 -0.45593999997E+02  0.45594000000E+02  0.51100000000E-03 0. -1.
    9900012    2    1    2    0    0  0.96559042545E+01 -0.26316686345E+02  0.15195964509E+02  0.59301924598E+02  0.49999964565E+02 0.  0.
        -12    1    1    2    0    0 -0.96559042545E+01  0.26316686345E+02 -0.15195964509E+02  0.31886075402E+02  0.00000000000E+00 0.  1.
         11    1    3    3    0    0  0.19681053743E+01 -0.14026465179E+02  0.17384005602E+01  0.14270150699E+02  0.51100000000E-03 0. -1.
        -11    1    3    3    0    0  0.11630520274E+02  0.10057091612E+02 -0.45804752409E+01  0.16043529762E+02  0.51100000000E-03 0.  1.
        -12    1    3    3    0    0 -0.39427213942E+01 -0.22347312778E+02  0.18038039189E+02  0.28988244137E+02  0.00000000000E+00 0.  1.
</event>
<event>
 7    1  0.1113211E-011  0.5930193E+02  0.7816164E-02  0.1266605E+00
        -11   -1    0    0    0    0  0.00000000000E+00  0.00000000000E+00  0.45593999997E+02  0.45594000000E+02  0.51100000000E-03 0.  1.
         11   -1    0    0    0    0 -0.00000000000E+00 -0.00000000000E+00 -0.45593999997E+02  0.45594000000E+02  0.51100000000E-03 0. -1.
    9900012    2    1    2    0    0  0.24294002453E+02 -0.91836524674E+01 -0.18498204575E+02  0.59301927800E+02  0.49999970404E+02 0.  0.
        -12    1    1    2    0    0 -0.24294002453E+02  0.91836524674E+01  0.18498204575E+02  0.31886072200E+02  0.00000000000E+00 0.  1.
         11    1    3    3    0    0  0.14412929815E+00 -0.29519029315E+01 -0.41554536040E+01  0.50992449528E+01  0.51100000000E-03 0. -1.
        -11    1    3    3    0    0  0.14445151409E+02 -0.13823214560E+02  0.13248913962E+02  0.23984940722E+02  0.51100000000E-03 0.  1.
        -12    1    3    3    0    0  0.97047217464E+01  0.75914650242E+01 -0.27591664933E+02  0.30217742126E+02  0.00000000000E+00 0.  1.
</event>
<event>
 7    1  0.1113211E-011  0.5930195E+02  0.7816164E-02  0.1266605E+00
        -11   -1    0    0    0    0  0.00000000000E+00  0.00000000000E+00  0.45593999997E+02  0.45594000000E+02  0.51100000000E-03 0. -1.
         11   -1    0    0    0    0 -0.00000000000E+00 -0.00000000000E+00 -0.45593999997E+02  0.45594000000E+02  0.51100000000E-03 0.  1.
    9900012    2    1    2    0    0 -0.20521854390E+02 -0.22601603627E+02  0.92055083781E+01  0.59301946958E+02  0.50000005343E+02 0.  0.
        -12    1    1    2    0    0  0.20521854390E+02  0.22601603627E+02 -0.92055083781E+01  0.31886053042E+02  0.00000000000E+00 0.  1.
         11    1    3    3    0    0 -0.22887872692E+02 -0.10946383517E+02  0.10096801724E+02  0.27306106163E+02  0.51100000000E-03 0. -1.
        -11    1    3    3    0    0  0.66442726435E+01 -0.16504215856E+02  0.91854319209E+01  0.20022678637E+02  0.51100000000E-03 0.  1.
        -12    1    3    3    0    0 -0.42782543414E+01  0.48489957454E+01 -0.10076725267E+02  0.11973162158E+02  0.00000000000E+00 0.  1.
</event>
<event>
 7    1  0.1113211E-011  0.5930195E+02  0.7816164E-02  0.1266605E+00
        -11   -1    0    0    0    0  0.00000000000E+00  0.00000000000E+00  0.45593999997E+02  0.45594000000E+02  0.51100000000E-03 0. -1.
         11   -1    0    0    0    0 -0.00000000000E+00 -0.00000000000E+00 -0.45593999997E+02  0.45594000000E+02  0.51100000000E-03 0.  1.
    9900012    2    1    2    0    0 -0.13881243673E+02  0.64615413085E+01  0.27969264095E+02  0.59301950135E+02  0.50000011138E+02 0.  0.
        -12    1    1    2    0    0  0.13881243673E+02 -0.64615413085E+01 -0.27969264095E+02  0.31886049865E+02  0.00000000000E+00 0.  1.
         11    1    3    3    0    0 -0.12925424797E+02  0.23205259820E+02  0.18117798363E+02  0.32152842911E+02  0.51100000000E-03 0. -1.
        -11    1    3    3    0    0  0.56940654669E+01 -0.28652340182E+01 -0.30507596109E+01  0.70667589449E+01  0.51100000000E-03 0.  1.
         12    1    3    3    0    0 -0.66498843435E+01 -0.13878484493E+02  0.12902225342E+02  0.20082348279E+02  0.00000000000E+00 0. -1.
</event>
<event>
 7    1  0.1113211E-011  0.5930196E+02  0.7816164E-02  0.1266605E+00
        -11   -1    0    0    0    0  0.00000000000E+00  0.00000000000E+00  0.45593999997E+02  0.45594000000E+02  0.51100000000E-03 0.  1.
         11   -1    0    0    0    0 -0.00000000000E+00 -0.00000000000E+00 -0.45593999997E+02  0.45594000000E+02  0.51100000000E-03 0. -1.
    9900012    2    1    2    0    0 -0.65774937699E+01  0.21147617003E+02 -0.22939801797E+02  0.59301958608E+02  0.50000026590E+02 0.  0.
        -12    1    1    2    0    0  0.65774937699E+01 -0.21147617003E+02  0.22939801797E+02  0.31886041392E+02  0.00000000000E+00 0.  1.
         11    1    3    3    0    0 -0.18922662817E+02  0.29241552906E+02 -0.19585372699E+02  0.39959009103E+02  0.51100000000E-03 0. -1.
        -11    1    3    3    0    0  0.13872444145E+02 -0.41038123507E+01 -0.40297299105E+01  0.15017480008E+02  0.51100000000E-03 0.  1.
         12    1    3    3    0    0 -0.15272750976E+01 -0.39901235522E+01  0.67530081273E+00  0.43254694974E+01  0.00000000000E+00 0. -1.
</event>
<event>
 7    1  0.1113211E-011  0.5930195E+02  0.7816164E-02  0.1266605E+00
        -11   -1    0    0    0    0  0.00000000000E+00  0.00000000000E+00  0.45593999997E+02  0.45594000000E+02  0.51100000000E-03 0. -1.
         11   -1    0    0    0    0 -0.00000000000E+00 -0.00000000000E+00 -0.45593999997E+02  0.45594000000E+02  0.51100000000E-03 0.  1.
    9900012    2    1    2    0    0 -0.12145217410E+02  0.28602163773E+02  0.71505472213E+01  0.59301946560E+02  0.50000004617E+02 0.  0.
        -12    1    1    2    0    0  0.12145217410E+02 -0.28602163773E+02 -0.71505472213E+01  0.31886053440E+02  0.00000000000E+00 0.  1.
         11    1    3    3    0    0 -0.87999571060E+01  0.17669542566E+02  0.61770949203E+01  0.20683531649E+02  0.51100000000E-03 0. -1.
        -11    1    3    3    0    0 -0.53221587788E+01 -0.11660204717E+02  0.77128807536E+01  0.14959086800E+02  0.51100000000E-03 0.  1.
        -12    1    3    3    0    0  0.19768984746E+01  0.22592825924E+02 -0.67394284526E+01  0.23659328111E+02  0.00000000000E+00 0.  1.
</event>
<event>
 7    1  0.1113211E-011  0.5930195E+02  0.7816164E-02  0.1266605E+00
        -11   -1    0    0    0    0  0.00000000000E+00  0.00000000000E+00  0.45593999997E+02  0.45594000000E+02  0.51100000000E-03 0. -1.
         11   -1    0    0    0    0 -0.00000000000E+00 -0.00000000000E+00 -0.45593999997E+02  0.45594000000E+02  0.51100000000E-03 0.  1.
    9900012    2    1    2    0    0 -0.97817706376E+01  0.14185350688E+02  0.26829330496E+02  0.59301949981E+02  0.50000010858E+02 0.  0.
        -12    1    1    2    0    0  0.97817706376E+01 -0.14185350688E+02 -0.26829330496E+02  0.31886050019E+02  0.00000000000E+00 0.  1.
         11    1    3    3    0    0  0.16922676433E+02  0.31639435675E+01  0.14684971557E+02  0.22628210412E+02  0.51100000000E-03 0. -1.
        -11    1    3    3    0    0 -0.22552919186E+02  0.28268705711E+00  0.49309636363E+01  0.23087409522E+02  0.51100000000E-03 0.  1.
         12    1    3    3    0    0 -0.41515278843E+01  0.10738720063E+02  0.72133953023E+01  0.13586330047E+02  0.00000000000E+00 0. -1.
</event>
<event>
 7    1  0.1113211E-011  0.5930199E+02  0.7816164E-02  0.1266605E+00
        -11   -1    0    0    0    0  0.00000000000E+00  0.00000000000E+00  0.45593999997E+02  0.45594000000E+02  0.51100000000E-03 0.  1.
         11   -1    0    0    0    0 -0.00000000000E+00 -0.00000000000E+00 -0.45593999997E+02  0.45594000000E+02  0.51100000000E-03 0. -1.
    9900012    2    1    2    0    0 -0.10282518321E+02  0.26297434740E+02 -0.14813240231E+02  0.59301994557E+02  0.50000092153E+02 0.  0.
        -12    1    1    2    0    0  0.10282518321E+02 -0.26297434740E+02  0.14813240231E+02  0.31886005443E+02  0.00000000000E+00 0.  1.
         11    1    3    3    0    0 -0.20219400112E+02  0.57191707359E+01  0.26293348060E+01  0.21176554408E+02  0.51100000000E-03 0. -1.
        -11    1    3    3    0    0  0.14148749854E+02  0.95015678790E+01 -0.60497165644E-02  0.17043091018E+02  0.51100000000E-03 0.  1.
         12    1    3    3    0    0 -0.42118680630E+01  0.11076696125E+02 -0.17436525321E+02  0.21082349131E+02  0.00000000000E+00 0. -1.
</event>
<event>
 7    1  0.1113211E-011  0.5930176E+02  0.7816164E-02  0.1266605E+00
        -11   -1    0    0    0    0  0.00000000000E+00  0.00000000000E+00  0.45593999997E+02  0.45594000000E+02  0.51100000000E-03 0. -1.
         11   -1    0    0    0    0 -0.00000000000E+00 -0.00000000000E+00 -0.45593999997E+02  0.45594000000E+02  0.51100000000E-03 0.  1.
    9900012    2    1    2    0    0 -0.12880087301E+02  0.29127608993E+02  0.15549913415E+01  0.59301760764E+02  0.49999665770E+02 0.  0.
        -12    1    1    2    0    0  0.12880087301E+02 -0.29127608993E+02 -0.15549913415E+01  0.31886239236E+02  0.00000000000E+00 0.  1.
         11    1    3    3    0    0 -0.20296592374E+02  0.36979658037E+02  0.37847598053E+01  0.42352935879E+02  0.51100000000E-03 0. -1.
        -11    1    3    3    0    0 -0.26327267702E+01 -0.47589560849E+01 -0.33296899446E+01  0.63769701781E+01  0.51100000000E-03 0.  1.
         12    1    3    3    0    0  0.10049231843E+02 -0.30930929592E+01  0.10999214808E+01  0.10571854707E+02  0.00000000000E+00 0. -1.
</event>
<event>
 7    1  0.1113211E-011  0.5930194E+02  0.7816164E-02  0.1266605E+00
        -11   -1    0    0    0    0  0.00000000000E+00  0.00000000000E+00  0.45593999997E+02  0.45594000000E+02  0.51100000000E-03 0. -1.
         11   -1    0    0    0    0 -0.00000000000E+00 -0.00000000000E+00 -0.45593999997E+02  0.45594000000E+02  0.51100000000E-03 0.  1.
    9900012    2    1    2    0    0 -0.19009140603E+02 -0.25482791764E+02 -0.24495973276E+01  0.59301943022E+02  0.49999998166E+02 0.  0.
        -12    1    1    2    0    0  0.19009140603E+02  0.25482791764E+02  0.24495973276E+01  0.31886056978E+02  0.00000000000E+00 0.  1.
         11    1    3    3    0    0 -0.17789473911E+02 -0.18264730858E+02  0.12531335023E+02  0.28409507794E+02  0.51100000000E-03 0. -1.
        -11    1    3    3    0    0 -0.16814688505E+01 -0.16457872418E+02 -0.13843286655E+02  0.21571404398E+02  0.51100000000E-03 0.  1.
         12    1    3    3    0    0  0.46180215879E+00  0.92398115124E+01 -0.11376456953E+01  0.93210308307E+01  0.00000000000E+00 0. -1.
</event>
<event>
 7    1  0.1113211E-011  0.5930193E+02  0.7816164E-02  0.1266605E+00
        -11   -1    0    0    0    0  0.00000000000E+00  0.00000000000E+00  0.45593999997E+02  0.45594000000E+02  0.51100000000E-03 0.  1.
         11   -1    0    0    0    0 -0.00000000000E+00 -0.00000000000E+00 -0.45593999997E+02  0.45594000000E+02  0.51100000000E-03 0. -1.
    9900012    2    1    2    0    0  0.36355491630E+01  0.61507967475E+01 -0.31075263812E+02  0.59301928756E+02  0.49999972149E+02 0.  0.
        -12    1    1    2    0    0 -0.36355491630E+01 -0.61507967475E+01  0.31075263812E+02  0.31886071244E+02  0.00000000000E+00 0.  1.
         11    1    3    3    0    0  0.13177896873E+02  0.87266568196E+01 -0.11719163771E+02  0.19676135418E+02  0.51100000000E-03 0. -1.
        -11    1    3    3    0    0 -0.15811568929E+02 -0.10699967955E+02 -0.21899904879E+02  0.29053413916E+02  0.51100000000E-03 0.  1.
        -12    1    3    3    0    0  0.62692212191E+01  0.81241078828E+01  0.25438048379E+01  0.10572379422E+02  0.00000000000E+00 0.  1.
</event>
<event>
 7    1  0.1113211E-011  0.5930200E+02  0.7816164E-02  0.1266605E+00
        -11   -1    0    0    0    0  0.00000000000E+00  0.00000000000E+00  0.45593999997E+02  0.45594000000E+02  0.51100000000E-03 0. -1.
         11   -1    0    0    0    0 -0.00000000000E+00 -0.00000000000E+00 -0.45593999997E+02  0.45594000000E+02  0.51100000000E-03 0.  1.
    9900012    2    1    2    0    0 -0.29788766959E+02 -0.51738931139E+01  0.10128052972E+02  0.59301995799E+02  0.50000094419E+02 0.  0.
        -12    1    1    2    0    0  0.29788766959E+02  0.51738931139E+01 -0.10128052972E+02  0.31886004201E+02  0.00000000000E+00 0.  1.
         11    1    3    3    0    0 -0.37029282131E+01 -0.11065236932E+02  0.13336137337E+02  0.17720149690E+02  0.51100000000E-03 0. -1.
        -11    1    3    3    0    0 -0.15111381936E+02 -0.47182271369E+01 -0.15370074224E+02  0.22064784459E+02  0.51100000000E-03 0.  1.
         12    1    3    3    0    0 -0.10974456810E+02  0.10609570955E+02  0.12161989859E+02  0.19517061650E+02  0.00000000000E+00 0. -1.
</event>
<event>
 7    1  0.1113211E-011  0.5930195E+02  0.7816164E-02  0.1266605E+00
        -11   -1    0    0    0    0  0.00000000000E+00  0.00000000000E+00  0.45593999997E+02  0.45594000000E+02  0.51100000000E-03 0.  1.
         11   -1    0    0    0    0 -0.00000000000E+00 -0.00000000000E+00 -0.45593999997E+02  0.45594000000E+02  0.51100000000E-03 0. -1.
    9900012    2    1    2    0    0  0.26297052584E+02  0.53658866698E+00 -0.18024904184E+02  0.59301951752E+02  0.50000014088E+02 0.  0.
        -12    1    1    2    0    0 -0.26297052584E+02 -0.53658866698E+00  0.18024904184E+02  0.31886048248E+02  0.00000000000E+00 0.  1.
         11    1    3    3    0    0  0.95643804685E+01  0.55467317220E+00 -0.77947928949E+01  0.12350863638E+02  0.51100000000E-03 0. -1.
        -11    1    3    3    0    0 -0.86846393875E+01  0.13990921779E+02 -0.64429283326E+01  0.17682765035E+02  0.51100000000E-03 0.  1.
        -12    1    3    3    0    0  0.25417311503E+02 -0.14009006285E+02 -0.37871829566E+01  0.29268323079E+02  0.00000000000E+00 0.  1.
</event>
<event>
 7    1  0.1113211E-011  0.5930193E+02  0.7816164E-02  0.1266605E+00
        -11   -1    0    0    0    0  0.00000000000E+00  0.00000000000E+00  0.45593999997E+02  0.45594000000E+02  0.51100000000E-03 0.  1.
         11   -1    0    0    0    0 -0.00000000000E+00 -0.00000000000E+00 -0.45593999997E+02  0.45594000000E+02  0.51100000000E-03 0. -1.
    9900012    2    1    2    0    0 -0.92067436790E+01 -0.30527021547E+02  0.24088599448E+00  0.59301934081E+02  0.49999981860E+02 0.  0.
        -12    1    1    2    0    0  0.92067436790E+01  0.30527021547E+02 -0.24088599448E+00  0.31886065919E+02  0.00000000000E+00 0.  1.
         11    1    3    3    0    0 -0.20778496018E+01 -0.47220945861E+01 -0.56783279041E+01  0.76719648263E+01  0.51100000000E-03 0. -1.
        -11    1    3    3    0    0  0.16871165342E+02 -0.15863574022E+02  0.10195295162E+02  0.25302830759E+02  0.51100000000E-03 0.  1.
        -12    1    3    3    0    0 -0.24000059419E+02 -0.99413529392E+01 -0.42760812633E+01  0.26327138495E+02  0.00000000000E+00 0.  1.
</event>
<event>
 7    1  0.1113211E-011  0.5930201E+02  0.7816164E-02  0.1266605E+00
        -11   -1    0    0    0    0  0.00000000000E+00  0.00000000000E+00  0.45593999997E+02  0.45594000000E+02  0.51100000000E-03 0.  1.
         11   -1    0    0    0    0 -0.00000000000E+00 -0.00000000000E+00 -0.45593999997E+02  0.45594000000E+02  0.51100000000E-03 0. -1.
    9900012    2    1    2    0    0 -0.26662470794E+02  0.44029683755E+01  0.16924625787E+02  0.59302008760E+02  0.50000118055E+02 0.  0.
        -12    1    1    2    0    0  0.26662470794E+02 -0.44029683755E+01 -0.16924625787E+02  0.31885991240E+02  0.00000000000E+00 0.  1.
         11    1    3    3    0    0 -0.18063792456E+02 -0.19775554990E+01 -0.15044089417E+02  0.23591014185E+02  0.51100000000E-03 0. -1.
        -11    1    3    3    0    0 -0.55040564569E+01 -0.28309565825E+01  0.11896676113E+02  0.13410438302E+02  0.51100000000E-03 0.  1.
         12    1    3    3    0    0 -0.30946218809E+01  0.92114804570E+01  0.20072039091E+02  0.22300556272E+02  0.00000000000E+00 0. -1.
</event>
<event>
 7    1  0.1113211E-011  0.5930202E+02  0.7816164E-02  0.1266605E+00
        -11   -1    0    0    0    0  0.00000000000E+00  0.00000000000E+00  0.45593999997E+02  0.45594000000E+02  0.51100000000E-03 0. -1.
         11   -1    0    0    0    0 -0.00000000000E+00 -0.00000000000E+00 -0.45593999997E+02  0.45594000000E+02  0.51100000000E-03 0.  1.
    9900012    2    1    2    0    0  0.30060279264E+02 -0.10628605023E+02 -0.35814661771E+00  0.59302017136E+02  0.50000133333E+02 0.  0.
        -12    1    1    2    0    0 -0.30060279264E+02  0.10628605023E+02  0.35814661771E+00  0.31885982864E+02  0.00000000000E+00 0.  1.
         11    1    3    3    0    0  0.18867027610E+02 -0.16838971567E+02 -0.18720549971E+02  0.31463863173E+02  0.51100000000E-03 0.  1.
        -11    1    3    3    0    0  0.15179181963E+02  0.64364766082E+01  0.16834446651E+02  0.23563412115E+02  0.51100000000E-03 0. -1.
         12    1    3    3    0    0 -0.39859303090E+01 -0.22611006443E+00  0.15279567022E+01  0.42747418487E+01  0.00000000000E+00 0. -1.
</event>
<event>
 7    1  0.1113211E-011  0.5930193E+02  0.7816164E-02  0.1266605E+00
        -11   -1    0    0    0    0  0.00000000000E+00  0.00000000000E+00  0.45593999997E+02  0.45594000000E+02  0.51100000000E-03 0.  1.
         11   -1    0    0    0    0 -0.00000000000E+00 -0.00000000000E+00 -0.45593999997E+02  0.45594000000E+02  0.51100000000E-03 0. -1.
    9900012    2    1    2    0    0  0.11003875412E+02 -0.17193893087E+02 -0.24495029038E+02  0.59301926533E+02  0.49999968094E+02 0.  0.
        -12    1    1    2    0    0 -0.11003875412E+02  0.17193893087E+02  0.24495029038E+02  0.31886073467E+02  0.00000000000E+00 0.  1.
         11    1    3    3    0    0  0.67243436950E+00 -0.16879123693E+02 -0.37215010214E+02  0.40869474796E+02  0.51100000000E-03 0. -1.
        -11    1    3    3    0    0  0.16077198420E+01 -0.36224325940E+01  0.45192836872E+01  0.60108823225E+01  0.51100000000E-03 0.  1.
         12    1    3    3    0    0  0.87237212000E+01  0.33076632000E+01  0.82006974886E+01  0.12421569415E+02  0.00000000000E+00 0. -1.
</event>
<event>
 7    1  0.1113211E-011  0.5930198E+02  0.7816164E-02  0.1266605E+00
        -11   -1    0    0    0    0  0.00000000000E+00  0.00000000000E+00  0.45593999997E+02  0.45594000000E+02  0.51100000000E-03 0. -1.
         11   -1    0    0    0    0 -0.00000000000E+00 -0.00000000000E+00 -0.45593999997E+02  0.45594000000E+02  0.51100000000E-03 0.  1.
    9900012    2    1    2    0    0 -0.27043314740E+01 -0.30260380898E+02  0.96806189155E+01  0.59301977303E+02  0.50000060687E+02 0.  0.
        -12    1    1    2    0    0  0.27043314740E+01  0.30260380898E+02 -0.96806189155E+01  0.31886022697E+02  0.00000000000E+00 0.  1.
         11    1    3    3    0    0 -0.11821923454E+02 -0.61940459948E+01  0.10733054579E+02  0.17126661694E+02  0.51100000000E-03 0. -1.
        -11    1    3    3    0    0  0.19884575556E+02 -0.22871033303E+02 -0.48577269855E+01  0.30693289513E+02  0.51100000000E-03 0.  1.
        -12    1    3    3    0    0 -0.10766983576E+02 -0.11953016003E+01  0.38052913224E+01  0.11482026097E+02  0.00000000000E+00 0.  1.
</event>
<event>
 7    1  0.1113211E-011  0.5930196E+02  0.7816164E-02  0.1266605E+00
        -11   -1    0    0    0    0  0.00000000000E+00  0.00000000000E+00  0.45593999997E+02  0.45594000000E+02  0.51100000000E-03 0.  1.
         11   -1    0    0    0    0 -0.00000000000E+00 -0.00000000000E+00 -0.45593999997E+02  0.45594000000E+02  0.51100000000E-03 0. -1.
    9900012    2    1    2    0    0  0.19874825530E+02  0.15027740093E+02 -0.19896677629E+02  0.59301961632E+02  0.50000032106E+02 0.  0.
        -12    1    1    2    0    0 -0.19874825530E+02 -0.15027740093E+02  0.19896677629E+02  0.31886038368E+02  0.00000000000E+00 0.  1.
         11    1    3    3    0    0  0.90473409279E+00  0.18893528471E+02 -0.41278122369E+01  0.19360340802E+02  0.51100000000E-03 0. -1.
        -11    1    3    3    0    0  0.25539910031E+02 -0.39507555367E+01 -0.35743355729E+01  0.26089678970E+02  0.51100000000E-03 0.  1.
         12    1    3    3    0    0 -0.65698185941E+01  0.84967159129E-01 -0.12194529819E+02  0.13851941860E+02  0.00000000000E+00 0. -1.
</event>
<event>
 7    1  0.1113211E-011  0.5930193E+02  0.7816164E-02  0.1266605E+00
        -11   -1    0    0    0    0  0.00000000000E+00  0.00000000000E+00  0.45593999997E+02  0.45594000000E+02  0.51100000000E-03 0.  1.
         11   -1    0    0    0    0 -0.00000000000E+00 -0.00000000000E+00 -0.45593999997E+02  0.45594000000E+02  0.51100000000E-03 0. -1.
    9900012    2    1    2    0    0  0.41668143740E+01 -0.26965857228E+02 -0.16498525875E+02  0.59301934797E+02  0.49999983166E+02 0.  0.
        -12    1    1    2    0    0 -0.41668143740E+01  0.26965857228E+02  0.16498525875E+02  0.31886065203E+02  0.00000000000E+00 0.  1.
         11    1    3    3    0    0  0.17188088268E+02 -0.22961318439E+02 -0.12153951825E+02  0.31150779572E+02  0.51100000000E-03 0. -1.
        -11    1    3    3    0    0 -0.16017544843E+02 -0.57843358843E+01 -0.11254013328E+02  0.20412572123E+02  0.51100000000E-03 0.  1.
        -12    1    3    3    0    0  0.29962709490E+01  0.17797970954E+01  0.69094392777E+01  0.77385831024E+01  0.00000000000E+00 0.  1.
</event>
<event>
 7    1  0.1113211E-011  0.5930194E+02  0.7816164E-02  0.1266605E+00
        -11   -1    0    0    0    0  0.00000000000E+00  0.00000000000E+00  0.45593999997E+02  0.45594000000E+02  0.51100000000E-03 0.  1.
         11   -1    0    0    0    0 -0.00000000000E+00 -0.00000000000E+00 -0.45593999997E+02  0.45594000000E+02  0.51100000000E-03 0. -1.
    9900012    2    1    2    0    0 -0.11932706343E+02 -0.26314431096E+02 -0.13486366559E+02  0.59301939605E+02  0.49999991933E+02 0.  0.
        -12    1    1    2    0    0  0.11932706343E+02  0.26314431096E+02  0.13486366559E+02  0.31886060395E+02  0.00000000000E+00 0.  1.
         11    1    3    3    0    0  0.38030944636E+01  0.65082906538E+01 -0.42214916319E+01  0.86395813899E+01  0.51100000000E-03 0. -1.
        -11    1    3    3    0    0 -0.15599203121E+02 -0.19512346375E+02  0.10281183833E+02  0.27014246988E+02  0.51100000000E-03 0.  1.
        -12    1    3    3    0    0 -0.13659768533E+00 -0.13310375375E+02 -0.19546058760E+02  0.23648111227E+02  0.00000000000E+00 0.  1.
</event>
<event>
 7    1  0.1113211E-011  0.5930195E+02  0.7816164E-02  0.1266605E+00
        -11   -1    0    0    0    0  0.00000000000E+00  0.00000000000E+00  0.45593999997E+02  0.45594000000E+02  0.51100000000E-03 0. -1.
         11   -1    0    0    0    0 -0.00000000000E+00 -0.00000000000E+00 -0.45593999997E+02  0.45594000000E+02  0.51100000000E-03 0.  1.
    9900012    2    1    2    0    0  0.26330265256E+02 -0.15693674563E+02 -0.87832862571E+01  0.59301946509E+02  0.50000004525E+02 0.  0.
        -12    1    1    2    0    0 -0.26330265256E+02  0.15693674563E+02  0.87832862571E+01  0.31886053491E+02  0.00000000000E+00 0.  1.
         11    1    3    3    0    0  0.31116848727E+02 -0.68156750058E+01 -0.90213601068E+01  0.33107350225E+02  0.51100000000E-03 0. -1.
        -11    1    3    3    0    0 -0.70883979926E+01 -0.41630769495E+01 -0.11034974327E+02  0.13760350811E+02  0.51100000000E-03 0.  1.
        -12    1    3    3    0    0  0.23018145219E+01 -0.47149226077E+01  0.11273048177E+02  0.12434245473E+02  0.00000000000E+00 0.  1.
</event>
<event>
 7    1  0.1113211E-011  0.5930193E+02  0.7816164E-02  0.1266605E+00
        -11   -1    0    0    0    0  0.00000000000E+00  0.00000000000E+00  0.45593999997E+02  0.45594000000E+02  0.51100000000E-03 0. -1.
         11   -1    0    0    0    0 -0.00000000000E+00 -0.00000000000E+00 -0.45593999997E+02  0.45594000000E+02  0.51100000000E-03 0.  1.
    9900012    2    1    2    0    0  0.14081132864E+02  0.14598494347E+02  0.24603394418E+02  0.59301931618E+02  0.49999977368E+02 0.  0.
        -12    1    1    2    0    0 -0.14081132864E+02 -0.14598494347E+02 -0.24603394418E+02  0.31886068382E+02  0.00000000000E+00 0.  1.
         11    1    3    3    0    0  0.21023702128E+02  0.81726889915E+01  0.54438473066E+01  0.23203973157E+02  0.51100000000E-03 0. -1.
        -11    1    3    3    0    0 -0.89319686091E+01  0.17303606245E+02  0.13318353938E+02  0.23591807989E+02  0.51100000000E-03 0.  1.
        -12    1    3    3    0    0  0.19893993448E+01 -0.10877800889E+02  0.58411931738E+01  0.12506150472E+02  0.00000000000E+00 0.  1.
</event>
<event>
 7    1  0.1113211E-011  0.5930194E+02  0.7816164E-02  0.1266605E+00
        -11   -1    0    0    0    0  0.00000000000E+00  0.00000000000E+00  0.45593999997E+02  0.45594000000E+02  0.51100000000E-03 0. -1.
         11   -1    0    0    0    0 -0.00000000000E+00 -0.00000000000E+00 -0.45593999997E+02  0.45594000000E+02  0.51100000000E-03 0.  1.
    9900012    2    1    2    0    0  0.27750556711E+02  0.11781133377E+02  0.10384248691E+02  0.59301935296E+02  0.49999984076E+02 0.  0.
        -12    1    1    2    0    0 -0.27750556711E+02 -0.11781133377E+02 -0.10384248691E+02  0.31886064704E+02  0.00000000000E+00 0.  1.
         11    1    3    3    0    0  0.31256543481E+01  0.23849716179E+01  0.47872179253E+01  0.61947768682E+01  0.51100000000E-03 0. -1.
        -11    1    3    3    0    0 -0.14961093338E+01  0.21124965903E+02 -0.63081358579E+01  0.22097400431E+02  0.51100000000E-03 0.  1.
        -12    1    3    3    0    0  0.26121011696E+02 -0.11728804144E+02  0.11905166624E+02  0.31009757997E+02  0.00000000000E+00 0.  1.
</event>
<event>
 7    1  0.1113211E-011  0.5930194E+02  0.7816164E-02  0.1266605E+00
        -11   -1    0    0    0    0  0.00000000000E+00  0.00000000000E+00  0.45593999997E+02  0.45594000000E+02  0.51100000000E-03 0. -1.
         11   -1    0    0    0    0 -0.00000000000E+00 -0.00000000000E+00 -0.45593999997E+02  0.45594000000E+02  0.51100000000E-03 0.  1.
    9900012    2    1    2    0    0  0.30007215185E+02 -0.35572650011E+01 -0.10180054166E+02  0.59301943482E+02  0.49999999005E+02 0.  0.
        -12    1    1    2    0    0 -0.30007215185E+02  0.35572650011E+01  0.10180054166E+02  0.31886056518E+02  0.00000000000E+00 0.  1.
         11    1    3    3    0    0  0.34704554120E+02  0.75427127544E+01 -0.96598568450E+01  0.36805046215E+02  0.51100000000E-03 0. -1.
        -11    1    3    3    0    0  0.98848485942E+00  0.12134141243E+01 -0.72072527304E+01  0.73752266633E+01  0.51100000000E-03 0.  1.
         12    1    3    3    0    0 -0.56858237939E+01 -0.12313391880E+02  0.66870554099E+01  0.15121670604E+02  0.00000000000E+00 0. -1.
</event>
<event>
 7    1  0.1113211E-011  0.5930199E+02  0.7816164E-02  0.1266605E+00
        -11   -1    0    0    0    0  0.00000000000E+00  0.00000000000E+00  0.45593999997E+02  0.45594000000E+02  0.51100000000E-03 0. -1.
         11   -1    0    0    0    0 -0.00000000000E+00 -0.00000000000E+00 -0.45593999997E+02  0.45594000000E+02  0.51100000000E-03 0.  1.
    9900012    2    1    2    0    0  0.22683285819E+02 -0.11722493525E+02  0.19098933878E+02  0.59301990759E+02  0.50000085227E+02 0.  0.
        -12    1    1    2    0    0 -0.22683285819E+02  0.11722493525E+02 -0.19098933878E+02  0.31886009241E+02  0.00000000000E+00 0.  1.
         11    1    3    3    0    0  0.33532395290E+02  0.30584585194E+01  0.22316313422E+02  0.40395464441E+02  0.51100000000E-03 0. -1.
        -11    1    3    3    0    0 -0.41886470938E+01 -0.55126063023E+01 -0.28506547904E+01  0.74873109803E+01  0.51100000000E-03 0.  1.
         12    1    3    3    0    0 -0.66604623770E+01 -0.92683457425E+01 -0.36672475370E+00  0.11419215337E+02  0.00000000000E+00 0. -1.
</event>
<event>
 7    1  0.1113211E-011  0.5930194E+02  0.7816164E-02  0.1266605E+00
        -11   -1    0    0    0    0  0.00000000000E+00  0.00000000000E+00  0.45593999997E+02  0.45594000000E+02  0.51100000000E-03 0. -1.
         11   -1    0    0    0    0 -0.00000000000E+00 -0.00000000000E+00 -0.45593999997E+02  0.45594000000E+02  0.51100000000E-03 0.  1.
    9900012    2    1    2    0    0  0.13112800144E+02  0.11190072419E+02  0.26824574724E+02  0.59301936313E+02  0.49999985930E+02 0.  0.
        -12    1    1    2    0    0 -0.13112800144E+02 -0.11190072419E+02 -0.26824574724E+02  0.31886063687E+02  0.00000000000E+00 0.  1.
         11    1    3    3    0    0 -0.26085564361E+01 -0.45550807549E+00  0.29082563790E+01  0.39331933227E+01  0.51100000000E-03 0. -1.
        -11    1    3    3    0    0  0.21812859899E+02  0.22615595823E+02  0.28088637901E+02  0.42145434045E+02  0.51100000000E-03 0.  1.
        -12    1    3    3    0    0 -0.60915033189E+01 -0.10970015328E+02 -0.41723195566E+01  0.13223308945E+02  0.00000000000E+00 0.  1.
</event>
<event>
 7    1  0.1113211E-011  0.5930195E+02  0.7816164E-02  0.1266605E+00
        -11   -1    0    0    0    0  0.00000000000E+00  0.00000000000E+00  0.45593999997E+02  0.45594000000E+02  0.51100000000E-03 0. -1.
         11   -1    0    0    0    0 -0.00000000000E+00 -0.00000000000E+00 -0.45593999997E+02  0.45594000000E+02  0.51100000000E-03 0.  1.
    9900012    2    1    2    0    0  0.22649991339E+02 -0.12194848195E+02  0.18841017701E+02  0.59301946965E+02  0.50000005357E+02 0.  0.
        -12    1    1    2    0    0 -0.22649991339E+02  0.12194848195E+02 -0.18841017701E+02  0.31886053035E+02  0.00000000000E+00 0.  1.
         11    1    3    3    0    0  0.34967119358E+02 -0.52821181518E+01  0.22527832808E+02  0.41929744331E+02  0.51100000000E-03 0. -1.
        -11    1    3    3    0    0 -0.27303320475E+01 -0.21893401180E+01  0.31306737046E+01  0.46956406749E+01  0.51100000000E-03 0.  1.
         12    1    3    3    0    0 -0.95867959723E+01 -0.47233899249E+01 -0.68174888122E+01  0.12676561959E+02  0.00000000000E+00 0. -1.
</event>
<event>
 7    1  0.1113211E-011  0.5930195E+02  0.7816164E-02  0.1266605E+00
        -11   -1    0    0    0    0  0.00000000000E+00  0.00000000000E+00  0.45593999997E+02  0.45594000000E+02  0.51100000000E-03 0.  1.
         11   -1    0    0    0    0 -0.00000000000E+00 -0.00000000000E+00 -0.45593999997E+02  0.45594000000E+02  0.51100000000E-03 0. -1.
    9900012    2    1    2    0    0  0.23347752343E+02 -0.14651521605E+02 -0.16029214304E+02  0.59301947626E+02  0.50000006563E+02 0.  0.
        -12    1    1    2    0    0 -0.23347752343E+02  0.14651521605E+02  0.16029214304E+02  0.31886052374E+02  0.00000000000E+00 0.  1.
         11    1    3    3    0    0  0.18676488974E+02  0.49498259121E+01 -0.22643759406E+02  0.29766623208E+02  0.51100000000E-03 0. -1.
        -11    1    3    3    0    0  0.10850360909E+02 -0.18303962173E+02  0.85495423616E+01  0.22931638361E+02  0.51100000000E-03 0.  1.
        -12    1    3    3    0    0 -0.61790975400E+01 -0.12973853438E+01 -0.19349972595E+01  0.66036860565E+01  0.00000000000E+00 0.  1.
</event>
<event>
 7    1  0.1113211E-011  0.5930194E+02  0.7816164E-02  0.1266605E+00
        -11   -1    0    0    0    0  0.00000000000E+00  0.00000000000E+00  0.45593999997E+02  0.45594000000E+02  0.51100000000E-03 0.  1.
         11   -1    0    0    0    0 -0.00000000000E+00 -0.00000000000E+00 -0.45593999997E+02  0.45594000000E+02  0.51100000000E-03 0. -1.
    9900012    2    1    2    0    0 -0.19867793656E+02 -0.14978889657E+02 -0.19940515831E+02  0.59301944557E+02  0.50000000965E+02 0.  0.
        -12    1    1    2    0    0  0.19867793656E+02  0.14978889657E+02  0.19940515831E+02  0.31886055443E+02  0.00000000000E+00 0.  1.
         11    1    3    3    0    0 -0.18213435630E+02  0.86702795020E+01  0.80873292335E+01  0.21732645455E+02  0.51100000000E-03 0. -1.
        -11    1    3    3    0    0 -0.13601154187E+00 -0.79211732634E+01 -0.41684430461E+01  0.89520613659E+01  0.51100000000E-03 0.  1.
         12    1    3    3    0    0 -0.15183464838E+01 -0.15727995896E+02 -0.23859402018E+02  0.28617237736E+02  0.00000000000E+00 0. -1.
</event>
<event>
 7    1  0.1113211E-011  0.5930203E+02  0.7816164E-02  0.1266604E+00
        -11   -1    0    0    0    0  0.00000000000E+00  0.00000000000E+00  0.45593999997E+02  0.45594000000E+02  0.51100000000E-03 0.  1.
         11   -1    0    0    0    0 -0.00000000000E+00 -0.00000000000E+00 -0.45593999997E+02  0.45594000000E+02  0.51100000000E-03 0. -1.
    9900012    2    1    2    0    0 -0.21668677148E+02  0.19391476742E+02  0.13082579313E+02  0.59302034105E+02  0.50000164279E+02 0.  0.
        -12    1    1    2    0    0  0.21668677148E+02 -0.19391476742E+02 -0.13082579313E+02  0.31885965895E+02  0.00000000000E+00 0.  1.
         11    1    3    3    0    0 -0.20666068592E+02  0.25406582520E+02  0.21118431713E+02  0.38968820673E+02  0.51100000000E-03 0. -1.
        -11    1    3    3    0    0 -0.17805835067E+00 -0.11162091434E+02 -0.50576512618E+00  0.11174962576E+02  0.51100000000E-03 0.  1.
         12    1    3    3    0    0 -0.82455020537E+00  0.51469856559E+01 -0.75300872741E+01  0.91582508559E+01  0.00000000000E+00 0. -1.
</event>
<event>
 7    1  0.1113211E-011  0.5930219E+02  0.7816164E-02  0.1266604E+00
        -11   -1    0    0    0    0  0.00000000000E+00  0.00000000000E+00  0.45593999997E+02  0.45594000000E+02  0.51100000000E-03 0. -1.
         11   -1    0    0    0    0 -0.00000000000E+00 -0.00000000000E+00 -0.45593999997E+02  0.45594000000E+02  0.51100000000E-03 0.  1.
    9900012    2    1    2    0    0 -0.60826169300E+01 -0.30834217665E+02  0.53812481607E+01  0.59302187489E+02  0.50000444013E+02 0.  0.
        -12    1    1    2    0    0  0.60826169300E+01  0.30834217665E+02 -0.53812481607E+01  0.31885812511E+02  0.00000000000E+00 0.  1.
         11    1    3    3    0    0 -0.30080980057E+00  0.27047088817E+01  0.88186157628E+01  0.92289718227E+01  0.51100000000E-03 0. -1.
        -11    1    3    3    0    0  0.15494527723E+02 -0.16680513979E+02 -0.25998852847E+01  0.22914609744E+02  0.51100000000E-03 0.  1.
        -12    1    3    3    0    0 -0.21276334852E+02 -0.16858412567E+02 -0.83748231751E+00  0.27158605923E+02  0.00000000000E+00 0.  1.
</event>
<event>
 7    1  0.1113211E-011  0.5930215E+02  0.7816164E-02  0.1266604E+00
        -11   -1    0    0    0    0  0.00000000000E+00  0.00000000000E+00  0.45593999997E+02  0.45594000000E+02  0.51100000000E-03 0.  1.
         11   -1    0    0    0    0 -0.00000000000E+00 -0.00000000000E+00 -0.45593999997E+02  0.45594000000E+02  0.51100000000E-03 0. -1.
    9900012    2    1    2    0    0 -0.94850482557E+01  0.29286671044E+02 -0.83085787265E+01  0.59302145429E+02  0.50000367306E+02 0.  0.
        -12    1    1    2    0    0  0.94850482557E+01 -0.29286671044E+02  0.83085787265E+01  0.31885854571E+02  0.00000000000E+00 0.  1.
         11    1    3    3    0    0 -0.16345287509E+02  0.25320993877E+02 -0.50380904887E+01  0.30556562481E+02  0.51100000000E-03 0. -1.
        -11    1    3    3    0    0  0.16990773725E+02  0.61323260621E+01 -0.72647905077E+00  0.18078152195E+02  0.51100000000E-03 0.  1.
        -12    1    3    3    0    0 -0.10130534472E+02 -0.21666488946E+01 -0.25440091870E+01  0.10667430753E+02  0.00000000000E+00 0.  1.
</event>
<event>
 7    1  0.1113211E-011  0.5930192E+02  0.7816164E-02  0.1266605E+00
        -11   -1    0    0    0    0  0.00000000000E+00  0.00000000000E+00  0.45593999997E+02  0.45594000000E+02  0.51100000000E-03 0.  1.
         11   -1    0    0    0    0 -0.00000000000E+00 -0.00000000000E+00 -0.45593999997E+02  0.45594000000E+02  0.51100000000E-03 0. -1.
    9900012    2    1    2    0    0  0.28904872745E+02 -0.35833596508E+01  0.12976508841E+02  0.59301922842E+02  0.49999961363E+02 0.  0.
        -12    1    1    2    0    0 -0.28904872745E+02  0.35833596508E+01 -0.12976508841E+02  0.31886077158E+02  0.00000000000E+00 0.  1.
         11    1    3    3    0    0  0.21684031113E+02  0.80786693150E+01  0.36520950650E+01  0.23426478648E+02  0.51100000000E-03 0. -1.
        -11    1    3    3    0    0  0.14922014647E+02 -0.15409182799E+02 -0.21495371124E+01  0.21557596010E+02  0.51100000000E-03 0.  1.
        -12    1    3    3    0    0 -0.77011730151E+01  0.37471538330E+01  0.11473950888E+02  0.14317848185E+02  0.00000000000E+00 0.  1.
</event>
<event>
 7    1  0.1113211E-011  0.5930175E+02  0.7816164E-02  0.1266605E+00
        -11   -1    0    0    0    0  0.00000000000E+00  0.00000000000E+00  0.45593999997E+02  0.45594000000E+02  0.51100000000E-03 0. -1.
         11   -1    0    0    0    0 -0.00000000000E+00 -0.00000000000E+00 -0.45593999997E+02  0.45594000000E+02  0.51100000000E-03 0.  1.
    9900012    2    1    2    0    0  0.14461483633E+02 -0.55450712336E+01  0.27872037123E+02  0.59301752537E+02  0.49999650766E+02 0.  0.
        -12    1    1    2    0    0 -0.14461483633E+02  0.55450712336E+01 -0.27872037123E+02  0.31886247463E+02  0.00000000000E+00 0.  1.
         11    1    3    3    0    0  0.11013167893E+02  0.13418832034E+02  0.13439612604E+02  0.21953999804E+02  0.51100000000E-03 0. -1.
        -11    1    3    3    0    0 -0.12285579384E+02 -0.10497217886E+02  0.39600099426E+01  0.16637569629E+02  0.51100000000E-03 0.  1.
         12    1    3    3    0    0  0.15733895125E+02 -0.84666853820E+01  0.10472414576E+02  0.20710183104E+02  0.00000000000E+00 0. -1.
</event>
<event>
 7    1  0.1113211E-011  0.5930196E+02  0.7816164E-02  0.1266605E+00
        -11   -1    0    0    0    0  0.00000000000E+00  0.00000000000E+00  0.45593999997E+02  0.45594000000E+02  0.51100000000E-03 0.  1.
         11   -1    0    0    0    0 -0.00000000000E+00 -0.00000000000E+00 -0.45593999997E+02  0.45594000000E+02  0.51100000000E-03 0. -1.
    9900012    2    1    2    0    0  0.75153243626E+01 -0.12967550989E+02 -0.28143953066E+02  0.59301959589E+02  0.50000028380E+02 0.  0.
        -12    1    1    2    0    0 -0.75153243626E+01  0.12967550989E+02  0.28143953066E+02  0.31886040411E+02  0.00000000000E+00 0.  1.
         11    1    3    3    0    0  0.56510141732E+01  0.13548997259E+01 -0.35866528668E+02  0.36334248215E+02  0.51100000000E-03 0. -1.
        -11    1    3    3    0    0  0.39472677220E+01  0.23302731421E+01  0.31879740605E+01  0.55833927193E+01  0.51100000000E-03 0.  1.
         12    1    3    3    0    0 -0.20829575326E+01 -0.16652723857E+02  0.45346015416E+01  0.17384318654E+02  0.00000000000E+00 0. -1.
</event>
<event>
 7    1  0.1113211E-011  0.5930193E+02  0.7816164E-02  0.1266605E+00
        -11   -1    0    0    0    0  0.00000000000E+00  0.00000000000E+00  0.45593999997E+02  0.45594000000E+02  0.51100000000E-03 0.  1.
         11   -1    0    0    0    0 -0.00000000000E+00 -0.00000000000E+00 -0.45593999997E+02  0.45594000000E+02  0.51100000000E-03 0. -1.
    9900012    2    1    2    0    0 -0.66102788979E+01  0.93953308273E+01 -0.29744800482E+02  0.59301934326E+02  0.49999982307E+02 0.  0.
        -12    1    1    2    0    0  0.66102788979E+01 -0.93953308273E+01  0.29744800482E+02  0.31886065674E+02  0.00000000000E+00 0.  1.
         11    1    3    3    0    0 -0.13070268528E+02  0.15243196046E+02 -0.18043073353E+02  0.26995174409E+02  0.51100000000E-03 0. -1.
        -11    1    3    3    0    0 -0.46862839169E+01 -0.60839724082E+01  0.70930761484E+01  0.10454076082E+02  0.51100000000E-03 0.  1.
        -12    1    3    3    0    0  0.11146273547E+02  0.23610718936E+00 -0.18794803277E+02  0.21852683835E+02  0.00000000000E+00 0.  1.
</event>
<event>
 7    1  0.1113211E-011  0.5930188E+02  0.7816164E-02  0.1266605E+00
        -11   -1    0    0    0    0  0.00000000000E+00  0.00000000000E+00  0.45593999997E+02  0.45594000000E+02  0.51100000000E-03 0.  1.
         11   -1    0    0    0    0 -0.00000000000E+00 -0.00000000000E+00 -0.45593999997E+02  0.45594000000E+02  0.51100000000E-03 0. -1.
    9900012    2    1    2    0    0  0.26323456989E+02  0.17505921576E+02 -0.41644735181E+01  0.59301882052E+02  0.49999886971E+02 0.  0.
        -12    1    1    2    0    0 -0.26323456989E+02 -0.17505921576E+02  0.41644735181E+01  0.31886117948E+02  0.00000000000E+00 0.  1.
         11    1    3    3    0    0 -0.27613550032E+00  0.81229618613E+01 -0.11805945241E+02  0.14333147020E+02  0.51100000000E-03 0. -1.
        -11    1    3    3    0    0  0.11653862965E+02 -0.11131518347E+02  0.10787372939E+02  0.19393056436E+02  0.51100000000E-03 0.  1.
        -12    1    3    3    0    0  0.14945729525E+02  0.20514478063E+02 -0.31459012163E+01  0.25575678596E+02  0.00000000000E+00 0.  1.
</event>
<event>
 7    1  0.1113211E-011  0.5930187E+02  0.7816164E-02  0.1266605E+00
        -11   -1    0    0    0    0  0.00000000000E+00  0.00000000000E+00  0.45593999997E+02  0.45594000000E+02  0.51100000000E-03 0. -1.
         11   -1    0    0    0    0 -0.00000000000E+00 -0.00000000000E+00 -0.45593999997E+02  0.45594000000E+02  0.51100000000E-03 0.  1.
    9900012    2    1    2    0    0  0.18894007055E+02 -0.21261481253E+02  0.14411487080E+02  0.59301873746E+02  0.49999871822E+02 0.  0.
        -12    1    1    2    0    0 -0.18894007055E+02  0.21261481253E+02 -0.14411487080E+02  0.31886126254E+02  0.00000000000E+00 0.  1.
         11    1    3    3    0    0  0.21609568196E+02  0.66942991100E+00  0.16939350618E+02  0.27465672641E+02  0.51100000000E-03 0. -1.
        -11    1    3    3    0    0 -0.79429202885E+01 -0.17438997576E+02 -0.10046507673E+02  0.21636564789E+02  0.51100000000E-03 0.  1.
        -12    1    3    3    0    0  0.52273591479E+01 -0.44919135873E+01  0.75186441346E+01  0.10199636315E+02  0.00000000000E+00 0.  1.
</event>
<event>
 7    1  0.1113211E-011  0.5930191E+02  0.7816164E-02  0.1266605E+00
        -11   -1    0    0    0    0  0.00000000000E+00  0.00000000000E+00  0.45593999997E+02  0.45594000000E+02  0.51100000000E-03 0. -1.
         11   -1    0    0    0    0 -0.00000000000E+00 -0.00000000000E+00 -0.45593999997E+02  0.45594000000E+02  0.51100000000E-03 0.  1.
    9900012    2    1    2    0    0  0.86366579230E+00  0.21825346532E+02  0.23229955706E+02  0.59301913505E+02  0.49999944334E+02 0.  0.
        -12    1    1    2    0    0 -0.86366579230E+00 -0.21825346532E+02 -0.23229955706E+02  0.31886086495E+02  0.00000000000E+00 0.  1.
         11    1    3    3    0    0 -0.13732797920E+02 -0.13878272588E+01  0.25445151125E+02  0.28947737723E+02  0.51100000000E-03 0. -1.
        -11    1    3    3    0    0 -0.55584673547E+00  0.77036203943E+01 -0.38113026873E+01  0.86128253906E+01  0.51100000000E-03 0.  1.
         12    1    3    3    0    0  0.15152310448E+02  0.15509553397E+02  0.15961072679E+01  0.21741350392E+02  0.00000000000E+00 0. -1.
</event>
<event>
 7    1  0.1113211E-011  0.5930182E+02  0.7816164E-02  0.1266605E+00
        -11   -1    0    0    0    0  0.00000000000E+00  0.00000000000E+00  0.45593999997E+02  0.45594000000E+02  0.51100000000E-03 0. -1.
         11   -1    0    0    0    0 -0.00000000000E+00 -0.00000000000E+00 -0.45593999997E+02  0.45594000000E+02  0.51100000000E-03 0.  1.
    9900012    2    1    2    0    0 -0.19480580124E+02 -0.19775242119E+02  0.15689978352E+02  0.59301817671E+02  0.49999769554E+02 0.  0.
        -12    1    1    2    0    0  0.19480580124E+02  0.19775242119E+02 -0.15689978352E+02  0.31886182329E+02  0.00000000000E+00 0.  1.
         11    1    3    3    0    0 -0.81683270312E+01 -0.11673350371E+02  0.14296158673E+02  0.20183380006E+02  0.51100000000E-03 0. -1.
        -11    1    3    3    0    0 -0.21245255204E+02 -0.12867584836E+02 -0.63682418942E+01  0.25641570024E+02  0.51100000000E-03 0.  1.
        -12    1    3    3    0    0  0.99330021108E+01  0.47656930886E+01  0.77620615732E+01  0.13476867641E+02  0.00000000000E+00 0.  1.
</event>
<event>
 7    1  0.1113211E-011  0.5930189E+02  0.7816164E-02  0.1266605E+00
        -11   -1    0    0    0    0  0.00000000000E+00  0.00000000000E+00  0.45593999997E+02  0.45594000000E+02  0.51100000000E-03 0. -1.
         11   -1    0    0    0    0 -0.00000000000E+00 -0.00000000000E+00 -0.45593999997E+02  0.45594000000E+02  0.51100000000E-03 0.  1.
    9900012    2    1    2    0    0  0.34327075035E+01  0.28181962927E+02  0.14516105465E+02  0.59301892789E+02  0.49999906553E+02 0.  0.
        -12    1    1    2    0    0 -0.34327075035E+01 -0.28181962927E+02 -0.14516105465E+02  0.31886107211E+02  0.00000000000E+00 0.  1.
         11    1    3    3    0    0  0.58178030790E+01 -0.17549684349E+01 -0.57444660472E+01  0.83621550633E+01  0.51100000000E-03 0.  1.
        -11    1    3    3    0    0 -0.98765868208E+01  0.34630514501E+02  0.21608814821E+02  0.41997147285E+02  0.51100000000E-03 0. -1.
         12    1    3    3    0    0  0.74914912453E+01 -0.46935831398E+01 -0.13482433085E+01  0.89425904406E+01  0.00000000000E+00 0. -1.
</event>
<event>
 7    1  0.1113211E-011  0.5930223E+02  0.7816164E-02  0.1266604E+00
        -11   -1    0    0    0    0  0.00000000000E+00  0.00000000000E+00  0.45593999997E+02  0.45594000000E+02  0.51100000000E-03 0.  1.
         11   -1    0    0    0    0 -0.00000000000E+00 -0.00000000000E+00 -0.45593999997E+02  0.45594000000E+02  0.51100000000E-03 0. -1.
    9900012    2    1    2    0    0 -0.18785206201E+02  0.11792121375E+02 -0.22907726401E+02  0.59302234721E+02  0.50000530152E+02 0.  0.
        -12    1    1    2    0    0  0.18785206201E+02 -0.11792121375E+02  0.22907726401E+02  0.31885765279E+02  0.00000000000E+00 0.  1.
         11    1    3    3    0    0  0.56997180701E+01 -0.22214000406E+01 -0.21313237017E+02  0.22173756484E+02  0.51100000000E-03 0. -1.
        -11    1    3    3    0    0 -0.13434378410E+02  0.15153000181E+01  0.99966946920E+01  0.16814058476E+02  0.51100000000E-03 0.  1.
        -12    1    3    3    0    0 -0.11050545862E+02  0.12498221398E+02 -0.11591184076E+02  0.20314419761E+02  0.00000000000E+00 0.  1.
</event>
<event>
 7    1  0.1113211E-011  0.5930197E+02  0.7816164E-02  0.1266605E+00
        -11   -1    0    0    0    0  0.00000000000E+00  0.00000000000E+00  0.45593999997E+02  0.45594000000E+02  0.51100000000E-03 0.  1.
         11   -1    0    0    0    0 -0.00000000000E+00 -0.00000000000E+00 -0.45593999997E+02  0.45594000000E+02  0.51100000000E-03 0. -1.
    9900012    2    1    2    0    0  0.30874505365E+02  0.50465677899E+01 -0.61657125383E+01  0.59301969531E+02  0.50000046512E+02 0.  0.
        -12    1    1    2    0    0 -0.30874505365E+02 -0.50465677899E+01  0.61657125383E+01  0.31886030469E+02  0.00000000000E+00 0.  1.
         11    1    3    3    0    0  0.11595890320E+02  0.79141556050E+01  0.14605467582E+02  0.20258781178E+02  0.51100000000E-03 0. -1.
        -11    1    3    3    0    0  0.94828994085E+01 -0.12913006743E+02 -0.19074612023E+02  0.24910077246E+02  0.51100000000E-03 0.  1.
         12    1    3    3    0    0  0.97957156361E+01  0.10045418927E+02 -0.16965680973E+01  0.14133111107E+02  0.00000000000E+00 0. -1.
</event>
<event>
 7    1  0.1113211E-011  0.5930195E+02  0.7816164E-02  0.1266605E+00
        -11   -1    0    0    0    0  0.00000000000E+00  0.00000000000E+00  0.45593999997E+02  0.45594000000E+02  0.51100000000E-03 0.  1.
         11   -1    0    0    0    0 -0.00000000000E+00 -0.00000000000E+00 -0.45593999997E+02  0.45594000000E+02  0.51100000000E-03 0. -1.
    9900012    2    1    2    0    0  0.23792028911E+02  0.15590935601E+02 -0.14407724807E+02  0.59301945889E+02  0.50000003395E+02 0.  0.
        -12    1    1    2    0    0 -0.23792028911E+02 -0.15590935601E+02  0.14407724807E+02  0.31886054111E+02  0.00000000000E+00 0.  1.
         11    1    3    3    0    0  0.23170289102E+02  0.10442871329E+02 -0.26599001523E+02  0.36788894261E+02  0.51100000000E-03 0. -1.
        -11    1    3    3    0    0  0.26560110863E+01 -0.58166086574E+01  0.87596431569E+01  0.10845214597E+02  0.51100000000E-03 0.  1.
         12    1    3    3    0    0 -0.20342712775E+01  0.10964672930E+02  0.34316335595E+01  0.11667837031E+02  0.00000000000E+00 0. -1.
</event>
<event>
 7    1  0.1113211E-011  0.5930210E+02  0.7816164E-02  0.1266604E+00
        -11   -1    0    0    0    0  0.00000000000E+00  0.00000000000E+00  0.45593999997E+02  0.45594000000E+02  0.51100000000E-03 0. -1.
         11   -1    0    0    0    0 -0.00000000000E+00 -0.00000000000E+00 -0.45593999997E+02  0.45594000000E+02  0.51100000000E-03 0.  1.
    9900012    2    1    2    0    0  0.17220992746E+02  0.12260891784E+02  0.23870874577E+02  0.59302098545E+02  0.50000281802E+02 0.  0.
        -12    1    1    2    0    0 -0.17220992746E+02 -0.12260891784E+02 -0.23870874577E+02  0.31885901455E+02  0.00000000000E+00 0.  1.
         11    1    3    3    0    0 -0.16590784531E+01 -0.32160837224E+01  0.70270210006E+01  0.79040976858E+01  0.51100000000E-03 0. -1.
        -11    1    3    3    0    0  0.29219787039E+02  0.21683081059E+02  0.11106348850E+02  0.38043434964E+02  0.51100000000E-03 0.  1.
        -12    1    3    3    0    0 -0.10339715840E+02 -0.62061055521E+01  0.57375047263E+01  0.13354565895E+02  0.00000000000E+00 0.  1.
</event>
<event>
 7    1  0.1113211E-011  0.5930193E+02  0.7816164E-02  0.1266605E+00
        -11   -1    0    0    0    0  0.00000000000E+00  0.00000000000E+00  0.45593999997E+02  0.45594000000E+02  0.51100000000E-03 0. -1.
         11   -1    0    0    0    0 -0.00000000000E+00 -0.00000000000E+00 -0.45593999997E+02  0.45594000000E+02  0.51100000000E-03 0.  1.
    9900012    2    1    2    0    0  0.29832121501E+02 -0.61463009940E+01  0.94333909981E+01  0.59301931649E+02  0.49999977424E+02 0.  0.
        -12    1    1    2    0    0 -0.29832121501E+02  0.61463009940E+01 -0.94333909981E+01  0.31886068351E+02  0.00000000000E+00 0.  1.
         11    1    3    3    0    0  0.15154531996E+02 -0.85283450473E+01  0.86452122339E+01  0.19419891969E+02  0.51100000000E-03 0. -1.
        -11    1    3    3    0    0  0.69633875282E+01  0.33062218258E+01 -0.17983564465E+02  0.19566002651E+02  0.51100000000E-03 0.  1.
        -12    1    3    3    0    0  0.77142019768E+01 -0.92417777245E+00  0.18771743229E+02  0.20316037029E+02  0.00000000000E+00 0.  1.
</event>
<event>
 7    1  0.1113211E-011  0.5930193E+02  0.7816164E-02  0.1266605E+00
        -11   -1    0    0    0    0  0.00000000000E+00  0.00000000000E+00  0.45593999997E+02  0.45594000000E+02  0.51100000000E-03 0.  1.
         11   -1    0    0    0    0 -0.00000000000E+00 -0.00000000000E+00 -0.45593999997E+02  0.45594000000E+02  0.51100000000E-03 0. -1.
    9900012    2    1    2    0    0 -0.73012620165E+01 -0.25212268835E+02 -0.18103988077E+02  0.59301932335E+02  0.49999978675E+02 0.  0.
        -12    1    1    2    0    0  0.73012620165E+01  0.25212268835E+02  0.18103988077E+02  0.31886067665E+02  0.00000000000E+00 0.  1.
         11    1    3    3    0    0  0.14653973092E+02  0.36893757711E+01 -0.88478850508E+01  0.17511010567E+02  0.51100000000E-03 0. -1.
        -11    1    3    3    0    0 -0.91970646145E+01 -0.25169873758E+02 -0.96776444800E+01  0.28491496020E+02  0.51100000000E-03 0.  1.
        -12    1    3    3    0    0 -0.12758170494E+02 -0.37317708480E+01  0.42154145336E+00  0.13299425747E+02  0.00000000000E+00 0.  1.
</event>
<event>
 7    1  0.1113211E-011  0.5930195E+02  0.7816164E-02  0.1266605E+00
        -11   -1    0    0    0    0  0.00000000000E+00  0.00000000000E+00  0.45593999997E+02  0.45594000000E+02  0.51100000000E-03 0. -1.
         11   -1    0    0    0    0 -0.00000000000E+00 -0.00000000000E+00 -0.45593999997E+02  0.45594000000E+02  0.51100000000E-03 0.  1.
    9900012    2    1    2    0    0  0.25739061136E+02 -0.26774968625E+01  0.18629335639E+02  0.59301946560E+02  0.50000004618E+02 0.  0.
        -12    1    1    2    0    0 -0.25739061136E+02  0.26774968625E+01 -0.18629335639E+02  0.31886053440E+02  0.00000000000E+00 0.  1.
         11    1    3    3    0    0  0.22826340617E+02  0.36022764863E+01  0.43024224884E+01  0.23505936726E+02  0.51100000000E-03 0. -1.
        -11    1    3    3    0    0 -0.48230295574E+01 -0.15412377583E+02 -0.11973687976E+01  0.16193723759E+02  0.51100000000E-03 0.  1.
         12    1    3    3    0    0  0.77357500764E+01  0.91326042345E+01  0.15524281948E+02  0.19602286075E+02  0.00000000000E+00 0. -1.
</event>
<event>
 7    1  0.1113211E-011  0.5930204E+02  0.7816164E-02  0.1266604E+00
        -11   -1    0    0    0    0  0.00000000000E+00  0.00000000000E+00  0.45593999997E+02  0.45594000000E+02  0.51100000000E-03 0.  1.
         11   -1    0    0    0    0 -0.00000000000E+00 -0.00000000000E+00 -0.45593999997E+02  0.45594000000E+02  0.51100000000E-03 0. -1.
    9900012    2    1    2    0    0  0.27011928606E+02  0.16546406576E+02 -0.36450958309E+01  0.59302037866E+02  0.50000171138E+02 0.  0.
        -12    1    1    2    0    0 -0.27011928606E+02 -0.16546406576E+02  0.36450958309E+01  0.31885962134E+02  0.00000000000E+00 0.  1.
         11    1    3    3    0    0 -0.82419139475E+01 -0.60668288843E+01  0.21706280004E+01  0.10461700837E+02  0.51100000000E-03 0. -1.
        -11    1    3    3    0    0  0.24304741016E+02  0.30761170957E+01  0.31820802081E+01  0.24704424036E+02  0.51100000000E-03 0.  1.
         12    1    3    3    0    0  0.10949101538E+02  0.19537118364E+02 -0.89978040393E+01  0.24135912993E+02  0.00000000000E+00 0. -1.
</event>
<event>
 7    1  0.1113211E-011  0.5930192E+02  0.7816164E-02  0.1266605E+00
        -11   -1    0    0    0    0  0.00000000000E+00  0.00000000000E+00  0.45593999997E+02  0.45594000000E+02  0.51100000000E-03 0.  1.
         11   -1    0    0    0    0 -0.00000000000E+00 -0.00000000000E+00 -0.45593999997E+02  0.45594000000E+02  0.51100000000E-03 0. -1.
    9900012    2    1    2    0    0 -0.53338353480E+01  0.26048359077E+01 -0.31328698793E+02  0.59301916238E+02  0.49999949318E+02 0.  0.
        -12    1    1    2    0    0  0.53338353480E+01 -0.26048359077E+01  0.31328698793E+02  0.31886083762E+02  0.00000000000E+00 0.  1.
         11    1    3    3    0    0  0.69588021828E+01 -0.99594168062E+01 -0.47204059272E+01  0.13034459840E+02  0.51100000000E-03 0.  1.
        -11    1    3    3    0    0 -0.16190152659E+02  0.18584830554E+02 -0.73551819551E+01  0.25721890905E+02  0.51100000000E-03 0. -1.
         12    1    3    3    0    0  0.38975151278E+01 -0.60205778406E+01 -0.19253110911E+02  0.20545565493E+02  0.00000000000E+00 0. -1.
</event>
<event>
 7    1  0.1113211E-011  0.5930194E+02  0.7816164E-02  0.1266605E+00
        -11   -1    0    0    0    0  0.00000000000E+00  0.00000000000E+00  0.45593999997E+02  0.45594000000E+02  0.51100000000E-03 0.  1.
         11   -1    0    0    0    0 -0.00000000000E+00 -0.00000000000E+00 -0.45593999997E+02  0.45594000000E+02  0.51100000000E-03 0. -1.
    9900012    2    1    2    0    0  0.29006513467E+02 -0.87453501415E+01  0.99429330116E+01  0.59301938947E+02  0.49999990734E+02 0.  0.
        -12    1    1    2    0    0 -0.29006513467E+02  0.87453501415E+01 -0.99429330116E+01  0.31886061053E+02  0.00000000000E+00 0.  1.
         11    1    3    3    0    0 -0.56423375661E+01 -0.15289443350E+02  0.94113006507E+01  0.18819554495E+02  0.51100000000E-03 0.  1.
        -11    1    3    3    0    0  0.27677256484E+02  0.12401805177E+02 -0.34882420309E+01  0.30528726322E+02  0.51100000000E-03 0. -1.
        -12    1    3    3    0    0  0.69715945494E+01 -0.58577119676E+01  0.40198743919E+01  0.99536581307E+01  0.00000000000E+00 0.  1.
</event>
<event>
 7    1  0.1113211E-011  0.5930202E+02  0.7816164E-02  0.1266605E+00
        -11   -1    0    0    0    0  0.00000000000E+00  0.00000000000E+00  0.45593999997E+02  0.45594000000E+02  0.51100000000E-03 0.  1.
         11   -1    0    0    0    0 -0.00000000000E+00 -0.00000000000E+00 -0.45593999997E+02  0.45594000000E+02  0.51100000000E-03 0. -1.
    9900012    2    1    2    0    0  0.13407197807E+02  0.37343020413E+01 -0.28688288370E+02  0.59302017901E+02  0.50000134728E+02 0.  0.
        -12    1    1    2    0    0 -0.13407197807E+02 -0.37343020413E+01  0.28688288370E+02  0.31885982099E+02  0.00000000000E+00 0.  1.
         11    1    3    3    0    0  0.13347234279E+02  0.11974060559E+02 -0.72767447977E+00  0.17945927103E+02  0.51100000000E-03 0. -1.
        -11    1    3    3    0    0  0.12198144668E+02 -0.10232296050E+02 -0.77764755066E+01  0.17719147479E+02  0.51100000000E-03 0.  1.
         12    1    3    3    0    0 -0.12138181140E+02  0.19925375319E+01 -0.20184138384E+02  0.23636943320E+02  0.00000000000E+00 0. -1.
</event>
<event>
 7    1  0.1113211E-011  0.5930195E+02  0.7816164E-02  0.1266605E+00
        -11   -1    0    0    0    0  0.00000000000E+00  0.00000000000E+00  0.45593999997E+02  0.45594000000E+02  0.51100000000E-03 0.  1.
         11   -1    0    0    0    0 -0.00000000000E+00 -0.00000000000E+00 -0.45593999997E+02  0.45594000000E+02  0.51100000000E-03 0. -1.
    9900012    2    1    2    0    0 -0.14370349709E+02  0.24392285701E+02  0.14670699026E+02  0.59301953485E+02  0.50000017247E+02 0.  0.
        -12    1    1    2    0    0  0.14370349709E+02 -0.24392285701E+02 -0.14670699026E+02  0.31886046515E+02  0.00000000000E+00 0.  1.
         11    1    3    3    0    0 -0.11346573226E+02  0.65320208943E+01 -0.10091502190E+02  0.16530288493E+02  0.51100000000E-03 0. -1.
        -11    1    3    3    0    0 -0.96001497918E+01 -0.17490033382E+01  0.18906225980E+02  0.21275978703E+02  0.51100000000E-03 0.  1.
        -12    1    3    3    0    0  0.65763733091E+01  0.19609268145E+02  0.58559752367E+01  0.21495686289E+02  0.00000000000E+00 0.  1.
</event>
<event>
 7    1  0.1113211E-011  0.5930194E+02  0.7816164E-02  0.1266605E+00
        -11   -1    0    0    0    0  0.00000000000E+00  0.00000000000E+00  0.45593999997E+02  0.45594000000E+02  0.51100000000E-03 0.  1.
         11   -1    0    0    0    0 -0.00000000000E+00 -0.00000000000E+00 -0.45593999997E+02  0.45594000000E+02  0.51100000000E-03 0. -1.
    9900012    2    1    2    0    0  0.11659596436E+02 -0.26113663414E+02 -0.14101453089E+02  0.59301943718E+02  0.49999999436E+02 0.  0.
        -12    1    1    2    0    0 -0.11659596436E+02  0.26113663414E+02  0.14101453089E+02  0.31886056282E+02  0.00000000000E+00 0.  1.
         11    1    3    3    0    0  0.13310413803E+02 -0.64438302408E+01 -0.98151433749E+01  0.17749002888E+02  0.51100000000E-03 0. -1.
        -11    1    3    3    0    0 -0.70967992280E+01  0.76640657817E+01  0.57579645596E+01  0.11927137952E+02  0.51100000000E-03 0.  1.
        -12    1    3    3    0    0  0.54459818608E+01 -0.27333898955E+02 -0.10044274274E+02  0.29625802879E+02  0.00000000000E+00 0.  1.
</event>
<event>
 7    1  0.1113211E-011  0.5930226E+02  0.7816164E-02  0.1266604E+00
        -11   -1    0    0    0    0  0.00000000000E+00  0.00000000000E+00  0.45593999997E+02  0.45594000000E+02  0.51100000000E-03 0. -1.
         11   -1    0    0    0    0 -0.00000000000E+00 -0.00000000000E+00 -0.45593999997E+02  0.45594000000E+02  0.51100000000E-03 0.  1.
    9900012    2    1    2    0    0 -0.26406308411E+02 -0.18903347811E+01 -0.17771721285E+02  0.59302257623E+02  0.50000571919E+02 0.  0.
        -12    1    1    2    0    0  0.26406308411E+02  0.18903347811E+01  0.17771721285E+02  0.31885742377E+02  0.00000000000E+00 0.  1.
         11    1    3    3    0    0 -0.35780555697E+01 -0.15504765306E+02  0.89544310343E+01  0.18258753087E+02  0.51100000000E-03 0. -1.
        -11    1    3    3    0    0 -0.18065286516E+02  0.26388555370E+01 -0.20851147654E+02  0.27714409505E+02  0.51100000000E-03 0.  1.
         12    1    3    3    0    0 -0.47629663259E+01  0.10975574988E+02 -0.58750046655E+01  0.13329095032E+02  0.00000000000E+00 0. -1.
</event>
<event>
 7    1  0.1113211E-011  0.5930195E+02  0.7816164E-02  0.1266605E+00
        -11   -1    0    0    0    0  0.00000000000E+00  0.00000000000E+00  0.45593999997E+02  0.45594000000E+02  0.51100000000E-03 0. -1.
         11   -1    0    0    0    0 -0.00000000000E+00 -0.00000000000E+00 -0.45593999997E+02  0.45594000000E+02  0.51100000000E-03 0.  1.
    9900012    2    1    2    0    0  0.12919296308E+01 -0.26798399211E+02 -0.17230689468E+02  0.59301953805E+02  0.50000017831E+02 0.  0.
        -12    1    1    2    0    0 -0.12919296308E+01  0.26798399211E+02  0.17230689468E+02  0.31886046195E+02  0.00000000000E+00 0.  1.
         11    1    3    3    0    0  0.90664302713E+01 -0.65772016615E+01  0.99406363654E+01  0.14975846927E+02  0.51100000000E-03 0. -1.
        -11    1    3    3    0    0 -0.63535504261E+01 -0.26088089465E+02 -0.15040107297E+02  0.30775978339E+02  0.51100000000E-03 0.  1.
         12    1    3    3    0    0 -0.14209502144E+01  0.58668919156E+01 -0.12131218536E+02  0.13550128539E+02  0.00000000000E+00 0. -1.
</event>
<event>
 7    1  0.1113211E-011  0.5930194E+02  0.7816164E-02  0.1266605E+00
        -11   -1    0    0    0    0  0.00000000000E+00  0.00000000000E+00  0.45593999997E+02  0.45594000000E+02  0.51100000000E-03 0. -1.
         11   -1    0    0    0    0 -0.00000000000E+00 -0.00000000000E+00 -0.45593999997E+02  0.45594000000E+02  0.51100000000E-03 0.  1.
    9900012    2    1    2    0    0  0.11788483923E+02  0.46357790868E+01  0.29261950319E+02  0.59301944468E+02  0.50000000802E+02 0.  0.
        -12    1    1    2    0    0 -0.11788483923E+02 -0.46357790868E+01 -0.29261950319E+02  0.31886055532E+02  0.00000000000E+00 0.  1.
         11    1    3    3    0    0  0.16008913123E+02 -0.92082534109E+01  0.24550994608E+02  0.30721793026E+02  0.51100000000E-03 0. -1.
        -11    1    3    3    0    0  0.55486281286E+01  0.15923299680E+02 -0.13178659308E+01  0.16913767105E+02  0.51100000000E-03 0.  1.
         12    1    3    3    0    0 -0.97690573284E+01 -0.20792671821E+01  0.60288216420E+01  0.11666384337E+02  0.00000000000E+00 0. -1.
</event>
<event>
 7    1  0.1113211E-011  0.5930191E+02  0.7816164E-02  0.1266605E+00
        -11   -1    0    0    0    0  0.00000000000E+00  0.00000000000E+00  0.45593999997E+02  0.45594000000E+02  0.51100000000E-03 0. -1.
         11   -1    0    0    0    0 -0.00000000000E+00 -0.00000000000E+00 -0.45593999997E+02  0.45594000000E+02  0.51100000000E-03 0.  1.
    9900012    2    1    2    0    0 -0.15959876048E+02  0.27563923601E+02 -0.14950779789E+01  0.59301909210E+02  0.49999936501E+02 0.  0.
        -12    1    1    2    0    0  0.15959876048E+02 -0.27563923601E+02  0.14950779789E+01  0.31886090790E+02  0.00000000000E+00 0.  1.
         11    1    3    3    0    0 -0.10459597141E+02 -0.52332240838E+01  0.83985743979E+01  0.14398814494E+02  0.51100000000E-03 0. -1.
        -11    1    3    3    0    0 -0.25640157985E+01  0.30017059589E+02 -0.18528674926E+02  0.35368203773E+02  0.51100000000E-03 0.  1.
        -12    1    3    3    0    0 -0.29362631083E+01  0.27800880958E+01  0.86350225492E+01  0.95348909426E+01  0.00000000000E+00 0.  1.
</event>
<event>
 7    1  0.1113211E-011  0.5930191E+02  0.7816164E-02  0.1266605E+00
        -11   -1    0    0    0    0  0.00000000000E+00  0.00000000000E+00  0.45593999997E+02  0.45594000000E+02  0.51100000000E-03 0.  1.
         11   -1    0    0    0    0 -0.00000000000E+00 -0.00000000000E+00 -0.45593999997E+02  0.45594000000E+02  0.51100000000E-03 0. -1.
    9900012    2    1    2    0    0 -0.10114881552E+02  0.40111684170E+01 -0.29972027854E+02  0.59301909701E+02  0.49999937397E+02 0.  0.
        -12    1    1    2    0    0  0.10114881552E+02 -0.40111684170E+01  0.29972027854E+02  0.31886090299E+02  0.00000000000E+00 0.  1.
         11    1    3    3    0    0 -0.12678351305E+02 -0.45548223834E+01 -0.33185228822E+02  0.35815449334E+02  0.51100000000E-03 0. -1.
        -11    1    3    3    0    0  0.10013434442E+02 -0.14151356172E+01 -0.13902170469E+01  0.10208044956E+02  0.51100000000E-03 0.  1.
         12    1    3    3    0    0 -0.74499646878E+01  0.99811264176E+01  0.46034180149E+01  0.13278415411E+02  0.00000000000E+00 0. -1.
</event>
<event>
 7    1  0.1113211E-011  0.5930194E+02  0.7816164E-02  0.1266605E+00
        -11   -1    0    0    0    0  0.00000000000E+00  0.00000000000E+00  0.45593999997E+02  0.45594000000E+02  0.51100000000E-03 0. -1.
         11   -1    0    0    0    0 -0.00000000000E+00 -0.00000000000E+00 -0.45593999997E+02  0.45594000000E+02  0.51100000000E-03 0.  1.
    9900012    2    1    2    0    0  0.15363855303E+02  0.29429514374E+01  0.27785095672E+02  0.59301944201E+02  0.50000000316E+02 0.  0.
        -12    1    1    2    0    0 -0.15363855303E+02 -0.29429514374E+01 -0.27785095672E+02  0.31886055799E+02  0.00000000000E+00 0.  1.
         11    1    3    3    0    0 -0.68890878604E+01  0.66921459666E+01  0.74546232809E+01  0.12157950391E+02  0.51100000000E-03 0. -1.
        -11    1    3    3    0    0  0.23472410355E+02 -0.14694144333E+02  0.22784840072E+02  0.35861133040E+02  0.51100000000E-03 0.  1.
        -12    1    3    3    0    0 -0.12194671908E+01  0.10944949804E+02 -0.24543676812E+01  0.11282860770E+02  0.00000000000E+00 0.  1.
</event>
<event>
 7    1  0.1113211E-011  0.5930189E+02  0.7816164E-02  0.1266605E+00
        -11   -1    0    0    0    0  0.00000000000E+00  0.00000000000E+00  0.45593999997E+02  0.45594000000E+02  0.51100000000E-03 0.  1.
         11   -1    0    0    0    0 -0.00000000000E+00 -0.00000000000E+00 -0.45593999997E+02  0.45594000000E+02  0.51100000000E-03 0. -1.
    9900012    2    1    2    0    0 -0.18662101395E+02  0.25740035295E+01 -0.25725950216E+02  0.59301889588E+02  0.49999900715E+02 0.  0.
        -12    1    1    2    0    0  0.18662101395E+02 -0.25740035295E+01  0.25725950216E+02  0.31886110412E+02  0.00000000000E+00 0.  1.
         11    1    3    3    0    0 -0.12196818175E+02 -0.96327415112E+01 -0.10597396575E+02  0.18811084420E+02  0.51100000000E-03 0. -1.
        -11    1    3    3    0    0 -0.92865586083E+01  0.93452680928E+01 -0.25864943946E+02  0.29027048284E+02  0.51100000000E-03 0.  1.
        -12    1    3    3    0    0  0.28212753882E+01  0.28614769478E+01  0.10736390304E+02  0.11463756884E+02  0.00000000000E+00 0.  1.
</event>
<event>
 7    1  0.1113211E-011  0.5930195E+02  0.7816164E-02  0.1266605E+00
        -11   -1    0    0    0    0  0.00000000000E+00  0.00000000000E+00  0.45593999997E+02  0.45594000000E+02  0.51100000000E-03 0.  1.
         11   -1    0    0    0    0 -0.00000000000E+00 -0.00000000000E+00 -0.45593999997E+02  0.45594000000E+02  0.51100000000E-03 0. -1.
    9900012    2    1    2    0    0 -0.17793205710E+02 -0.21115812978E+02 -0.15945046020E+02  0.59301949449E+02  0.50000009888E+02 0.  0.
        -12    1    1    2    0    0  0.17793205710E+02  0.21115812978E+02  0.15945046020E+02  0.31886050551E+02  0.00000000000E+00 0.  1.
         11    1    3    3    0    0 -0.11477993229E+02 -0.22883428443E+02 -0.14864481752E+02  0.29603183002E+02  0.51100000000E-03 0. -1.
        -11    1    3    3    0    0 -0.10475609363E+02  0.13068073134E+02 -0.41841833290E+01  0.17263264968E+02  0.51100000000E-03 0.  1.
        -12    1    3    3    0    0  0.41603968825E+01 -0.11300457669E+02  0.31036190606E+01  0.12435501479E+02  0.00000000000E+00 0.  1.
</event>
<event>
 7    1  0.1113211E-011  0.5930194E+02  0.7816164E-02  0.1266605E+00
        -11   -1    0    0    0    0  0.00000000000E+00  0.00000000000E+00  0.45593999997E+02  0.45594000000E+02  0.51100000000E-03 0.  1.
         11   -1    0    0    0    0 -0.00000000000E+00 -0.00000000000E+00 -0.45593999997E+02  0.45594000000E+02  0.51100000000E-03 0. -1.
    9900012    2    1    2    0    0 -0.12651207885E+01 -0.14585516903E+02 -0.28326369171E+02  0.59301936832E+02  0.49999986876E+02 0.  0.
        -12    1    1    2    0    0  0.12651207885E+01  0.14585516903E+02  0.28326369171E+02  0.31886063168E+02  0.00000000000E+00 0.  1.
         11    1    3    3    0    0 -0.51858099773E+00 -0.71215659108E+01 -0.16208168418E+01  0.73220676567E+01  0.51100000000E-03 0. -1.
        -11    1    3    3    0    0 -0.69750785639E+01 -0.90702623932E+00 -0.37353318059E+02  0.38009798577E+02  0.51100000000E-03 0.  1.
        -12    1    3    3    0    0  0.62285387732E+01 -0.65569247533E+01  0.10647765730E+02  0.13970070598E+02  0.00000000000E+00 0.  1.
</event>
<event>
 7    1  0.1113211E-011  0.5930193E+02  0.7816164E-02  0.1266605E+00
        -11   -1    0    0    0    0  0.00000000000E+00  0.00000000000E+00  0.45593999997E+02  0.45594000000E+02  0.51100000000E-03 0.  1.
         11   -1    0    0    0    0 -0.00000000000E+00 -0.00000000000E+00 -0.45593999997E+02  0.45594000000E+02  0.51100000000E-03 0. -1.
    9900012    2    1    2    0    0  0.18706631222E+02  0.18229388044E+02 -0.18288592766E+02  0.59301933050E+02  0.49999979980E+02 0.  0.
        -12    1    1    2    0    0 -0.18706631222E+02 -0.18229388044E+02  0.18288592766E+02  0.31886066950E+02  0.00000000000E+00 0.  1.
         11    1    3    3    0    0  0.19243555206E+02 -0.81016323358E+00 -0.95885380798E+01  0.21515362980E+02  0.51100000000E-03 0. -1.
        -11    1    3    3    0    0 -0.14498282601E+02  0.24698956531E+01 -0.81719630823E+00  0.14729847011E+02  0.51100000000E-03 0.  1.
        -12    1    3    3    0    0  0.13961358618E+02  0.16569655625E+02 -0.78828583785E+01  0.23056723058E+02  0.00000000000E+00 0.  1.
</event>
<event>
 7    1  0.1113211E-011  0.5930195E+02  0.7816164E-02  0.1266605E+00
        -11   -1    0    0    0    0  0.00000000000E+00  0.00000000000E+00  0.45593999997E+02  0.45594000000E+02  0.51100000000E-03 0. -1.
         11   -1    0    0    0    0 -0.00000000000E+00 -0.00000000000E+00 -0.45593999997E+02  0.45594000000E+02  0.51100000000E-03 0.  1.
    9900012    2    1    2    0    0  0.89711023982E+01  0.22410774016E+02  0.20832584168E+02  0.59301952372E+02  0.50000015217E+02 0.  0.
        -12    1    1    2    0    0 -0.89711023982E+01 -0.22410774016E+02 -0.20832584168E+02  0.31886047628E+02  0.00000000000E+00 0.  1.
         11    1    3    3    0    0  0.18705889830E+02  0.20590249874E+02  0.25035809358E+02  0.37425398524E+02  0.51100000000E-03 0. -1.
        -11    1    3    3    0    0  0.82321966475E+00 -0.58099371181E+01 -0.63811413437E+01  0.86690267644E+01  0.51100000000E-03 0.  1.
         12    1    3    3    0    0 -0.10558007096E+02  0.76304612603E+01  0.21779161541E+01  0.13207527084E+02  0.00000000000E+00 0. -1.
</event>
<event>
 7    1  0.1113211E-011  0.5930193E+02  0.7816164E-02  0.1266605E+00
        -11   -1    0    0    0    0  0.00000000000E+00  0.00000000000E+00  0.45593999997E+02  0.45594000000E+02  0.51100000000E-03 0. -1.
         11   -1    0    0    0    0 -0.00000000000E+00 -0.00000000000E+00 -0.45593999997E+02  0.45594000000E+02  0.51100000000E-03 0.  1.
    9900012    2    1    2    0    0  0.10521029829E+02  0.15118821230E+02  0.26027880502E+02  0.59301931138E+02  0.49999976492E+02 0.  0.
        -12    1    1    2    0    0 -0.10521029829E+02 -0.15118821230E+02 -0.26027880502E+02  0.31886068862E+02  0.00000000000E+00 0.  1.
         11    1    3    3    0    0 -0.12428531706E+02 -0.22398179220E+01 -0.27056045276E+01  0.12915319617E+02  0.51100000000E-03 0. -1.
        -11    1    3    3    0    0  0.26909379805E+02  0.16983788536E+02  0.22424342607E+02  0.38928330765E+02  0.51100000000E-03 0.  1.
         12    1    3    3    0    0 -0.39598182707E+01  0.37485061607E+00  0.63091424235E+01  0.74582807564E+01  0.00000000000E+00 0. -1.
</event>
<event>
 7    1  0.1113211E-011  0.5930195E+02  0.7816164E-02  0.1266605E+00
        -11   -1    0    0    0    0  0.00000000000E+00  0.00000000000E+00  0.45593999997E+02  0.45594000000E+02  0.51100000000E-03 0.  1.
         11   -1    0    0    0    0 -0.00000000000E+00 -0.00000000000E+00 -0.45593999997E+02  0.45594000000E+02  0.51100000000E-03 0. -1.
    9900012    2    1    2    0    0  0.22932381183E+02 -0.15939937791E+02  0.15386507623E+02  0.59301947558E+02  0.50000006439E+02 0.  0.
        -12    1    1    2    0    0 -0.22932381183E+02  0.15939937791E+02 -0.15386507623E+02  0.31886052442E+02  0.00000000000E+00 0.  1.
         11    1    3    3    0    0  0.13553943858E+02 -0.20030116766E+02  0.17724516108E+02  0.29984553412E+02  0.51100000000E-03 0. -1.
        -11    1    3    3    0    0  0.44654124408E+01  0.13348218225E+01 -0.14866983377E+02  0.15580399628E+02  0.51100000000E-03 0.  1.
        -12    1    3    3    0    0  0.49130248837E+01  0.27553571531E+01  0.12528974893E+02  0.13736994519E+02  0.00000000000E+00 0.  1.
</event>
<event>
 7    1  0.1113211E-011  0.5930196E+02  0.7816164E-02  0.1266605E+00
        -11   -1    0    0    0    0  0.00000000000E+00  0.00000000000E+00  0.45593999997E+02  0.45594000000E+02  0.51100000000E-03 0.  1.
         11   -1    0    0    0    0 -0.00000000000E+00 -0.00000000000E+00 -0.45593999997E+02  0.45594000000E+02  0.51100000000E-03 0. -1.
    9900012    2    1    2    0    0  0.11391925243E+02  0.29433543394E+02 -0.45398608516E+01  0.59301956438E+02  0.50000022633E+02 0.  0.
        -12    1    1    2    0    0 -0.11391925243E+02 -0.29433543394E+02  0.45398608516E+01  0.31886043562E+02  0.00000000000E+00 0.  1.
         11    1    3    3    0    0 -0.98834575549E+01  0.31997236509E+02  0.36230563270E+01  0.33684305171E+02  0.51100000000E-03 0. -1.
        -11    1    3    3    0    0  0.13280471154E+02  0.18889234218E+01 -0.94047773376E+01  0.16382575585E+02  0.51100000000E-03 0.  1.
         12    1    3    3    0    0  0.79949116436E+01 -0.44526165359E+01  0.12418601591E+01  0.92350756824E+01  0.00000000000E+00 0. -1.
</event>
<event>
 7    1  0.1113211E-011  0.5930194E+02  0.7816164E-02  0.1266605E+00
        -11   -1    0    0    0    0  0.00000000000E+00  0.00000000000E+00  0.45593999997E+02  0.45594000000E+02  0.51100000000E-03 0.  1.
         11   -1    0    0    0    0 -0.00000000000E+00 -0.00000000000E+00 -0.45593999997E+02  0.45594000000E+02  0.51100000000E-03 0. -1.
    9900012    2    1    2    0    0 -0.13234986284E+02 -0.26945229790E+02  0.10747588201E+02  0.59301938429E+02  0.49999989790E+02 0.  0.
        -12    1    1    2    0    0  0.13234986284E+02  0.26945229790E+02 -0.10747588201E+02  0.31886061571E+02  0.00000000000E+00 0.  1.
         11    1    3    3    0    0  0.24665917412E+01  0.84251532794E+01  0.21776048766E+01  0.90448463701E+01  0.51100000000E-03 0. -1.
        -11    1    3    3    0    0 -0.51086682875E+01 -0.33743952997E+02  0.15511780736E+02  0.37488240788E+02  0.51100000000E-03 0.  1.
         12    1    3    3    0    0 -0.10592909737E+02 -0.16264300724E+01 -0.69417974114E+01  0.12768851271E+02  0.00000000000E+00 0. -1.
</event>
<event>
 7    1  0.1113211E-011  0.5930197E+02  0.7816164E-02  0.1266605E+00
        -11   -1    0    0    0    0  0.00000000000E+00  0.00000000000E+00  0.45593999997E+02  0.45594000000E+02  0.51100000000E-03 0. -1.
         11   -1    0    0    0    0 -0.00000000000E+00 -0.00000000000E+00 -0.45593999997E+02  0.45594000000E+02  0.51100000000E-03 0.  1.
    9900012    2    1    2    0    0 -0.25021792281E+02 -0.18201937519E+02 -0.77018418898E+01  0.59301968781E+02  0.50000045144E+02 0.  0.
        -12    1    1    2    0    0  0.25021792281E+02  0.18201937519E+02  0.77018418898E+01  0.31886031219E+02  0.00000000000E+00 0.  1.
         11    1    3    3    0    0 -0.24097054514E+02 -0.14091314929E+02 -0.33505774114E+01  0.28115112697E+02  0.51100000000E-03 0. -1.
        -11    1    3    3    0    0  0.19898013720E+01  0.10693472262E+02  0.64365083039E+01  0.12638761724E+02  0.51100000000E-03 0.  1.
        -12    1    3    3    0    0 -0.29145391389E+01 -0.14804094852E+02 -0.10787772782E+02  0.18548094360E+02  0.00000000000E+00 0.  1.
</event>
<event>
 7    1  0.1113211E-011  0.5930193E+02  0.7816164E-02  0.1266605E+00
        -11   -1    0    0    0    0  0.00000000000E+00  0.00000000000E+00  0.45593999997E+02  0.45594000000E+02  0.51100000000E-03 0.  1.
         11   -1    0    0    0    0 -0.00000000000E+00 -0.00000000000E+00 -0.45593999997E+02  0.45594000000E+02  0.51100000000E-03 0. -1.
    9900012    2    1    2    0    0 -0.18732146773E+02  0.34100492914E+01 -0.25577327181E+02  0.59301930556E+02  0.49999975430E+02 0.  0.
        -12    1    1    2    0    0  0.18732146773E+02 -0.34100492914E+01  0.25577327181E+02  0.31886069444E+02  0.00000000000E+00 0.  1.
         11    1    3    3    0    0  0.84500531981E+01 -0.20187588451E+01  0.59767749987E+01  0.10545170742E+02  0.51100000000E-03 0.  1.
        -11    1    3    3    0    0 -0.20212358570E+02  0.14907877163E+02 -0.18571651815E+02  0.31236044754E+02  0.51100000000E-03 0. -1.
        -12    1    3    3    0    0 -0.69698414017E+01 -0.94790690264E+01 -0.12982450364E+02  0.17520715060E+02  0.00000000000E+00 0.  1.
</event>
<event>
 7    1  0.1113211E-011  0.5930193E+02  0.7816164E-02  0.1266605E+00
        -11   -1    0    0    0    0  0.00000000000E+00  0.00000000000E+00  0.45593999997E+02  0.45594000000E+02  0.51100000000E-03 0.  1.
         11   -1    0    0    0    0 -0.00000000000E+00 -0.00000000000E+00 -0.45593999997E+02  0.45594000000E+02  0.51100000000E-03 0. -1.
    9900012    2    1    2    0    0  0.57745975594E+01  0.58469376232E+01 -0.30808907825E+02  0.59301930034E+02  0.49999974478E+02 0.  0.
        -12    1    1    2    0    0 -0.57745975594E+01 -0.58469376232E+01  0.30808907825E+02  0.31886069966E+02  0.00000000000E+00 0.  1.
         11    1    3    3    0    0 -0.16840835905E+02  0.19022334563E+01 -0.62977080444E+01  0.18080192836E+02  0.51100000000E-03 0. -1.
        -11    1    3    3    0    0  0.14643411373E+02  0.36708171326E+01  0.36193981383E+00  0.15100840896E+02  0.51100000000E-03 0.  1.
         12    1    3    3    0    0  0.79720220916E+01  0.27388703431E+00 -0.24873139594E+02  0.26120896302E+02  0.00000000000E+00 0. -1.
</event>
<event>
 7    1  0.1113211E-011  0.5930196E+02  0.7816164E-02  0.1266605E+00
        -11   -1    0    0    0    0  0.00000000000E+00  0.00000000000E+00  0.45593999997E+02  0.45594000000E+02  0.51100000000E-03 0. -1.
         11   -1    0    0    0    0 -0.00000000000E+00 -0.00000000000E+00 -0.45593999997E+02  0.45594000000E+02  0.51100000000E-03 0.  1.
    9900012    2    1    2    0    0  0.27856273793E+01 -0.31367208167E+02  0.50058257583E+01  0.59301956664E+02  0.50000023045E+02 0.  0.
        -12    1    1    2    0    0 -0.27856273793E+01  0.31367208167E+02 -0.50058257583E+01  0.31886043336E+02  0.00000000000E+00 0.  1.
         11    1    3    3    0    0  0.31644264084E+01 -0.23081238284E+02  0.20010335268E+02  0.30711083879E+02  0.51100000000E-03 0. -1.
        -11    1    3    3    0    0 -0.15019835979E+01  0.64986232968E+01 -0.11595262282E+02  0.13376777158E+02  0.51100000000E-03 0.  1.
         12    1    3    3    0    0  0.11231845689E+01 -0.14784593180E+02 -0.34092472276E+01  0.15214095626E+02  0.00000000000E+00 0. -1.
</event>
<event>
 7    1  0.1113211E-011  0.5930197E+02  0.7816164E-02  0.1266605E+00
        -11   -1    0    0    0    0  0.00000000000E+00  0.00000000000E+00  0.45593999997E+02  0.45594000000E+02  0.51100000000E-03 0.  1.
         11   -1    0    0    0    0 -0.00000000000E+00 -0.00000000000E+00 -0.45593999997E+02  0.45594000000E+02  0.51100000000E-03 0. -1.
    9900012    2    1    2    0    0 -0.27247396097E+02 -0.23999812390E+01 -0.16387142031E+02  0.59301969705E+02  0.50000046830E+02 0.  0.
        -12    1    1    2    0    0  0.27247396097E+02  0.23999812390E+01  0.16387142031E+02  0.31886030295E+02  0.00000000000E+00 0.  1.
         11    1    3    3    0    0 -0.19011634534E+02 -0.12824051323E+02 -0.30909358990E+02  0.38487491649E+02  0.51100000000E-03 0. -1.
        -11    1    3    3    0    0 -0.35388583088E+01  0.32614785390E+01  0.10070674037E+02  0.11161506897E+02  0.51100000000E-03 0.  1.
         12    1    3    3    0    0 -0.46969032541E+01  0.71625915454E+01  0.44515429222E+01  0.96529711598E+01  0.00000000000E+00 0. -1.
</event>
<event>
 7    1  0.1113211E-011  0.5930197E+02  0.7816164E-02  0.1266605E+00
        -11   -1    0    0    0    0  0.00000000000E+00  0.00000000000E+00  0.45593999997E+02  0.45594000000E+02  0.51100000000E-03 0.  1.
         11   -1    0    0    0    0 -0.00000000000E+00 -0.00000000000E+00 -0.45593999997E+02  0.45594000000E+02  0.51100000000E-03 0. -1.
    9900012    2    1    2    0    0  0.24276181810E+01  0.23276602153E+02 -0.21656991365E+02  0.59301971511E+02  0.50000050124E+02 0.  0.
        -12    1    1    2    0    0 -0.24276181810E+01 -0.23276602153E+02  0.21656991365E+02  0.31886028489E+02  0.00000000000E+00 0.  1.
         11    1    3    3    0    0 -0.12543062143E+02  0.22414503501E+02 -0.32020026565E+02  0.41049000921E+02  0.51100000000E-03 0. -1.
        -11    1    3    3    0    0  0.84694575956E+01  0.99508015366E-01  0.55130154010E+01  0.10106183893E+02  0.51100000000E-03 0.  1.
         12    1    3    3    0    0  0.65012227283E+01  0.76259063629E+00  0.48500197992E+01  0.81467866975E+01  0.00000000000E+00 0. -1.
</event>
<event>
 7    1  0.1113211E-011  0.5930195E+02  0.7816164E-02  0.1266605E+00
        -11   -1    0    0    0    0  0.00000000000E+00  0.00000000000E+00  0.45593999997E+02  0.45594000000E+02  0.51100000000E-03 0.  1.
         11   -1    0    0    0    0 -0.00000000000E+00 -0.00000000000E+00 -0.45593999997E+02  0.45594000000E+02  0.51100000000E-03 0. -1.
    9900012    2    1    2    0    0  0.48139675128E+01 -0.75610180942E+01 -0.30600271562E+02  0.59301954502E+02  0.50000019102E+02 0.  0.
        -12    1    1    2    0    0 -0.48139675128E+01  0.75610180942E+01  0.30600271562E+02  0.31886045498E+02  0.00000000000E+00 0.  1.
         11    1    3    3    0    0 -0.10841899937E+01  0.48784137000E+01 -0.12734637495E+02  0.13680108939E+02  0.51100000000E-03 0. -1.
        -11    1    3    3    0    0  0.18368888586E+02 -0.68771670201E+01  0.38321575211E+01  0.19984917454E+02  0.51100000000E-03 0.  1.
        -12    1    3    3    0    0 -0.12470731080E+02 -0.55622647740E+01 -0.21697791588E+02  0.25636928109E+02  0.00000000000E+00 0.  1.
</event>
<event>
 7    1  0.1113211E-011  0.5930194E+02  0.7816164E-02  0.1266605E+00
        -11   -1    0    0    0    0  0.00000000000E+00  0.00000000000E+00  0.45593999997E+02  0.45594000000E+02  0.51100000000E-03 0.  1.
         11   -1    0    0    0    0 -0.00000000000E+00 -0.00000000000E+00 -0.45593999997E+02  0.45594000000E+02  0.51100000000E-03 0. -1.
    9900012    2    1    2    0    0 -0.13247671426E+02  0.25944930736E+02 -0.12964582197E+02  0.59301943163E+02  0.49999998422E+02 0.  0.
        -12    1    1    2    0    0  0.13247671426E+02 -0.25944930736E+02  0.12964582197E+02  0.31886056837E+02  0.00000000000E+00 0.  1.
         11    1    3    3    0    0 -0.14880078731E+01  0.21530434452E+02 -0.22885189830E+02  0.31456409345E+02  0.51100000000E-03 0. -1.
        -11    1    3    3    0    0 -0.99235637508E+01 -0.78935401091E+01  0.86219353466E+01  0.15333716521E+02  0.51100000000E-03 0.  1.
        -12    1    3    3    0    0 -0.18360998024E+01  0.12308036393E+02  0.12986722863E+01  0.12511817296E+02  0.00000000000E+00 0.  1.
</event>
<event>
 7    1  0.1113211E-011  0.5930204E+02  0.7816164E-02  0.1266604E+00
        -11   -1    0    0    0    0  0.00000000000E+00  0.00000000000E+00  0.45593999997E+02  0.45594000000E+02  0.51100000000E-03 0.  1.
         11   -1    0    0    0    0 -0.00000000000E+00 -0.00000000000E+00 -0.45593999997E+02  0.45594000000E+02  0.51100000000E-03 0. -1.
    9900012    2    1    2    0    0 -0.38028728789E+01  0.14626845119E+01 -0.31624567862E+02  0.59302037876E+02  0.50000171156E+02 0.  0.
        -12    1    1    2    0    0  0.38028728789E+01 -0.14626845119E+01  0.31624567862E+02  0.31885962124E+02  0.00000000000E+00 0.  1.
         11    1    3    3    0    0 -0.81933283167E+01  0.14531938355E+02 -0.20626386013E+02  0.26528393496E+02  0.51100000000E-03 0. -1.
        -11    1    3    3    0    0  0.60522359607E+01 -0.17795187984E+02 -0.16728507229E+02  0.25162297786E+02  0.51100000000E-03 0.  1.
        -12    1    3    3    0    0 -0.16617805229E+01  0.47259341408E+01  0.57303253793E+01  0.76113465932E+01  0.00000000000E+00 0.  1.
</event>
<event>
 7    1  0.1113211E-011  0.5930192E+02  0.7816164E-02  0.1266605E+00
        -11   -1    0    0    0    0  0.00000000000E+00  0.00000000000E+00  0.45593999997E+02  0.45594000000E+02  0.51100000000E-03 0.  1.
         11   -1    0    0    0    0 -0.00000000000E+00 -0.00000000000E+00 -0.45593999997E+02  0.45594000000E+02  0.51100000000E-03 0. -1.
    9900012    2    1    2    0    0 -0.10293733422E+02 -0.12208077634E+01 -0.30154112853E+02  0.59301924021E+02  0.49999963513E+02 0.  0.
        -12    1    1    2    0    0  0.10293733422E+02  0.12208077634E+01  0.30154112853E+02  0.31886075979E+02  0.00000000000E+00 0.  1.
         11    1    3    3    0    0 -0.37676531058E+01  0.50113144564E+01 -0.34503770012E+01  0.71563666911E+01  0.51100000000E-03 0. -1.
        -11    1    3    3    0    0 -0.21522171467E+02 -0.15546846901E+02 -0.20087705633E+02  0.33293005738E+02  0.51100000000E-03 0.  1.
        -12    1    3    3    0    0  0.14996091151E+02  0.93147246807E+01 -0.66160302189E+01  0.18852551592E+02  0.00000000000E+00 0.  1.
</event>
<event>
 7    1  0.1113211E-011  0.5930202E+02  0.7816164E-02  0.1266604E+00
        -11   -1    0    0    0    0  0.00000000000E+00  0.00000000000E+00  0.45593999997E+02  0.45594000000E+02  0.51100000000E-03 0. -1.
         11   -1    0    0    0    0 -0.00000000000E+00 -0.00000000000E+00 -0.45593999997E+02  0.45594000000E+02  0.51100000000E-03 0.  1.
    9900012    2    1    2    0    0  0.29313668546E+02  0.12488706211E+02 -0.12068670077E+01  0.59302023860E+02  0.50000145595E+02 0.  0.
        -12    1    1    2    0    0 -0.29313668546E+02 -0.12488706211E+02  0.12068670077E+01  0.31885976140E+02  0.00000000000E+00 0.  1.
         11    1    3    3    0    0 -0.77389216312E+01 -0.28780776159E+01  0.79666298991E+01  0.11473509968E+02  0.51100000000E-03 0. -1.
        -11    1    3    3    0    0  0.19909732609E+02  0.16285178112E+02  0.42057976064E+01  0.26063254065E+02  0.51100000000E-03 0.  1.
         12    1    3    3    0    0  0.17142857568E+02 -0.91839428545E+00 -0.13379294513E+02  0.21765259827E+02  0.00000000000E+00 0. -1.
</event>
<event>
 7    1  0.1113211E-011  0.5930190E+02  0.7816164E-02  0.1266605E+00
        -11   -1    0    0    0    0  0.00000000000E+00  0.00000000000E+00  0.45593999997E+02  0.45594000000E+02  0.51100000000E-03 0. -1.
         11   -1    0    0    0    0 -0.00000000000E+00 -0.00000000000E+00 -0.45593999997E+02  0.45594000000E+02  0.51100000000E-03 0.  1.
    9900012    2    1    2    0    0 -0.72973915099E+01 -0.12579654198E+02  0.28376459304E+02  0.59301904830E+02  0.49999928513E+02 0.  0.
        -12    1    1    2    0    0  0.72973915099E+01  0.12579654198E+02 -0.28376459304E+02  0.31886095170E+02  0.00000000000E+00 0.  1.
         11    1    3    3    0    0  0.87734332660E+01 -0.11014136741E+02  0.22385416231E+01  0.14258169878E+02  0.51100000000E-03 0. -1.
        -11    1    3    3    0    0 -0.98353877528E+01  0.13925017038E+02  0.43528518769E+01  0.17595120672E+02  0.51100000000E-03 0.  1.
        -12    1    3    3    0    0 -0.62354370231E+01 -0.15490534494E+02  0.21785065804E+02  0.27448614279E+02  0.00000000000E+00 0.  1.
</event>
<event>
 7    1  0.1113211E-011  0.5930171E+02  0.7816164E-02  0.1266606E+00
        -11   -1    0    0    0    0  0.00000000000E+00  0.00000000000E+00  0.45593999997E+02  0.45594000000E+02  0.51100000000E-03 0.  1.
         11   -1    0    0    0    0 -0.00000000000E+00 -0.00000000000E+00 -0.45593999997E+02  0.45594000000E+02  0.51100000000E-03 0. -1.
    9900012    2    1    2    0    0  0.17583925987E+02 -0.84976899350E-01 -0.26599503075E+02  0.59301713950E+02  0.49999580393E+02 0.  0.
        -12    1    1    2    0    0 -0.17583925987E+02  0.84976899350E-01  0.26599503075E+02  0.31886286050E+02  0.00000000000E+00 0.  1.
         11    1    3    3    0    0  0.62674718651E+01  0.10816996415E+02 -0.73751848294E+01  0.14514887755E+02  0.51100000000E-03 0. -1.
        -11    1    3    3    0    0 -0.47280868161E-01 -0.13793025086E+02 -0.27274387778E+02  0.30563736772E+02  0.51100000000E-03 0.  1.
        -12    1    3    3    0    0  0.11363734990E+02  0.28910517724E+01  0.80500695324E+01  0.14223089424E+02  0.00000000000E+00 0.  1.
</event>
<event>
 7    1  0.1113211E-011  0.5930195E+02  0.7816164E-02  0.1266605E+00
        -11   -1    0    0    0    0  0.00000000000E+00  0.00000000000E+00  0.45593999997E+02  0.45594000000E+02  0.51100000000E-03 0.  1.
         11   -1    0    0    0    0 -0.00000000000E+00 -0.00000000000E+00 -0.45593999997E+02  0.45594000000E+02  0.51100000000E-03 0. -1.
    9900012    2    1    2    0    0 -0.16320254518E+01 -0.31555477613E+02 -0.42788759160E+01  0.59301945783E+02  0.50000003201E+02 0.  0.
        -12    1    1    2    0    0  0.16320254518E+01  0.31555477613E+02  0.42788759160E+01  0.31886054217E+02  0.00000000000E+00 0.  1.
         11    1    3    3    0    0 -0.30461458195E+01 -0.26657989718E+02 -0.28621634858E+01  0.26983687669E+02  0.51100000000E-03 0. -1.
        -11    1    3    3    0    0 -0.29082713038E+01  0.10498852398E+02  0.82200774366E+01  0.13647476579E+02  0.51100000000E-03 0.  1.
        -12    1    3    3    0    0  0.43223916715E+01 -0.15396340293E+02 -0.96367898668E+01  0.18670781534E+02  0.00000000000E+00 0.  1.
</event>
<event>
 7    1  0.1113211E-011  0.5930194E+02  0.7816164E-02  0.1266605E+00
        -11   -1    0    0    0    0  0.00000000000E+00  0.00000000000E+00  0.45593999997E+02  0.45594000000E+02  0.51100000000E-03 0. -1.
         11   -1    0    0    0    0 -0.00000000000E+00 -0.00000000000E+00 -0.45593999997E+02  0.45594000000E+02  0.51100000000E-03 0.  1.
    9900012    2    1    2    0    0 -0.24019025733E+02  0.19521196512E+02  0.76635427824E+01  0.59301943511E+02  0.49999999058E+02 0.  0.
        -12    1    1    2    0    0  0.24019025733E+02 -0.19521196512E+02 -0.76635427824E+01  0.31886056489E+02  0.00000000000E+00 0.  1.
         11    1    3    3    0    0 -0.72818515299E+01  0.18916102276E+02  0.10899941230E+01  0.20298580602E+02  0.51100000000E-03 0.  1.
        -11    1    3    3    0    0 -0.18154612809E+02 -0.95585269581E+01  0.15250821865E+02  0.25564486532E+02  0.51100000000E-03 0. -1.
        -12    1    3    3    0    0  0.14174386054E+01  0.10163621194E+02 -0.86772732054E+01  0.13438876377E+02  0.00000000000E+00 0.  1.
</event>
<event>
 7    1  0.1113211E-011  0.5930193E+02  0.7816164E-02  0.1266605E+00
        -11   -1    0    0    0    0  0.00000000000E+00  0.00000000000E+00  0.45593999997E+02  0.45594000000E+02  0.51100000000E-03 0. -1.
         11   -1    0    0    0    0 -0.00000000000E+00 -0.00000000000E+00 -0.45593999997E+02  0.45594000000E+02  0.51100000000E-03 0.  1.
    9900012    2    1    2    0    0 -0.26012766753E+02 -0.18298319329E+02  0.22867456387E+01  0.59301925767E+02  0.49999966696E+02 0.  0.
        -12    1    1    2    0    0  0.26012766753E+02  0.18298319329E+02 -0.22867456387E+01  0.31886074233E+02  0.00000000000E+00 0.  1.
         11    1    3    3    0    0 -0.15380170232E+02 -0.29683822137E+02  0.39934494299E+01  0.33669371418E+02  0.51100000000E-03 0. -1.
        -11    1    3    3    0    0 -0.11077717125E+02  0.30511723402E+01  0.70939067999E+01  0.13503665551E+02  0.51100000000E-03 0.  1.
         12    1    3    3    0    0  0.44512060467E+00  0.83343304681E+01 -0.88006105911E+01  0.12128888798E+02  0.00000000000E+00 0. -1.
</event>
<event>
 7    1  0.1113211E-011  0.5930193E+02  0.7816164E-02  0.1266605E+00
        -11   -1    0    0    0    0  0.00000000000E+00  0.00000000000E+00  0.45593999997E+02  0.45594000000E+02  0.51100000000E-03 0.  1.
         11   -1    0    0    0    0 -0.00000000000E+00 -0.00000000000E+00 -0.45593999997E+02  0.45594000000E+02  0.51100000000E-03 0. -1.
    9900012    2    1    2    0    0  0.72551633520E+01  0.16290212503E+02 -0.26433175367E+02  0.59301934413E+02  0.49999982465E+02 0.  0.
        -12    1    1    2    0    0 -0.72551633520E+01 -0.16290212503E+02  0.26433175367E+02  0.31886065587E+02  0.00000000000E+00 0.  1.
         11    1    3    3    0    0  0.17323965554E+02  0.55898169476E+01 -0.20250992318E+02  0.27229919687E+02  0.51100000000E-03 0. -1.
        -11    1    3    3    0    0  0.64628430160E+00  0.10688201071E+02  0.86563864444E+01  0.13769108616E+02  0.51100000000E-03 0.  1.
         12    1    3    3    0    0 -0.10715086504E+02  0.12194483827E-01 -0.14838569493E+02  0.18302906110E+02  0.00000000000E+00 0. -1.
</event>
<event>
 7    1  0.1113211E-011  0.5930196E+02  0.7816164E-02  0.1266605E+00
        -11   -1    0    0    0    0  0.00000000000E+00  0.00000000000E+00  0.45593999997E+02  0.45594000000E+02  0.51100000000E-03 0.  1.
         11   -1    0    0    0    0 -0.00000000000E+00 -0.00000000000E+00 -0.45593999997E+02  0.45594000000E+02  0.51100000000E-03 0. -1.
    9900012    2    1    2    0    0  0.61750373040E+01  0.30085236585E+02 -0.85712781598E+01  0.59301963003E+02  0.50000034606E+02 0.  0.
        -12    1    1    2    0    0 -0.61750373040E+01 -0.30085236585E+02  0.85712781598E+01  0.31886036997E+02  0.00000000000E+00 0.  1.
         11    1    3    3    0    0 -0.10739798649E+01  0.31690275967E+01 -0.17881318854E+02  0.18191694063E+02  0.51100000000E-03 0. -1.
        -11    1    3    3    0    0 -0.19919508058E+01  0.30151797952E+02  0.63032624340E+01  0.30867943005E+02  0.51100000000E-03 0.  1.
         12    1    3    3    0    0  0.92409679748E+01 -0.32355889635E+01  0.30067782604E+01  0.10242325935E+02  0.00000000000E+00 0. -1.
</event>
<event>
 7    1  0.1113211E-011  0.5930195E+02  0.7816164E-02  0.1266605E+00
        -11   -1    0    0    0    0  0.00000000000E+00  0.00000000000E+00  0.45593999997E+02  0.45594000000E+02  0.51100000000E-03 0.  1.
         11   -1    0    0    0    0 -0.00000000000E+00 -0.00000000000E+00 -0.45593999997E+02  0.45594000000E+02  0.51100000000E-03 0. -1.
    9900012    2    1    2    0    0 -0.19705813116E+02  0.23685207215E+02  0.82104833932E+01  0.59301950559E+02  0.50000011912E+02 0.  0.
        -12    1    1    2    0    0  0.19705813116E+02 -0.23685207215E+02 -0.82104833932E+01  0.31886049441E+02  0.00000000000E+00 0.  1.
         11    1    3    3    0    0 -0.53594495211E+01  0.18461841802E+02 -0.17293479110E+01  0.19301656570E+02  0.51100000000E-03 0. -1.
        -11    1    3    3    0    0  0.54833561158E+01 -0.69700258136E+01  0.13799822585E+02  0.16403766573E+02  0.51100000000E-03 0.  1.
         12    1    3    3    0    0 -0.19829719711E+02  0.12193391227E+02 -0.38599912807E+01  0.23596527417E+02  0.00000000000E+00 0. -1.
</event>
<event>
 7    1  0.1113211E-011  0.5930193E+02  0.7816164E-02  0.1266605E+00
        -11   -1    0    0    0    0  0.00000000000E+00  0.00000000000E+00  0.45593999997E+02  0.45594000000E+02  0.51100000000E-03 0.  1.
         11   -1    0    0    0    0 -0.00000000000E+00 -0.00000000000E+00 -0.45593999997E+02  0.45594000000E+02  0.51100000000E-03 0. -1.
    9900012    2    1    2    0    0 -0.25033213885E+02  0.15046442232E+02 -0.12793121870E+02  0.59301934260E+02  0.49999982185E+02 0.  0.
        -12    1    1    2    0    0  0.25033213885E+02 -0.15046442232E+02  0.12793121870E+02  0.31886065740E+02  0.00000000000E+00 0.  1.
         11    1    3    3    0    0 -0.14661670728E+02  0.10775866383E+02 -0.13401137837E+02  0.22598105682E+02  0.51100000000E-03 0. -1.
        -11    1    3    3    0    0 -0.47724728424E+01  0.13148788635E+02  0.13931695840E+02  0.19742322276E+02  0.51100000000E-03 0.  1.
         12    1    3    3    0    0 -0.55990703145E+01 -0.88782127859E+01 -0.13323679873E+02  0.16961506302E+02  0.00000000000E+00 0. -1.
</event>
<event>
 7    1  0.1113211E-011  0.5930204E+02  0.7816164E-02  0.1266604E+00
        -11   -1    0    0    0    0  0.00000000000E+00  0.00000000000E+00  0.45593999997E+02  0.45594000000E+02  0.51100000000E-03 0. -1.
         11   -1    0    0    0    0 -0.00000000000E+00 -0.00000000000E+00 -0.45593999997E+02  0.45594000000E+02  0.51100000000E-03 0.  1.
    9900012    2    1    2    0    0  0.15956266866E+02  0.20421702774E+02  0.18575952681E+02  0.59302040480E+02  0.50000175906E+02 0.  0.
        -12    1    1    2    0    0 -0.15956266866E+02 -0.20421702774E+02 -0.18575952681E+02  0.31885959520E+02  0.00000000000E+00 0.  1.
         11    1    3    3    0    0  0.18250027269E+02  0.95887946137E+01  0.30065836839E+02  0.36454945104E+02  0.51100000000E-03 0. -1.
        -11    1    3    3    0    0 -0.75230995607E+01  0.79337558278E+00 -0.14209304497E+01  0.76971108488E+01  0.51100000000E-03 0.  1.
         12    1    3    3    0    0  0.52293391577E+01  0.10039532577E+02 -0.10068953708E+02  0.15149984527E+02  0.00000000000E+00 0. -1.
</event>
<event>
 7    1  0.1113211E-011  0.5930193E+02  0.7816164E-02  0.1266605E+00
        -11   -1    0    0    0    0  0.00000000000E+00  0.00000000000E+00  0.45593999997E+02  0.45594000000E+02  0.51100000000E-03 0.  1.
         11   -1    0    0    0    0 -0.00000000000E+00 -0.00000000000E+00 -0.45593999997E+02  0.45594000000E+02  0.51100000000E-03 0. -1.
    9900012    2    1    2    0    0 -0.48295740957E+01  0.28677741202E+02 -0.13076086952E+02  0.59301926608E+02  0.49999968231E+02 0.  0.
        -12    1    1    2    0    0  0.48295740957E+01 -0.28677741202E+02  0.13076086952E+02  0.31886073392E+02  0.00000000000E+00 0.  1.
         11    1    3    3    0    0  0.19737025214E+02  0.14136781590E+02  0.80837346701E+00  0.24290990633E+02  0.51100000000E-03 0. -1.
        -11    1    3    3    0    0 -0.13030822950E+02  0.15652231476E+01 -0.11568123395E+02  0.17494963544E+02  0.51100000000E-03 0.  1.
        -12    1    3    3    0    0 -0.11535776360E+02  0.12975736464E+02 -0.23163370243E+01  0.17515972431E+02  0.00000000000E+00 0.  1.
</event>
<event>
 7    1  0.1113211E-011  0.5930194E+02  0.7816164E-02  0.1266605E+00
        -11   -1    0    0    0    0  0.00000000000E+00  0.00000000000E+00  0.45593999997E+02  0.45594000000E+02  0.51100000000E-03 0.  1.
         11   -1    0    0    0    0 -0.00000000000E+00 -0.00000000000E+00 -0.45593999997E+02  0.45594000000E+02  0.51100000000E-03 0. -1.
    9900012    2    1    2    0    0 -0.18108687545E+02  0.21273723299E+02 -0.15369619586E+02  0.59301936056E+02  0.49999985462E+02 0.  0.
        -12    1    1    2    0    0  0.18108687545E+02 -0.21273723299E+02  0.15369619586E+02  0.31886063944E+02  0.00000000000E+00 0.  1.
         11    1    3    3    0    0 -0.31711733723E+01  0.12188055018E+02 -0.19200018190E+02  0.22961831905E+02  0.51100000000E-03 0. -1.
        -11    1    3    3    0    0 -0.20762251901E+02  0.16455307065E+02  0.47010078884E+01  0.26906276406E+02  0.51100000000E-03 0.  1.
        -12    1    3    3    0    0  0.58247377283E+01 -0.73696387839E+01 -0.87060928460E+00  0.94338277457E+01  0.00000000000E+00 0.  1.
</event>
<event>
 7    1  0.1113211E-011  0.5930194E+02  0.7816164E-02  0.1266605E+00
        -11   -1    0    0    0    0  0.00000000000E+00  0.00000000000E+00  0.45593999997E+02  0.45594000000E+02  0.51100000000E-03 0. -1.
         11   -1    0    0    0    0 -0.00000000000E+00 -0.00000000000E+00 -0.45593999997E+02  0.45594000000E+02  0.51100000000E-03 0.  1.
    9900012    2    1    2    0    0  0.28540733811E+02 -0.24482973033E+01  0.14005472546E+02  0.59301938666E+02  0.49999990222E+02 0.  0.
        -12    1    1    2    0    0 -0.28540733811E+02  0.24482973033E+01 -0.14005472546E+02  0.31886061334E+02  0.00000000000E+00 0.  1.
         11    1    3    3    0    0 -0.17106079419E+01 -0.35298372928E+01  0.15289751283E+02  0.15784879644E+02  0.51100000000E-03 0. -1.
        -11    1    3    3    0    0  0.29053980374E+02 -0.81414642421E+01 -0.89414337945E+01  0.31470088245E+02  0.51100000000E-03 0.  1.
        -12    1    3    3    0    0  0.11973613786E+01  0.92230042316E+01  0.76571550574E+01  0.12046970777E+02  0.00000000000E+00 0.  1.
</event>
<event>
 7    1  0.1113211E-011  0.5930195E+02  0.7816164E-02  0.1266605E+00
        -11   -1    0    0    0    0  0.00000000000E+00  0.00000000000E+00  0.45593999997E+02  0.45594000000E+02  0.51100000000E-03 0. -1.
         11   -1    0    0    0    0 -0.00000000000E+00 -0.00000000000E+00 -0.45593999997E+02  0.45594000000E+02  0.51100000000E-03 0.  1.
    9900012    2    1    2    0    0 -0.31208224448E+01 -0.75991524667E+01  0.30809634947E+02  0.59301948872E+02  0.50000008836E+02 0.  0.
        -12    1    1    2    0    0  0.31208224448E+01  0.75991524667E+01 -0.30809634947E+02  0.31886051128E+02  0.00000000000E+00 0.  1.
         11    1    3    3    0    0 -0.28079176708E+01  0.99220149586E+01  0.38416682011E+02  0.39776528751E+02  0.51100000000E-03 0. -1.
        -11    1    3    3    0    0 -0.40963687870E-01 -0.10127781962E+02 -0.22060250375E+01  0.10365336088E+02  0.51100000000E-03 0.  1.
         12    1    3    3    0    0 -0.27194108605E+00 -0.73933854634E+01 -0.54010220266E+01  0.91600840333E+01  0.00000000000E+00 0. -1.
</event>
<event>
 7    1  0.1113211E-011  0.5930194E+02  0.7816164E-02  0.1266605E+00
        -11   -1    0    0    0    0  0.00000000000E+00  0.00000000000E+00  0.45593999997E+02  0.45594000000E+02  0.51100000000E-03 0. -1.
         11   -1    0    0    0    0 -0.00000000000E+00 -0.00000000000E+00 -0.45593999997E+02  0.45594000000E+02  0.51100000000E-03 0.  1.
    9900012    2    1    2    0    0 -0.81355830620E+01  0.22840712856E+02  0.20708326721E+02  0.59301942371E+02  0.49999996979E+02 0.  0.
        -12    1    1    2    0    0  0.81355830620E+01 -0.22840712856E+02 -0.20708326721E+02  0.31886057629E+02  0.00000000000E+00 0.  1.
         11    1    3    3    0    0 -0.20292119027E+02  0.21240959306E+02 -0.28706157452E+00  0.29377386736E+02  0.51100000000E-03 0. -1.
        -11    1    3    3    0    0  0.15260432518E+02  0.39481862217E+00  0.21689866407E+02  0.26523329115E+02  0.51100000000E-03 0.  1.
        -12    1    3    3    0    0 -0.31038965525E+01  0.12049349286E+01 -0.69447811149E+00  0.34012265197E+01  0.00000000000E+00 0.  1.
</event>
<event>
 7    1  0.1113211E-011  0.5930174E+02  0.7816164E-02  0.1266605E+00
        -11   -1    0    0    0    0  0.00000000000E+00  0.00000000000E+00  0.45593999997E+02  0.45594000000E+02  0.51100000000E-03 0. -1.
         11   -1    0    0    0    0 -0.00000000000E+00 -0.00000000000E+00 -0.45593999997E+02  0.45594000000E+02  0.51100000000E-03 0.  1.
    9900012    2    1    2    0    0 -0.14237928021E+02 -0.28446516108E+02 -0.21933737555E+01  0.59301737105E+02  0.49999622621E+02 0.  0.
        -12    1    1    2    0    0  0.14237928021E+02  0.28446516108E+02  0.21933737555E+01  0.31886262895E+02  0.00000000000E+00 0.  1.
         11    1    3    3    0    0  0.24202850245E-01 -0.87088171555E+01  0.35905002537E+01  0.94199667918E+01  0.51100000000E-03 0. -1.
        -11    1    3    3    0    0 -0.21043307741E+02  0.61552835926E+01 -0.72030128021E+01  0.23077948576E+02  0.51100000000E-03 0.  1.
        -12    1    3    3    0    0  0.67811768695E+01 -0.25892982545E+02  0.14191387929E+01  0.26803821737E+02  0.00000000000E+00 0.  1.
</event>
<event>
 7    1  0.1113211E-011  0.5930195E+02  0.7816164E-02  0.1266605E+00
        -11   -1    0    0    0    0  0.00000000000E+00  0.00000000000E+00  0.45593999997E+02  0.45594000000E+02  0.51100000000E-03 0. -1.
         11   -1    0    0    0    0 -0.00000000000E+00 -0.00000000000E+00 -0.45593999997E+02  0.45594000000E+02  0.51100000000E-03 0.  1.
    9900012    2    1    2    0    0  0.21089550411E+02 -0.39111874046E+01  0.23593509289E+02  0.59301949695E+02  0.50000010336E+02 0.  0.
        -12    1    1    2    0    0 -0.21089550411E+02  0.39111874046E+01 -0.23593509289E+02  0.31886050305E+02  0.00000000000E+00 0.  1.
         11    1    3    3    0    0  0.12461347105E+01 -0.13677383086E+02  0.23872597834E+02  0.27541325085E+02  0.51100000000E-03 0. -1.
        -11    1    3    3    0    0  0.20380456477E+02 -0.12857916689E+01  0.18066350892E+01  0.20500736500E+02  0.51100000000E-03 0.  1.
         12    1    3    3    0    0 -0.53704077658E+00  0.11051987350E+02 -0.20857236343E+01  0.11259888110E+02  0.00000000000E+00 0. -1.
</event>
<event>
 7    1  0.1113211E-011  0.5930199E+02  0.7816164E-02  0.1266605E+00
        -11   -1    0    0    0    0  0.00000000000E+00  0.00000000000E+00  0.45593999997E+02  0.45594000000E+02  0.51100000000E-03 0.  1.
         11   -1    0    0    0    0 -0.00000000000E+00 -0.00000000000E+00 -0.45593999997E+02  0.45594000000E+02  0.51100000000E-03 0. -1.
    9900012    2    1    2    0    0  0.10063610384E+02 -0.29333528572E+02 -0.74152123963E+01  0.59301991669E+02  0.50000086886E+02 0.  0.
        -12    1    1    2    0    0 -0.10063610384E+02  0.29333528572E+02  0.74152123963E+01  0.31886008331E+02  0.00000000000E+00 0.  1.
         11    1    3    3    0    0  0.36607868247E+01 -0.15450491622E+02  0.11245571844E+02  0.19457182168E+02  0.51100000000E-03 0. -1.
        -11    1    3    3    0    0  0.14784012881E+02  0.13197434460E+01 -0.16749742615E+02  0.22379960624E+02  0.51100000000E-03 0.  1.
        -12    1    3    3    0    0 -0.83811893216E+01 -0.15202780395E+02 -0.19110416256E+01  0.17464848877E+02  0.00000000000E+00 0.  1.
</event>
<event>
 7    1  0.1113211E-011  0.5930195E+02  0.7816164E-02  0.1266605E+00
        -11   -1    0    0    0    0  0.00000000000E+00  0.00000000000E+00  0.45593999997E+02  0.45594000000E+02  0.51100000000E-03 0.  1.
         11   -1    0    0    0    0 -0.00000000000E+00 -0.00000000000E+00 -0.45593999997E+02  0.45594000000E+02  0.51100000000E-03 0. -1.
    9900012    2    1    2    0    0 -0.30772833689E+02  0.73487877151E+01 -0.39684075440E+01  0.59301949248E+02  0.50000009521E+02 0.  0.
        -12    1    1    2    0    0  0.30772833689E+02 -0.73487877151E+01  0.39684075440E+01  0.31886050752E+02  0.00000000000E+00 0.  1.
         11    1    3    3    0    0 -0.37297308510E+02  0.10595138461E+02 -0.10427089717E+02  0.40150596276E+02  0.51100000000E-03 0. -1.
        -11    1    3    3    0    0  0.86040108980E+01  0.45221818236E+01  0.51611579957E+01  0.11005302544E+02  0.51100000000E-03 0.  1.
         12    1    3    3    0    0 -0.20795360767E+01 -0.77685325693E+01  0.12975241774E+01  0.81460504274E+01  0.00000000000E+00 0. -1.
</event>
<event>
 7    1  0.1113211E-011  0.5930194E+02  0.7816164E-02  0.1266605E+00
        -11   -1    0    0    0    0  0.00000000000E+00  0.00000000000E+00  0.45593999997E+02  0.45594000000E+02  0.51100000000E-03 0. -1.
         11   -1    0    0    0    0 -0.00000000000E+00 -0.00000000000E+00 -0.45593999997E+02  0.45594000000E+02  0.51100000000E-03 0.  1.
    9900012    2    1    2    0    0  0.70171501996E+01 -0.25259022418E+02  0.18151090617E+02  0.59301941902E+02  0.49999996123E+02 0.  0.
        -12    1    1    2    0    0 -0.70171501996E+01  0.25259022418E+02 -0.18151090617E+02  0.31886058098E+02  0.00000000000E+00 0.  1.
         11    1    3    3    0    0  0.75670637950E+01  0.38289932988E+01  0.11389765405E+02  0.14200295785E+02  0.51100000000E-03 0. -1.
        -11    1    3    3    0    0  0.11365616887E+02 -0.30297959638E+02  0.27728359030E+01  0.32478180747E+02  0.51100000000E-03 0.  1.
        -12    1    3    3    0    0 -0.11915530482E+02  0.12099439213E+01  0.39884893098E+01  0.12623465370E+02  0.00000000000E+00 0.  1.
</event>
<event>
 7    1  0.1113211E-011  0.5930194E+02  0.7816164E-02  0.1266605E+00
        -11   -1    0    0    0    0  0.00000000000E+00  0.00000000000E+00  0.45593999997E+02  0.45594000000E+02  0.51100000000E-03 0. -1.
         11   -1    0    0    0    0 -0.00000000000E+00 -0.00000000000E+00 -0.45593999997E+02  0.45594000000E+02  0.51100000000E-03 0.  1.
    9900012    2    1    2    0    0 -0.18872931714E+02 -0.37856503642E+01  0.25420500396E+02  0.59301944419E+02  0.50000000713E+02 0.  0.
        -12    1    1    2    0    0  0.18872931714E+02  0.37856503642E+01 -0.25420500396E+02  0.31886055581E+02  0.00000000000E+00 0.  1.
         11    1    3    3    0    0 -0.32079517797E+02  0.67695800992E+01  0.11607880301E+02  0.34780246724E+02  0.51100000000E-03 0. -1.
        -11    1    3    3    0    0  0.11179912821E+02 -0.23829606146E+01  0.10340324536E+02  0.15413995710E+02  0.51100000000E-03 0.  1.
        -12    1    3    3    0    0  0.20266732623E+01 -0.81722698488E+01  0.34722955583E+01  0.91077019845E+01  0.00000000000E+00 0.  1.
</event>
<event>
 7    1  0.1113211E-011  0.5930195E+02  0.7816164E-02  0.1266605E+00
        -11   -1    0    0    0    0  0.00000000000E+00  0.00000000000E+00  0.45593999997E+02  0.45594000000E+02  0.51100000000E-03 0.  1.
         11   -1    0    0    0    0 -0.00000000000E+00 -0.00000000000E+00 -0.45593999997E+02  0.45594000000E+02  0.51100000000E-03 0. -1.
    9900012    2    1    2    0    0  0.23636763271E+01 -0.24802219061E+02 -0.19899330556E+02  0.59301946737E+02  0.50000004940E+02 0.  0.
        -12    1    1    2    0    0 -0.23636763271E+01  0.24802219061E+02  0.19899330556E+02  0.31886053263E+02  0.00000000000E+00 0.  1.
         11    1    3    3    0    0 -0.17205328248E+02 -0.13323251066E+02 -0.12960046098E+02  0.25327754228E+02  0.51100000000E-03 0. -1.
        -11    1    3    3    0    0  0.17258723550E+02 -0.17525516923E+02 -0.15500989243E+00  0.24597384217E+02  0.51100000000E-03 0.  1.
        -12    1    3    3    0    0  0.23102810252E+01  0.60465489281E+01 -0.67842745654E+01  0.93768082914E+01  0.00000000000E+00 0.  1.
</event>
<event>
 7    1  0.1113211E-011  0.5930193E+02  0.7816164E-02  0.1266605E+00
        -11   -1    0    0    0    0  0.00000000000E+00  0.00000000000E+00  0.45593999997E+02  0.45594000000E+02  0.51100000000E-03 0. -1.
         11   -1    0    0    0    0 -0.00000000000E+00 -0.00000000000E+00 -0.45593999997E+02  0.45594000000E+02  0.51100000000E-03 0.  1.
    9900012    2    1    2    0    0 -0.23235662500E+02  0.58584866525E+01 -0.21035766665E+02  0.59301931618E+02  0.49999977367E+02 0.  0.
        -12    1    1    2    0    0  0.23235662500E+02 -0.58584866525E+01  0.21035766665E+02  0.31886068382E+02  0.00000000000E+00 0.  1.
         11    1    3    3    0    0 -0.10720738001E+02  0.10352911859E+01  0.24689536923E+00  0.10773439966E+02  0.51100000000E-03 0. -1.
        -11    1    3    3    0    0  0.49993305984E+01 -0.15664381245E+02 -0.57467447134E+01  0.17418129099E+02  0.51100000000E-03 0.  1.
        -12    1    3    3    0    0 -0.17514255098E+02  0.20487576712E+02 -0.15535917321E+02  0.31110362553E+02  0.00000000000E+00 0.  1.
</event>
<event>
 7    1  0.1113211E-011  0.5930197E+02  0.7816164E-02  0.1266605E+00
        -11   -1    0    0    0    0  0.00000000000E+00  0.00000000000E+00  0.45593999997E+02  0.45594000000E+02  0.51100000000E-03 0. -1.
         11   -1    0    0    0    0 -0.00000000000E+00 -0.00000000000E+00 -0.45593999997E+02  0.45594000000E+02  0.51100000000E-03 0.  1.
    9900012    2    1    2    0    0 -0.20395175945E+02  0.17834323562E+02  0.16813465713E+02  0.59301969704E+02  0.50000046827E+02 0.  0.
        -12    1    1    2    0    0  0.20395175945E+02 -0.17834323562E+02 -0.16813465713E+02  0.31886030296E+02  0.00000000000E+00 0.  1.
         11    1    3    3    0    0 -0.23490475265E+02  0.13034553211E+02  0.21235469417E+02  0.34243936211E+02  0.51100000000E-03 0. -1.
        -11    1    3    3    0    0  0.11087396737E+02  0.60524659796E+01  0.41263523101E+01  0.13288697998E+02  0.51100000000E-03 0.  1.
         12    1    3    3    0    0 -0.79920974171E+01 -0.12526956282E+01 -0.85483560142E+01  0.11769335496E+02  0.00000000000E+00 0. -1.
</event>
<event>
 7    1  0.1113211E-011  0.5930195E+02  0.7816164E-02  0.1266605E+00
        -11   -1    0    0    0    0  0.00000000000E+00  0.00000000000E+00  0.45593999997E+02  0.45594000000E+02  0.51100000000E-03 0.  1.
         11   -1    0    0    0    0 -0.00000000000E+00 -0.00000000000E+00 -0.45593999997E+02  0.45594000000E+02  0.51100000000E-03 0. -1.
    9900012    2    1    2    0    0 -0.27130983679E+02  0.58594755059E+01 -0.15693841310E+02  0.59301946879E+02  0.50000005199E+02 0.  0.
        -12    1    1    2    0    0  0.27130983679E+02 -0.58594755059E+01  0.15693841310E+02  0.31886053121E+02  0.00000000000E+00 0.  1.
         11    1    3    3    0    0 -0.25072816760E+02  0.36039246161E+01 -0.36810963927E+01  0.25596579533E+02  0.51100000000E-03 0. -1.
        -11    1    3    3    0    0  0.93141227109E+01 -0.83320832729E+01 -0.13130925863E+02  0.18127264212E+02  0.51100000000E-03 0.  1.
        -12    1    3    3    0    0 -0.11372289630E+02  0.10587634163E+02  0.11181809455E+01  0.15578103133E+02  0.00000000000E+00 0.  1.
</event>
<event>
 7    1  0.1113211E-011  0.5930165E+02  0.7816164E-02  0.1266606E+00
        -11   -1    0    0    0    0  0.00000000000E+00  0.00000000000E+00  0.45593999997E+02  0.45594000000E+02  0.51100000000E-03 0.  1.
         11   -1    0    0    0    0 -0.00000000000E+00 -0.00000000000E+00 -0.45593999997E+02  0.45594000000E+02  0.51100000000E-03 0. -1.
    9900012    2    1    2    0    0  0.16885479606E+02  0.21967079156E+02 -0.15781876452E+02  0.59301645356E+02  0.49999455291E+02 0.  0.
        -12    1    1    2    0    0 -0.16885479606E+02 -0.21967079156E+02  0.15781876452E+02  0.31886354644E+02  0.00000000000E+00 0.  1.
         11    1    3    3    0    0 -0.80593897608E+01  0.21959282502E+02 -0.67147422551E+01  0.24336220231E+02  0.51100000000E-03 0. -1.
        -11    1    3    3    0    0  0.12014827260E+02 -0.10901324720E+02 -0.10849046410E+01  0.16259519461E+02  0.51100000000E-03 0.  1.
         12    1    3    3    0    0  0.12930042106E+02  0.10909121375E+02 -0.79822295557E+01  0.18705905664E+02  0.00000000000E+00 0. -1.
</event>
<event>
 7    1  0.1113211E-011  0.5930185E+02  0.7816164E-02  0.1266605E+00
        -11   -1    0    0    0    0  0.00000000000E+00  0.00000000000E+00  0.45593999997E+02  0.45594000000E+02  0.51100000000E-03 0.  1.
         11   -1    0    0    0    0 -0.00000000000E+00 -0.00000000000E+00 -0.45593999997E+02  0.45594000000E+02  0.51100000000E-03 0. -1.
    9900012    2    1    2    0    0  0.19945563748E+02  0.24877346993E+02  0.13738824403E+00  0.59301846545E+02  0.49999822214E+02 0.  0.
        -12    1    1    2    0    0 -0.19945563748E+02 -0.24877346993E+02 -0.13738824403E+00  0.31886153455E+02  0.00000000000E+00 0.  1.
         11    1    3    3    0    0  0.18302455610E+02  0.21841089616E+02  0.74627709648E-02  0.28495844135E+02  0.51100000000E-03 0. -1.
        -11    1    3    3    0    0 -0.65555603322E+01 -0.84672703811E+01 -0.89983273308E+01  0.13987134588E+02  0.51100000000E-03 0.  1.
        -12    1    3    3    0    0  0.81986684700E+01  0.11503527758E+02  0.91282528039E+01  0.16818867822E+02  0.00000000000E+00 0.  1.
</event>
<event>
 7    1  0.1113211E-011  0.5930201E+02  0.7816164E-02  0.1266605E+00
        -11   -1    0    0    0    0  0.00000000000E+00  0.00000000000E+00  0.45593999997E+02  0.45594000000E+02  0.51100000000E-03 0. -1.
         11   -1    0    0    0    0 -0.00000000000E+00 -0.00000000000E+00 -0.45593999997E+02  0.45594000000E+02  0.51100000000E-03 0.  1.
    9900012    2    1    2    0    0 -0.13982518048E+02  0.77010724860E+01  0.27602523683E+02  0.59302005550E+02  0.50000112201E+02 0.  0.
        -12    1    1    2    0    0  0.13982518048E+02 -0.77010724860E+01 -0.27602523683E+02  0.31885994450E+02  0.00000000000E+00 0.  1.
         11    1    3    3    0    0 -0.19229741816E+02 -0.80896916846E+01 -0.54097173515E+01  0.21552056142E+02  0.51100000000E-03 0. -1.
        -11    1    3    3    0    0  0.45253503776E+01  0.28829074894E+01  0.89718524859E+01  0.10453903047E+02  0.51100000000E-03 0.  1.
         12    1    3    3    0    0  0.72187339104E+00  0.12907856681E+02  0.24040388549E+02  0.27296046360E+02  0.00000000000E+00 0. -1.
</event>
<event>
 7    1  0.1113211E-011  0.5930196E+02  0.7816164E-02  0.1266605E+00
        -11   -1    0    0    0    0  0.00000000000E+00  0.00000000000E+00  0.45593999997E+02  0.45594000000E+02  0.51100000000E-03 0.  1.
         11   -1    0    0    0    0 -0.00000000000E+00 -0.00000000000E+00 -0.45593999997E+02  0.45594000000E+02  0.51100000000E-03 0. -1.
    9900012    2    1    2    0    0 -0.19521222899E+02  0.24247090470E+02 -0.69079765431E+01  0.59301957918E+02  0.50000025332E+02 0.  0.
        -12    1    1    2    0    0  0.19521222899E+02 -0.24247090470E+02  0.69079765431E+01  0.31886042082E+02  0.00000000000E+00 0.  1.
         11    1    3    3    0    0 -0.11016618454E+02  0.12516553077E+02 -0.33424774687E+00  0.16677580907E+02  0.51100000000E-03 0. -1.
        -11    1    3    3    0    0 -0.25850633508E+01 -0.14732023423E+02 -0.14415132285E+01  0.15026410992E+02  0.51100000000E-03 0.  1.
        -12    1    3    3    0    0 -0.59195410948E+01  0.26462560816E+02 -0.51322155677E+01  0.27597966019E+02  0.00000000000E+00 0.  1.
</event>
<event>
 7    1  0.1113211E-011  0.5930197E+02  0.7816164E-02  0.1266605E+00
        -11   -1    0    0    0    0  0.00000000000E+00  0.00000000000E+00  0.45593999997E+02  0.45594000000E+02  0.51100000000E-03 0. -1.
         11   -1    0    0    0    0 -0.00000000000E+00 -0.00000000000E+00 -0.45593999997E+02  0.45594000000E+02  0.51100000000E-03 0.  1.
    9900012    2    1    2    0    0  0.26831466361E+02  0.16869000894E+02 -0.34968574909E+01  0.59301971860E+02  0.50000050760E+02 0.  0.
        -12    1    1    2    0    0 -0.26831466361E+02 -0.16869000894E+02  0.34968574909E+01  0.31886028140E+02  0.00000000000E+00 0.  1.
         11    1    3    3    0    0  0.17809438855E+02  0.12498452470E+02  0.37142884295E+01  0.22072230636E+02  0.51100000000E-03 0. -1.
        -11    1    3    3    0    0  0.15235450340E+02 -0.11358033951E+02 -0.71910535358E+01  0.20318344754E+02  0.51100000000E-03 0.  1.
        -12    1    3    3    0    0 -0.62134228351E+01  0.15728582376E+02 -0.20092384539E-01  0.16911396470E+02  0.00000000000E+00 0.  1.
</event>
<event>
 7    1  0.1113211E-011  0.5930191E+02  0.7816164E-02  0.1266605E+00
        -11   -1    0    0    0    0  0.00000000000E+00  0.00000000000E+00  0.45593999997E+02  0.45594000000E+02  0.51100000000E-03 0.  1.
         11   -1    0    0    0    0 -0.00000000000E+00 -0.00000000000E+00 -0.45593999997E+02  0.45594000000E+02  0.51100000000E-03 0. -1.
    9900012    2    1    2    0    0 -0.21863560499E+02 -0.14170366775E+02 -0.18382280491E+02  0.59301908859E+02  0.49999935860E+02 0.  0.
        -12    1    1    2    0    0  0.21863560499E+02  0.14170366775E+02  0.18382280491E+02  0.31886091141E+02  0.00000000000E+00 0.  1.
         11    1    3    3    0    0 -0.18955547583E+02  0.74801279222E+00 -0.21698721650E+01  0.19093995203E+02  0.51100000000E-03 0. -1.
        -11    1    3    3    0    0  0.66794155921E+01  0.70586337031E+01 -0.12674169166E+02  0.15971019589E+02  0.51100000000E-03 0.  1.
        -12    1    3    3    0    0 -0.95874285074E+01 -0.21977013270E+02 -0.35382391598E+01  0.24236894067E+02  0.00000000000E+00 0.  1.
</event>
<event>
 7    1  0.1113211E-011  0.5930188E+02  0.7816164E-02  0.1266605E+00
        -11   -1    0    0    0    0  0.00000000000E+00  0.00000000000E+00  0.45593999997E+02  0.45594000000E+02  0.51100000000E-03 0.  1.
         11   -1    0    0    0    0 -0.00000000000E+00 -0.00000000000E+00 -0.45593999997E+02  0.45594000000E+02  0.51100000000E-03 0. -1.
    9900012    2    1    2    0    0  0.23325359520E+02 -0.11581782596E+02  0.18398765958E+02  0.59301879608E+02  0.49999882515E+02 0.  0.
        -12    1    1    2    0    0 -0.23325359520E+02  0.11581782596E+02 -0.18398765958E+02  0.31886120392E+02  0.00000000000E+00 0.  1.
         11    1    3    3    0    0  0.74656534464E+01 -0.12993526891E+02 -0.23999034781E+01  0.15176536476E+02  0.51100000000E-03 0. -1.
        -11    1    3    3    0    0  0.20799747176E+02  0.12057052841E+01  0.28299345146E+02  0.35141658239E+02  0.51100000000E-03 0.  1.
        -12    1    3    3    0    0 -0.49400411015E+01  0.20603901159E+00 -0.75006757100E+01  0.89836848935E+01  0.00000000000E+00 0.  1.
</event>
<event>
 7    1  0.1113211E-011  0.5930204E+02  0.7816164E-02  0.1266604E+00
        -11   -1    0    0    0    0  0.00000000000E+00  0.00000000000E+00  0.45593999997E+02  0.45594000000E+02  0.51100000000E-03 0. -1.
         11   -1    0    0    0    0 -0.00000000000E+00 -0.00000000000E+00 -0.45593999997E+02  0.45594000000E+02  0.51100000000E-03 0.  1.
    9900012    2    1    2    0    0  0.29097143693E+01  0.31426631727E+02  0.45403825150E+01  0.59302036116E+02  0.50000167947E+02 0.  0.
        -12    1    1    2    0    0 -0.29097143693E+01 -0.31426631727E+02 -0.45403825150E+01  0.31885963884E+02  0.00000000000E+00 0.  1.
         11    1    3    3    0    0 -0.11143139440E+01  0.39869885507E+02  0.66783464469E+01  0.40440694572E+02  0.51100000000E-03 0. -1.
        -11    1    3    3    0    0 -0.21710660259E+00 -0.35949054806E+00 -0.80009479145E+01  0.80119620895E+01  0.51100000000E-03 0.  1.
         12    1    3    3    0    0  0.42411349159E+01 -0.80837632324E+01  0.58629839825E+01  0.10849379455E+02  0.00000000000E+00 0. -1.
</event>
<event>
 7    1  0.1113211E-011  0.5930196E+02  0.7816164E-02  0.1266605E+00
        -11   -1    0    0    0    0  0.00000000000E+00  0.00000000000E+00  0.45593999997E+02  0.45594000000E+02  0.51100000000E-03 0.  1.
         11   -1    0    0    0    0 -0.00000000000E+00 -0.00000000000E+00 -0.45593999997E+02  0.45594000000E+02  0.51100000000E-03 0. -1.
    9900012    2    1    2    0    0 -0.26966852494E+02  0.19899717469E+00  0.17013782456E+02  0.59301960316E+02  0.50000029705E+02 0.  0.
        -12    1    1    2    0    0  0.26966852494E+02 -0.19899717469E+00 -0.17013782456E+02  0.31886039684E+02  0.00000000000E+00 0.  1.
         11    1    3    3    0    0 -0.33415050831E+01  0.15997702899E+01  0.38388421101E+00  0.37245521273E+01  0.51100000000E-03 0. -1.
        -11    1    3    3    0    0 -0.18868819403E+00  0.78012401571E+01  0.27179959241E+02  0.28277997380E+02  0.51100000000E-03 0.  1.
        -12    1    3    3    0    0 -0.23436659216E+02 -0.92020132724E+01 -0.10550060995E+02  0.27299410809E+02  0.00000000000E+00 0.  1.
</event>
<event>
 7    1  0.1113211E-011  0.5930195E+02  0.7816164E-02  0.1266605E+00
        -11   -1    0    0    0    0  0.00000000000E+00  0.00000000000E+00  0.45593999997E+02  0.45594000000E+02  0.51100000000E-03 0.  1.
         11   -1    0    0    0    0 -0.00000000000E+00 -0.00000000000E+00 -0.45593999997E+02  0.45594000000E+02  0.51100000000E-03 0. -1.
    9900012    2    1    2    0    0 -0.23135590215E+01  0.22207688034E+02 -0.22763701812E+02  0.59301951588E+02  0.50000013788E+02 0.  0.
        -12    1    1    2    0    0  0.23135590215E+01 -0.22207688034E+02  0.22763701812E+02  0.31886048412E+02  0.00000000000E+00 0.  1.
         11    1    3    3    0    0 -0.10395314135E+02  0.78057923249E+01 -0.30955545055E+02  0.33574375940E+02  0.51100000000E-03 0. -1.
        -11    1    3    3    0    0  0.10634597103E+02  0.11204393367E+01  0.21154928657E+01  0.10900704114E+02  0.51100000000E-03 0.  1.
         12    1    3    3    0    0 -0.25528419896E+01  0.13281456372E+02  0.60763503778E+01  0.14826871534E+02  0.00000000000E+00 0. -1.
</event>
<event>
 7    1  0.1113211E-011  0.5930195E+02  0.7816164E-02  0.1266605E+00
        -11   -1    0    0    0    0  0.00000000000E+00  0.00000000000E+00  0.45593999997E+02  0.45594000000E+02  0.51100000000E-03 0. -1.
         11   -1    0    0    0    0 -0.00000000000E+00 -0.00000000000E+00 -0.45593999997E+02  0.45594000000E+02  0.51100000000E-03 0.  1.
    9900012    2    1    2    0    0 -0.15510167832E+02  0.17907380204E+02  0.21341988182E+02  0.59301952401E+02  0.50000015270E+02 0.  0.
        -12    1    1    2    0    0  0.15510167832E+02 -0.17907380204E+02 -0.21341988182E+02  0.31886047599E+02  0.00000000000E+00 0.  1.
         11    1    3    3    0    0 -0.14453184999E+02  0.50584648768E+01  0.28786117672E+01  0.15581047124E+02  0.51100000000E-03 0. -1.
        -11    1    3    3    0    0  0.83859618762E+01  0.12239149707E+02 -0.71106211370E+01  0.16452418526E+02  0.51100000000E-03 0.  1.
        -12    1    3    3    0    0 -0.94429447095E+01  0.60976562032E+00  0.25573997551E+02  0.27268486750E+02  0.00000000000E+00 0.  1.
</event>
<event>
 7    1  0.1113211E-011  0.5930200E+02  0.7816164E-02  0.1266605E+00
        -11   -1    0    0    0    0  0.00000000000E+00  0.00000000000E+00  0.45593999997E+02  0.45594000000E+02  0.51100000000E-03 0. -1.
         11   -1    0    0    0    0 -0.00000000000E+00 -0.00000000000E+00 -0.45593999997E+02  0.45594000000E+02  0.51100000000E-03 0.  1.
    9900012    2    1    2    0    0  0.53004127408E+01  0.30492485343E+02  0.76701378184E+01  0.59301999126E+02  0.50000100486E+02 0.  0.
        -12    1    1    2    0    0 -0.53004127408E+01 -0.30492485343E+02 -0.76701378184E+01  0.31886000874E+02  0.00000000000E+00 0.  1.
         11    1    3    3    0    0  0.15964302857E+01  0.34392061151E+02  0.18579330976E+02  0.39122295429E+02  0.51100000000E-03 0. -1.
        -11    1    3    3    0    0  0.28982938799E+01  0.28329145395E+01 -0.12562877615E+02  0.13200432055E+02  0.51100000000E-03 0.  1.
        -12    1    3    3    0    0  0.80568857513E+00 -0.67324903479E+01  0.16536844576E+01  0.69792716418E+01  0.00000000000E+00 0.  1.
</event>
<event>
 7    1  0.1113211E-011  0.5930195E+02  0.7816164E-02  0.1266605E+00
        -11   -1    0    0    0    0  0.00000000000E+00  0.00000000000E+00  0.45593999997E+02  0.45594000000E+02  0.51100000000E-03 0.  1.
         11   -1    0    0    0    0 -0.00000000000E+00 -0.00000000000E+00 -0.45593999997E+02  0.45594000000E+02  0.51100000000E-03 0. -1.
    9900012    2    1    2    0    0  0.72918822301E+01  0.25219773030E+02 -0.18097292636E+02  0.59301945072E+02  0.50000001904E+02 0.  0.
        -12    1    1    2    0    0 -0.72918822301E+01 -0.25219773030E+02  0.18097292636E+02  0.31886054928E+02  0.00000000000E+00 0.  1.
         11    1    3    3    0    0 -0.14109388351E+02  0.16823947113E+02 -0.91878542155E+01  0.23802031456E+02  0.51100000000E-03 0. -1.
        -11    1    3    3    0    0  0.16820835377E+02  0.17409739331E+02 -0.71037462069E+01  0.25229005862E+02  0.51100000000E-03 0.  1.
        -12    1    3    3    0    0  0.45804352045E+01 -0.90139134143E+01 -0.18056922137E+01  0.10270907753E+02  0.00000000000E+00 0.  1.
</event>
<event>
 7    1  0.1113211E-011  0.5930215E+02  0.7816164E-02  0.1266604E+00
        -11   -1    0    0    0    0  0.00000000000E+00  0.00000000000E+00  0.45593999997E+02  0.45594000000E+02  0.51100000000E-03 0. -1.
         11   -1    0    0    0    0 -0.00000000000E+00 -0.00000000000E+00 -0.45593999997E+02  0.45594000000E+02  0.51100000000E-03 0.  1.
    9900012    2    1    2    0    0  0.24222301942E+02  0.23937847070E+01  0.20597504851E+02  0.59302151687E+02  0.50000378719E+02 0.  0.
        -12    1    1    2    0    0 -0.24222301942E+02 -0.23937847070E+01 -0.20597504851E+02  0.31885848313E+02  0.00000000000E+00 0.  1.
         11    1    3    3    0    0  0.49971711023E+01  0.27853413119E+01  0.20654359049E+02  0.21432041275E+02  0.51100000000E-03 0. -1.
        -11    1    3    3    0    0  0.28284285321E+02  0.15121523439E+01 -0.20577089493E+01  0.28399323358E+02  0.51100000000E-03 0.  1.
        -12    1    3    3    0    0 -0.90591544815E+01 -0.19037089489E+01  0.20008547512E+01  0.94707870537E+01  0.00000000000E+00 0.  1.
</event>
<event>
 7    1  0.1113211E-011  0.5930187E+02  0.7816164E-02  0.1266605E+00
        -11   -1    0    0    0    0  0.00000000000E+00  0.00000000000E+00  0.45593999997E+02  0.45594000000E+02  0.51100000000E-03 0.  1.
         11   -1    0    0    0    0 -0.00000000000E+00 -0.00000000000E+00 -0.45593999997E+02  0.45594000000E+02  0.51100000000E-03 0. -1.
    9900012    2    1    2    0    0 -0.40863461682E+00 -0.31839995127E+02 -0.16651708762E+01  0.59301873456E+02  0.49999871293E+02 0.  0.
        -12    1    1    2    0    0  0.40863461682E+00  0.31839995127E+02  0.16651708762E+01  0.31886126544E+02  0.00000000000E+00 0.  1.
         11    1    3    3    0    0 -0.16657256797E+01 -0.16098070612E+01 -0.15017521693E+02  0.15195133394E+02  0.51100000000E-03 0. -1.
        -11    1    3    3    0    0  0.58601954762E+01 -0.34601193732E+02  0.13875517683E+02  0.37737441486E+02  0.51100000000E-03 0.  1.
        -12    1    3    3    0    0 -0.46031044133E+01  0.43710056657E+01 -0.52316686600E+00  0.63692985752E+01  0.00000000000E+00 0.  1.
</event>
<event>
 7    1  0.1113211E-011  0.5930196E+02  0.7816164E-02  0.1266605E+00
        -11   -1    0    0    0    0  0.00000000000E+00  0.00000000000E+00  0.45593999997E+02  0.45594000000E+02  0.51100000000E-03 0.  1.
         11   -1    0    0    0    0 -0.00000000000E+00 -0.00000000000E+00 -0.45593999997E+02  0.45594000000E+02  0.51100000000E-03 0. -1.
    9900012    2    1    2    0    0  0.27801719881E+02  0.13950582058E+02  0.70117840805E+01  0.59301960985E+02  0.50000030925E+02 0.  0.
        -12    1    1    2    0    0 -0.27801719881E+02 -0.13950582058E+02 -0.70117840805E+01  0.31886039015E+02  0.00000000000E+00 0.  1.
         11    1    3    3    0    0 -0.28734001413E+01  0.48243278096E+00 -0.75978142381E+01  0.81373184292E+01  0.51100000000E-03 0. -1.
        -11    1    3    3    0    0  0.34287451017E+02  0.96336654020E+01 -0.20345439397E-01  0.35615126288E+02  0.51100000000E-03 0.  1.
        -12    1    3    3    0    0 -0.36123309940E+01  0.38344838748E+01  0.14629943758E+02  0.15549516268E+02  0.00000000000E+00 0.  1.
</event>
<event>
 7    1  0.1113211E-011  0.5930194E+02  0.7816164E-02  0.1266605E+00
        -11   -1    0    0    0    0  0.00000000000E+00  0.00000000000E+00  0.45593999997E+02  0.45594000000E+02  0.51100000000E-03 0. -1.
         11   -1    0    0    0    0 -0.00000000000E+00 -0.00000000000E+00 -0.45593999997E+02  0.45594000000E+02  0.51100000000E-03 0.  1.
    9900012    2    1    2    0    0  0.29341268527E+02 -0.11140595424E+02 -0.56301186143E+01  0.59301935007E+02  0.49999983547E+02 0.  0.
        -12    1    1    2    0    0 -0.29341268527E+02  0.11140595424E+02  0.56301186143E+01  0.31886064993E+02  0.00000000000E+00 0.  1.
         11    1    3    3    0    0 -0.72753964977E+00 -0.18190871824E+01  0.48785940430E+01  0.52572875341E+01  0.51100000000E-03 0. -1.
        -11    1    3    3    0    0  0.40924407661E+02 -0.57570329334E+01 -0.59965463659E+01  0.41760138161E+02  0.51100000000E-03 0.  1.
        -12    1    3    3    0    0 -0.10855599485E+02 -0.35644753080E+01 -0.45121662914E+01  0.12284509312E+02  0.00000000000E+00 0.  1.
</event>
<event>
 7    1  0.1113211E-011  0.5930194E+02  0.7816164E-02  0.1266605E+00
        -11   -1    0    0    0    0  0.00000000000E+00  0.00000000000E+00  0.45593999997E+02  0.45594000000E+02  0.51100000000E-03 0. -1.
         11   -1    0    0    0    0 -0.00000000000E+00 -0.00000000000E+00 -0.45593999997E+02  0.45594000000E+02  0.51100000000E-03 0.  1.
    9900012    2    1    2    0    0 -0.15260032281E+02  0.12701257648E+02  0.24950552188E+02  0.59301943713E+02  0.49999999427E+02 0.  0.
        -12    1    1    2    0    0  0.15260032281E+02 -0.12701257648E+02 -0.24950552188E+02  0.31886056287E+02  0.00000000000E+00 0.  1.
         11    1    3    3    0    0 -0.68955087947E+01  0.15511571217E+02 -0.46741777098E+01  0.17606953760E+02  0.51100000000E-03 0. -1.
        -11    1    3    3    0    0 -0.45068597825E+01 -0.13156359556E+02  0.51235874357E+01  0.14820685893E+02  0.51100000000E-03 0.  1.
         12    1    3    3    0    0 -0.38576637039E+01  0.10346045987E+02  0.24501142462E+02  0.26874304060E+02  0.00000000000E+00 0. -1.
</event>
<event>
 7    1  0.1113211E-011  0.5930196E+02  0.7816164E-02  0.1266605E+00
        -11   -1    0    0    0    0  0.00000000000E+00  0.00000000000E+00  0.45593999997E+02  0.45594000000E+02  0.51100000000E-03 0. -1.
         11   -1    0    0    0    0 -0.00000000000E+00 -0.00000000000E+00 -0.45593999997E+02  0.45594000000E+02  0.51100000000E-03 0.  1.
    9900012    2    1    2    0    0 -0.29904504005E+02  0.94805796682E+01 -0.57060094381E+01  0.59301963960E+02  0.50000036351E+02 0.  0.
        -12    1    1    2    0    0  0.29904504005E+02 -0.94805796682E+01  0.57060094381E+01  0.31886036040E+02  0.00000000000E+00 0.  1.
         11    1    3    3    0    0 -0.70561490017E+01 -0.99341863855E+01  0.89579419180E+01  0.15123558495E+02  0.51100000000E-03 0. -1.
        -11    1    3    3    0    0  0.54378241875E+01  0.10119817335E+02 -0.13649314318E+01  0.11569082628E+02  0.51100000000E-03 0.  1.
         12    1    3    3    0    0 -0.28286179191E+02  0.92949487190E+01 -0.13299019924E+02  0.32609322837E+02  0.00000000000E+00 0. -1.
</event>
<event>
 7    1  0.1113211E-011  0.5930197E+02  0.7816164E-02  0.1266605E+00
        -11   -1    0    0    0    0  0.00000000000E+00  0.00000000000E+00  0.45593999997E+02  0.45594000000E+02  0.51100000000E-03 0. -1.
         11   -1    0    0    0    0 -0.00000000000E+00 -0.00000000000E+00 -0.45593999997E+02  0.45594000000E+02  0.51100000000E-03 0.  1.
    9900012    2    1    2    0    0  0.23074285454E+01 -0.11340817169E+02  0.29711628017E+02  0.59301965440E+02  0.50000039051E+02 0.  0.
        -12    1    1    2    0    0 -0.23074285454E+01  0.11340817169E+02 -0.29711628017E+02  0.31886034560E+02  0.00000000000E+00 0.  1.
         11    1    3    3    0    0 -0.21738223570E+01 -0.36755966273E+01  0.61685062387E+01  0.75023985287E+01  0.51100000000E-03 0. -1.
        -11    1    3    3    0    0  0.15095338174E+02 -0.54138132607E+01 -0.83719293727E+01  0.18090544776E+02  0.51100000000E-03 0.  1.
        -12    1    3    3    0    0 -0.10614087271E+02 -0.22514072809E+01  0.31915051151E+02  0.33709022135E+02  0.00000000000E+00 0.  1.
</event>
<event>
 7    1  0.1113211E-011  0.5930193E+02  0.7816164E-02  0.1266605E+00
        -11   -1    0    0    0    0  0.00000000000E+00  0.00000000000E+00  0.45593999997E+02  0.45594000000E+02  0.51100000000E-03 0. -1.
         11   -1    0    0    0    0 -0.00000000000E+00 -0.00000000000E+00 -0.45593999997E+02  0.45594000000E+02  0.51100000000E-03 0.  1.
    9900012    2    1    2    0    0 -0.12198630925E+02 -0.92681589899E+01  0.27964554518E+02  0.59301926600E+02  0.49999968216E+02 0.  0.
        -12    1    1    2    0    0  0.12198630925E+02  0.92681589899E+01 -0.27964554518E+02  0.31886073400E+02  0.00000000000E+00 0.  1.
         11    1    3    3    0    0  0.22268009280E+01  0.96629085440E+01 -0.49153423644E+01  0.11067566793E+02  0.51100000000E-03 0. -1.
        -11    1    3    3    0    0 -0.14036266726E+01 -0.84417970986E+01  0.30088673165E+02  0.31281981382E+02  0.51100000000E-03 0.  1.
        -12    1    3    3    0    0 -0.13021805180E+02 -0.10489270435E+02  0.27912237172E+01  0.16952378425E+02  0.00000000000E+00 0.  1.
</event>
<event>
 7    1  0.1113211E-011  0.5930192E+02  0.7816164E-02  0.1266605E+00
        -11   -1    0    0    0    0  0.00000000000E+00  0.00000000000E+00  0.45593999997E+02  0.45594000000E+02  0.51100000000E-03 0.  1.
         11   -1    0    0    0    0 -0.00000000000E+00 -0.00000000000E+00 -0.45593999997E+02  0.45594000000E+02  0.51100000000E-03 0. -1.
    9900012    2    1    2    0    0  0.72323035315E+01 -0.31055036128E+02  0.21202413238E-01  0.59301922586E+02  0.49999960896E+02 0.  0.
        -12    1    1    2    0    0 -0.72323035315E+01  0.31055036128E+02 -0.21202413238E-01  0.31886077414E+02  0.00000000000E+00 0.  1.
         11    1    3    3    0    0  0.69379213510E+00 -0.21098352069E+02 -0.13568791508E+02  0.25094499613E+02  0.51100000000E-03 0. -1.
        -11    1    3    3    0    0  0.72299913850E+01  0.26011771726E+01  0.19016233823E+02  0.20509901199E+02  0.51100000000E-03 0.  1.
        -12    1    3    3    0    0 -0.69147998852E+00 -0.12557861232E+02 -0.54262399023E+01  0.13697521774E+02  0.00000000000E+00 0.  1.
</event>
<event>
 7    1  0.1113211E-011  0.5930195E+02  0.7816164E-02  0.1266605E+00
        -11   -1    0    0    0    0  0.00000000000E+00  0.00000000000E+00  0.45593999997E+02  0.45594000000E+02  0.51100000000E-03 0.  1.
         11   -1    0    0    0    0 -0.00000000000E+00 -0.00000000000E+00 -0.45593999997E+02  0.45594000000E+02  0.51100000000E-03 0. -1.
    9900012    2    1    2    0    0 -0.10830188825E+02 -0.70784798657E+01 -0.29143131144E+02  0.59301953521E+02  0.50000017314E+02 0.  0.
        -12    1    1    2    0    0  0.10830188825E+02  0.70784798657E+01  0.29143131144E+02  0.31886046479E+02  0.00000000000E+00 0.  1.
         11    1    3    3    0    0 -0.69754232286E+01 -0.14456783133E+02 -0.24809122222E+02  0.29549071956E+02  0.51100000000E-03 0. -1.
        -11    1    3    3    0    0 -0.10789806678E+02  0.15408378143E+02 -0.23186303567E+01  0.18952944155E+02  0.51100000000E-03 0.  1.
        -12    1    3    3    0    0  0.69350410814E+01 -0.80300748757E+01 -0.20153785647E+01  0.10799937410E+02  0.00000000000E+00 0.  1.
</event>
<event>
 7    1  0.1113211E-011  0.5930190E+02  0.7816164E-02  0.1266605E+00
        -11   -1    0    0    0    0  0.00000000000E+00  0.00000000000E+00  0.45593999997E+02  0.45594000000E+02  0.51100000000E-03 0. -1.
         11   -1    0    0    0    0 -0.00000000000E+00 -0.00000000000E+00 -0.45593999997E+02  0.45594000000E+02  0.51100000000E-03 0.  1.
    9900012    2    1    2    0    0  0.26626729316E+02  0.98687200217E+01  0.14503407075E+02  0.59301903253E+02  0.49999925637E+02 0.  0.
        -12    1    1    2    0    0 -0.26626729316E+02 -0.98687200217E+01 -0.14503407075E+02  0.31886096747E+02  0.00000000000E+00 0.  1.
         11    1    3    3    0    0  0.22947658390E+02  0.12578187272E+02  0.13285686786E+02  0.29348173611E+02  0.51100000000E-03 0. -1.
        -11    1    3    3    0    0  0.92307915557E+01 -0.13853582956E+02  0.41626876437E+01  0.17159756471E+02  0.51100000000E-03 0.  1.
        -12    1    3    3    0    0 -0.55517206298E+01  0.11144115705E+02 -0.29449673542E+01  0.12793973172E+02  0.00000000000E+00 0.  1.
</event>
<event>
 7    1  0.1113211E-011  0.5930194E+02  0.7816164E-02  0.1266605E+00
        -11   -1    0    0    0    0  0.00000000000E+00  0.00000000000E+00  0.45593999997E+02  0.45594000000E+02  0.51100000000E-03 0.  1.
         11   -1    0    0    0    0 -0.00000000000E+00 -0.00000000000E+00 -0.45593999997E+02  0.45594000000E+02  0.51100000000E-03 0. -1.
    9900012    2    1    2    0    0  0.15236524427E+02  0.27298430941E+02  0.62741574520E+01  0.59301936270E+02  0.49999985853E+02 0.  0.
        -12    1    1    2    0    0 -0.15236524427E+02 -0.27298430941E+02 -0.62741574520E+01  0.31886063730E+02  0.00000000000E+00 0.  1.
         11    1    3    3    0    0  0.56884350638E+01  0.18615061994E+02 -0.35175726916E+01  0.19780094651E+02  0.51100000000E-03 0. -1.
        -11    1    3    3    0    0 -0.11296047547E+02  0.41645848481E+01  0.13263609896E+02  0.17912783281E+02  0.51100000000E-03 0.  1.
        -12    1    3    3    0    0  0.20844136910E+02  0.45187840992E+01 -0.34718797519E+01  0.21609058338E+02  0.00000000000E+00 0.  1.
</event>
<event>
 7    1  0.1113211E-011  0.5930193E+02  0.7816164E-02  0.1266605E+00
        -11   -1    0    0    0    0  0.00000000000E+00  0.00000000000E+00  0.45593999997E+02  0.45594000000E+02  0.51100000000E-03 0.  1.
         11   -1    0    0    0    0 -0.00000000000E+00 -0.00000000000E+00 -0.45593999997E+02  0.45594000000E+02  0.51100000000E-03 0. -1.
    9900012    2    1    2    0    0 -0.16084329327E+02  0.19445720927E+02 -0.19490496162E+02  0.59301934816E+02  0.49999983200E+02 0.  0.
        -12    1    1    2    0    0  0.16084329327E+02 -0.19445720927E+02  0.19490496162E+02  0.31886065184E+02  0.00000000000E+00 0.  1.
         11    1    3    3    0    0  0.83384221675E+01  0.15508515479E+02  0.83084423631E+01  0.19469811282E+02  0.51100000000E-03 0. -1.
        -11    1    3    3    0    0 -0.22010934447E+02  0.77966873010E+01 -0.25977881599E+02  0.34930214725E+02  0.51100000000E-03 0.  1.
         12    1    3    3    0    0 -0.24118170479E+01 -0.38594818525E+01 -0.18210569254E+01  0.49019088086E+01  0.00000000000E+00 0. -1.
</event>
<event>
 7    1  0.1113211E-011  0.5930196E+02  0.7816164E-02  0.1266605E+00
        -11   -1    0    0    0    0  0.00000000000E+00  0.00000000000E+00  0.45593999997E+02  0.45594000000E+02  0.51100000000E-03 0. -1.
         11   -1    0    0    0    0 -0.00000000000E+00 -0.00000000000E+00 -0.45593999997E+02  0.45594000000E+02  0.51100000000E-03 0.  1.
    9900012    2    1    2    0    0 -0.44587896892E+01  0.23352976832E+02 -0.21247988886E+02  0.59301962866E+02  0.50000034357E+02 0.  0.
        -12    1    1    2    0    0  0.44587896892E+01 -0.23352976832E+02  0.21247988886E+02  0.31886037134E+02  0.00000000000E+00 0.  1.
         11    1    3    3    0    0  0.13184965319E+02 -0.59849214223E+01 -0.48772699078E+01  0.15279082332E+02  0.51100000000E-03 0. -1.
        -11    1    3    3    0    0 -0.81423754000E+01  0.27476684759E+02 -0.18498930492E+02  0.34109777369E+02  0.51100000000E-03 0.  1.
        -12    1    3    3    0    0 -0.95013796079E+01  0.18612134950E+01  0.21282115141E+01  0.99131031658E+01  0.00000000000E+00 0.  1.
</event>
<event>
 7    1  0.1113211E-011  0.5930196E+02  0.7816164E-02  0.1266605E+00
        -11   -1    0    0    0    0  0.00000000000E+00  0.00000000000E+00  0.45593999997E+02  0.45594000000E+02  0.51100000000E-03 0. -1.
         11   -1    0    0    0    0 -0.00000000000E+00 -0.00000000000E+00 -0.45593999997E+02  0.45594000000E+02  0.51100000000E-03 0.  1.
    9900012    2    1    2    0    0 -0.23384000214E+02 -0.12834505117E+02  0.17469509480E+02  0.59301956829E+02  0.50000023347E+02 0.  0.
        -12    1    1    2    0    0  0.23384000214E+02  0.12834505117E+02 -0.17469509480E+02  0.31886043171E+02  0.00000000000E+00 0.  1.
         11    1    3    3    0    0  0.60189078878E+01  0.44344332979E+01  0.93543664865E+01  0.11974791166E+02  0.51100000000E-03 0. -1.
        -11    1    3    3    0    0 -0.20092243893E+02 -0.26669742345E+02  0.55376290114E+01  0.33847285810E+02  0.51100000000E-03 0.  1.
        -12    1    3    3    0    0 -0.93106642087E+01  0.94008039302E+01  0.25775139824E+01  0.13479879854E+02  0.00000000000E+00 0.  1.
</event>
<event>
 7    1  0.1113211E-011  0.5930193E+02  0.7816164E-02  0.1266605E+00
        -11   -1    0    0    0    0  0.00000000000E+00  0.00000000000E+00  0.45593999997E+02  0.45594000000E+02  0.51100000000E-03 0.  1.
         11   -1    0    0    0    0 -0.00000000000E+00 -0.00000000000E+00 -0.45593999997E+02  0.45594000000E+02  0.51100000000E-03 0. -1.
    9900012    2    1    2    0    0 -0.57865556575E+01  0.13019766278E+02 -0.28525830859E+02  0.59301928331E+02  0.49999971373E+02 0.  0.
        -12    1    1    2    0    0  0.57865556575E+01 -0.13019766278E+02  0.28525830859E+02  0.31886071669E+02  0.00000000000E+00 0.  1.
         11    1    3    3    0    0  0.33284666422E+01  0.23745427058E+02 -0.46728818663E+01  0.24428668026E+02  0.51100000000E-03 0.  1.
        -11    1    3    3    0    0 -0.68838840093E+01 -0.16264816906E+02 -0.22749491918E+02  0.28800547058E+02  0.51100000000E-03 0. -1.
         12    1    3    3    0    0 -0.22311382903E+01  0.55391561263E+01 -0.11034570745E+01  0.60727132467E+01  0.00000000000E+00 0. -1.
</event>
<event>
 7    1  0.1113211E-011  0.5930195E+02  0.7816164E-02  0.1266605E+00
        -11   -1    0    0    0    0  0.00000000000E+00  0.00000000000E+00  0.45593999997E+02  0.45594000000E+02  0.51100000000E-03 0.  1.
         11   -1    0    0    0    0 -0.00000000000E+00 -0.00000000000E+00 -0.45593999997E+02  0.45594000000E+02  0.51100000000E-03 0. -1.
    9900012    2    1    2    0    0 -0.13508414793E+02  0.28365110916E+02 -0.54463958665E+01  0.59301952652E+02  0.50000015729E+02 0.  0.
        -12    1    1    2    0    0  0.13508414793E+02 -0.28365110916E+02  0.54463958665E+01  0.31886047348E+02  0.00000000000E+00 0.  1.
         11    1    3    3    0    0 -0.20376234017E+02  0.11171624168E+00 -0.11708759012E+02  0.23501030427E+02  0.51100000000E-03 0. -1.
        -11    1    3    3    0    0  0.11922533720E+02  0.24659515693E+02  0.59119693161E+00  0.27396861839E+02  0.51100000000E-03 0.  1.
        -12    1    3    3    0    0 -0.50547144958E+01  0.35938789816E+01  0.56711662139E+01  0.84040603873E+01  0.00000000000E+00 0.  1.
</event>
<event>
 7    1  0.1113211E-011  0.5930158E+02  0.7816164E-02  0.1266606E+00
        -11   -1    0    0    0    0  0.00000000000E+00  0.00000000000E+00  0.45593999997E+02  0.45594000000E+02  0.51100000000E-03 0.  1.
         11   -1    0    0    0    0 -0.00000000000E+00 -0.00000000000E+00 -0.45593999997E+02  0.45594000000E+02  0.51100000000E-03 0. -1.
    9900012    2    1    2    0    0  0.29000820022E+02 -0.82468306157E+01 -0.10377182270E+02  0.59301581434E+02  0.49999338711E+02 0.  0.
        -12    1    1    2    0    0 -0.29000820022E+02  0.82468306157E+01  0.10377182270E+02  0.31886418566E+02  0.00000000000E+00 0.  1.
         11    1    3    3    0    0  0.76175338976E+01  0.27693940822E+01 -0.11079197867E+02  0.13727526795E+02  0.51100000000E-03 0. -1.
        -11    1    3    3    0    0  0.15877651954E+02 -0.16792488575E+02  0.16144954598E+02  0.28191258634E+02  0.51100000000E-03 0.  1.
        -12    1    3    3    0    0  0.55056341699E+01  0.57762638768E+01 -0.15442939001E+02  0.17382796005E+02  0.00000000000E+00 0.  1.
</event>
<event>
 7    1  0.1113211E-011  0.5930196E+02  0.7816164E-02  0.1266605E+00
        -11   -1    0    0    0    0  0.00000000000E+00  0.00000000000E+00  0.45593999997E+02  0.45594000000E+02  0.51100000000E-03 0.  1.
         11   -1    0    0    0    0 -0.00000000000E+00 -0.00000000000E+00 -0.45593999997E+02  0.45594000000E+02  0.51100000000E-03 0. -1.
    9900012    2    1    2    0    0  0.98638036786E+01  0.30295081294E+02  0.12778961417E+01  0.59301959290E+02  0.50000027835E+02 0.  0.
        -12    1    1    2    0    0 -0.98638036786E+01 -0.30295081294E+02 -0.12778961417E+01  0.31886040710E+02  0.00000000000E+00 0.  1.
         11    1    3    3    0    0 -0.13414051182E+02  0.67818049562E+01 -0.42379339802E+01  0.15616969369E+02  0.51100000000E-03 0. -1.
        -11    1    3    3    0    0  0.17464421900E+02  0.23135056963E+02  0.14936265430E+02  0.32608724573E+02  0.51100000000E-03 0.  1.
         12    1    3    3    0    0  0.58134329604E+01  0.37821937431E+00 -0.94204353077E+01  0.11076265348E+02  0.00000000000E+00 0. -1.
</event>
<event>
 7    1  0.1113211E-011  0.5930199E+02  0.7816164E-02  0.1266605E+00
        -11   -1    0    0    0    0  0.00000000000E+00  0.00000000000E+00  0.45593999997E+02  0.45594000000E+02  0.51100000000E-03 0. -1.
         11   -1    0    0    0    0 -0.00000000000E+00 -0.00000000000E+00 -0.45593999997E+02  0.45594000000E+02  0.51100000000E-03 0.  1.
    9900012    2    1    2    0    0  0.72096713800E+00  0.30949152177E+02 -0.76385864769E+01  0.59301987119E+02  0.50000078588E+02 0.  0.
        -12    1    1    2    0    0 -0.72096713800E+00 -0.30949152177E+02  0.76385864769E+01  0.31886012881E+02  0.00000000000E+00 0.  1.
         11    1    3    3    0    0 -0.37122916892E+01  0.33836528557E+02  0.15799397371E+01  0.34076208478E+02  0.51100000000E-03 0. -1.
        -11    1    3    3    0    0  0.16410809609E+01 -0.11147040402E+02 -0.11616581554E+02  0.16183158644E+02  0.51100000000E-03 0.  1.
         12    1    3    3    0    0  0.27921778662E+01  0.82596640221E+01  0.23980553398E+01  0.90426199969E+01  0.00000000000E+00 0. -1.
</event>
<event>
 7    1  0.1113211E-011  0.5930195E+02  0.7816164E-02  0.1266605E+00
        -11   -1    0    0    0    0  0.00000000000E+00  0.00000000000E+00  0.45593999997E+02  0.45594000000E+02  0.51100000000E-03 0. -1.
         11   -1    0    0    0    0 -0.00000000000E+00 -0.00000000000E+00 -0.45593999997E+02  0.45594000000E+02  0.51100000000E-03 0.  1.
    9900012    2    1    2    0    0 -0.42071151155E+01  0.27922962652E+02  0.14809737763E+02  0.59301952997E+02  0.50000016358E+02 0.  0.
        -12    1    1    2    0    0  0.42071151155E+01 -0.27922962652E+02 -0.14809737763E+02  0.31886047003E+02  0.00000000000E+00 0.  1.
         11    1    3    3    0    0 -0.23210662152E+02  0.18104475205E+02  0.11651489959E+02  0.31658554586E+02  0.51100000000E-03 0. -1.
        -11    1    3    3    0    0  0.18275016479E+02  0.87349581059E+00  0.57707474851E+00  0.18304978497E+02  0.51100000000E-03 0.  1.
        -12    1    3    3    0    0  0.72853055762E+00  0.89449916369E+01  0.25811730551E+01  0.93384199144E+01  0.00000000000E+00 0.  1.
</event>
<event>
 7    1  0.1113211E-011  0.5930194E+02  0.7816164E-02  0.1266605E+00
        -11   -1    0    0    0    0  0.00000000000E+00  0.00000000000E+00  0.45593999997E+02  0.45594000000E+02  0.51100000000E-03 0.  1.
         11   -1    0    0    0    0 -0.00000000000E+00 -0.00000000000E+00 -0.45593999997E+02  0.45594000000E+02  0.51100000000E-03 0. -1.
    9900012    2    1    2    0    0  0.58990339014E+01  0.30494467028E+02 -0.72117570280E+01  0.59301944118E+02  0.50000000165E+02 0.  0.
        -12    1    1    2    0    0 -0.58990339014E+01 -0.30494467028E+02  0.72117570280E+01  0.31886055882E+02  0.00000000000E+00 0.  1.
         11    1    3    3    0    0  0.16680175118E+02  0.24639894962E+02 -0.22993927461E+01  0.29843590149E+02  0.51100000000E-03 0. -1.
        -11    1    3    3    0    0 -0.87541856131E+01 -0.50193530649E+01  0.76922016846E+01  0.12688563274E+02  0.51100000000E-03 0.  1.
        -12    1    3    3    0    0 -0.20269556037E+01  0.10873925130E+02 -0.12604565967E+02  0.16769790695E+02  0.00000000000E+00 0.  1.
</event>
<event>
 7    1  0.1113211E-011  0.5930206E+02  0.7816164E-02  0.1266604E+00
        -11   -1    0    0    0    0  0.00000000000E+00  0.00000000000E+00  0.45593999997E+02  0.45594000000E+02  0.51100000000E-03 0. -1.
         11   -1    0    0    0    0 -0.00000000000E+00 -0.00000000000E+00 -0.45593999997E+02  0.45594000000E+02  0.51100000000E-03 0.  1.
    9900012    2    1    2    0    0 -0.21699191942E+02 -0.15804685058E+02  0.17206697426E+02  0.59302055808E+02  0.50000203860E+02 0.  0.
        -12    1    1    2    0    0  0.21699191942E+02  0.15804685058E+02 -0.17206697426E+02  0.31885944192E+02  0.00000000000E+00 0.  1.
         11    1    3    3    0    0 -0.18662291271E+02  0.16408695543E+01  0.16904130626E+02  0.25233374742E+02  0.51100000000E-03 0. -1.
        -11    1    3    3    0    0  0.19468867407E+01 -0.22140805790E+02  0.81323431903E+01  0.23667290826E+02  0.51100000000E-03 0.  1.
        -12    1    3    3    0    0 -0.49837874117E+01  0.46952511780E+01 -0.78297763907E+01  0.10401390240E+02  0.00000000000E+00 0.  1.
</event>
<event>
 7    1  0.1113211E-011  0.5930194E+02  0.7816164E-02  0.1266605E+00
        -11   -1    0    0    0    0  0.00000000000E+00  0.00000000000E+00  0.45593999997E+02  0.45594000000E+02  0.51100000000E-03 0. -1.
         11   -1    0    0    0    0 -0.00000000000E+00 -0.00000000000E+00 -0.45593999997E+02  0.45594000000E+02  0.51100000000E-03 0.  1.
    9900012    2    1    2    0    0  0.25955545214E+02  0.13894907972E+02  0.12245897655E+02  0.59301940283E+02  0.49999993170E+02 0.  0.
        -12    1    1    2    0    0 -0.25955545214E+02 -0.13894907972E+02 -0.12245897655E+02  0.31886059717E+02  0.00000000000E+00 0.  1.
         11    1    3    3    0    0  0.16059107347E+02 -0.33588863963E+01  0.12099760876E+02  0.20385810264E+02  0.51100000000E-03 0. -1.
        -11    1    3    3    0    0  0.19624569076E+01  0.26444656789E+02 -0.19740163415E+01  0.26590747462E+02  0.51100000000E-03 0.  1.
        -12    1    3    3    0    0  0.79339809602E+01 -0.91908624208E+01  0.21201531202E+01  0.12325382557E+02  0.00000000000E+00 0.  1.
</event>
<event>
 7    1  0.1113211E-011  0.5930203E+02  0.7816164E-02  0.1266604E+00
        -11   -1    0    0    0    0  0.00000000000E+00  0.00000000000E+00  0.45593999997E+02  0.45594000000E+02  0.51100000000E-03 0.  1.
         11   -1    0    0    0    0 -0.00000000000E+00 -0.00000000000E+00 -0.45593999997E+02  0.45594000000E+02  0.51100000000E-03 0. -1.
    9900012    2    1    2    0    0 -0.17155921908E+02 -0.71564113881E+00 -0.26867768607E+02  0.59302034613E+02  0.50000165206E+02 0.  0.
        -12    1    1    2    0    0  0.17155921908E+02  0.71564113881E+00  0.26867768607E+02  0.31885965387E+02  0.00000000000E+00 0.  1.
         11    1    3    3    0    0  0.83249639910E+01 -0.39040555042E-01 -0.26805997642E+02  0.28068987503E+02  0.51100000000E-03 0. -1.
        -11    1    3    3    0    0 -0.19718919011E+02 -0.27854834946E+01  0.76890929821E+01  0.21347525299E+02  0.51100000000E-03 0.  1.
        -12    1    3    3    0    0 -0.57619668877E+01  0.21088829108E+01 -0.77508639474E+01  0.98855218110E+01  0.00000000000E+00 0.  1.
</event>
<event>
 7    1  0.1113211E-011  0.5930192E+02  0.7816164E-02  0.1266605E+00
        -11   -1    0    0    0    0  0.00000000000E+00  0.00000000000E+00  0.45593999997E+02  0.45594000000E+02  0.51100000000E-03 0. -1.
         11   -1    0    0    0    0 -0.00000000000E+00 -0.00000000000E+00 -0.45593999997E+02  0.45594000000E+02  0.51100000000E-03 0.  1.
    9900012    2    1    2    0    0  0.69955696789E+01 -0.95462411948E+01  0.29608327824E+02  0.59301924785E+02  0.49999964906E+02 0.  0.
        -12    1    1    2    0    0 -0.69955696789E+01  0.95462411948E+01 -0.29608327824E+02  0.31886075215E+02  0.00000000000E+00 0.  1.
         11    1    3    3    0    0 -0.88882370903E+00 -0.27515590765E+02  0.22884633086E+02  0.35799499640E+02  0.51100000000E-03 0. -1.
        -11    1    3    3    0    0  0.10231104792E+02  0.15455206920E+02  0.36518934714E+01  0.18891142167E+02  0.51100000000E-03 0.  1.
         12    1    3    3    0    0 -0.23467114042E+01  0.25141426503E+01  0.30718012667E+01  0.46112829780E+01  0.00000000000E+00 0. -1.
</event>
<event>
 7    1  0.1113211E-011  0.5930195E+02  0.7816164E-02  0.1266605E+00
        -11   -1    0    0    0    0  0.00000000000E+00  0.00000000000E+00  0.45593999997E+02  0.45594000000E+02  0.51100000000E-03 0.  1.
         11   -1    0    0    0    0 -0.00000000000E+00 -0.00000000000E+00 -0.45593999997E+02  0.45594000000E+02  0.51100000000E-03 0. -1.
    9900012    2    1    2    0    0 -0.17429372001E+02  0.21948222239E+02 -0.15205682201E+02  0.59301949147E+02  0.50000009336E+02 0.  0.
        -12    1    1    2    0    0  0.17429372001E+02 -0.21948222239E+02  0.15205682201E+02  0.31886050853E+02  0.00000000000E+00 0.  1.
         11    1    3    3    0    0  0.86992655914E+01  0.92456163892E+00 -0.10414500449E+02  0.13601244646E+02  0.51100000000E-03 0. -1.
        -11    1    3    3    0    0 -0.32927019903E+02  0.14912520499E+02 -0.53595693115E+01  0.36541714393E+02  0.51100000000E-03 0.  1.
        -12    1    3    3    0    0  0.67983823106E+01  0.61111401009E+01  0.56838755892E+00  0.91589901076E+01  0.00000000000E+00 0.  1.
</event>
<event>
 7    1  0.1148210E-011  0.5930203E+02  0.7816164E-02  0.1266604E+00
        -11   -1    0    0    0    0  0.00000000000E+00  0.00000000000E+00  0.45593999997E+02  0.45594000000E+02  0.51100000000E-03 0. -1.
         11   -1    0    0    0    0 -0.00000000000E+00 -0.00000000000E+00 -0.45593999997E+02  0.45594000000E+02  0.51100000000E-03 0.  1.
    9900012    2    1    2    0    0 -0.24384545671E+02  0.55780010410E+01  0.19773587080E+02  0.59302032723E+02  0.50000161759E+02 0.  0.
        -12    1    1    2    0    0  0.24384545671E+02 -0.55780010410E+01 -0.19773587080E+02  0.31885967277E+02  0.00000000000E+00 0.  1.
         11    1    3    3    0    0 -0.63682467969E+01  0.14164311194E+02  0.24745119805E+02  0.29214777653E+02  0.51100000000E-03 0. -1.
        -11    1    3    3    0    0 -0.22531773723E+02 -0.56698530934E+01 -0.73976104075E+00  0.23245974014E+02  0.51100000000E-03 0.  1.
        -12    1    3    3    0    0  0.45154748495E+01 -0.29164570597E+01 -0.42317716847E+01  0.68412810561E+01  0.00000000000E+00 0.  1.
</event>
<event>
 7    1  0.1113211E-011  0.5930190E+02  0.7816164E-02  0.1266605E+00
        -11   -1    0    0    0    0  0.00000000000E+00  0.00000000000E+00  0.45593999997E+02  0.45594000000E+02  0.51100000000E-03 0. -1.
         11   -1    0    0    0    0 -0.00000000000E+00 -0.00000000000E+00 -0.45593999997E+02  0.45594000000E+02  0.51100000000E-03 0.  1.
    9900012    2    1    2    0    0 -0.31171803687E+02  0.58938241168E+01  0.32101106280E+01  0.59301900864E+02  0.49999921280E+02 0.  0.
        -12    1    1    2    0    0  0.31171803687E+02 -0.58938241168E+01 -0.32101106280E+01  0.31886099136E+02  0.00000000000E+00 0.  1.
         11    1    3    3    0    0 -0.25344869786E+02 -0.33928798694E+01  0.14382198187E+02  0.29338058614E+02  0.51100000000E-03 0. -1.
        -11    1    3    3    0    0 -0.14101722532E+01 -0.56411392423E+01 -0.13046722944E+02  0.14283837635E+02  0.51100000000E-03 0.  1.
        -12    1    3    3    0    0 -0.44167616480E+01  0.14927843229E+02  0.18746353855E+01  0.15680004615E+02  0.00000000000E+00 0.  1.
</event>
<event>
 7    1  0.1113211E-011  0.5930221E+02  0.7816164E-02  0.1266604E+00
        -11   -1    0    0    0    0  0.00000000000E+00  0.00000000000E+00  0.45593999997E+02  0.45594000000E+02  0.51100000000E-03 0.  1.
         11   -1    0    0    0    0 -0.00000000000E+00 -0.00000000000E+00 -0.45593999997E+02  0.45594000000E+02  0.51100000000E-03 0. -1.
    9900012    2    1    2    0    0  0.29613432516E+02 -0.67181586216E+01 -0.97269976366E+01  0.59302211259E+02  0.50000487363E+02 0.  0.
        -12    1    1    2    0    0 -0.29613432516E+02  0.67181586216E+01  0.97269976366E+01  0.31885788741E+02  0.00000000000E+00 0.  1.
         11    1    3    3    0    0  0.11676812339E+02 -0.25166351577E+02 -0.11246428193E+02  0.29936187892E+02  0.51100000000E-03 0. -1.
        -11    1    3    3    0    0  0.84075572465E+00  0.10340237047E+02  0.11866832764E+01  0.10442010814E+02  0.51100000000E-03 0.  1.
         12    1    3    3    0    0  0.17095864452E+02  0.81079559085E+01  0.33274727950E+00  0.18924012553E+02  0.00000000000E+00 0. -1.
</event>
<event>
 7    1  0.1113211E-011  0.5930195E+02  0.7816164E-02  0.1266605E+00
        -11   -1    0    0    0    0  0.00000000000E+00  0.00000000000E+00  0.45593999997E+02  0.45594000000E+02  0.51100000000E-03 0.  1.
         11   -1    0    0    0    0 -0.00000000000E+00 -0.00000000000E+00 -0.45593999997E+02  0.45594000000E+02  0.51100000000E-03 0. -1.
    9900012    2    1    2    0    0 -0.15146286709E+02 -0.18443790354E+02 -0.21145604814E+02  0.59301952791E+02  0.50000015981E+02 0.  0.
        -12    1    1    2    0    0  0.15146286709E+02  0.18443790354E+02  0.21145604814E+02  0.31886047209E+02  0.00000000000E+00 0.  1.
         11    1    3    3    0    0 -0.14697240055E+02  0.13704807013E+02 -0.15107056713E+02  0.25140679452E+02  0.51100000000E-03 0. -1.
        -11    1    3    3    0    0  0.32520631640E+01 -0.22296936523E+02 -0.69958406046E+01  0.23593878002E+02  0.51100000000E-03 0.  1.
         12    1    3    3    0    0 -0.37011098183E+01 -0.98516608442E+01  0.95729250324E+00  0.10567395337E+02  0.00000000000E+00 0. -1.
</event>
<event>
 7    1  0.1113211E-011  0.5930193E+02  0.7816164E-02  0.1266605E+00
        -11   -1    0    0    0    0  0.00000000000E+00  0.00000000000E+00  0.45593999997E+02  0.45594000000E+02  0.51100000000E-03 0.  1.
         11   -1    0    0    0    0 -0.00000000000E+00 -0.00000000000E+00 -0.45593999997E+02  0.45594000000E+02  0.51100000000E-03 0. -1.
    9900012    2    1    2    0    0 -0.20868534414E+02 -0.23962420393E+02  0.26510427585E+01  0.59301931767E+02  0.49999977639E+02 0.  0.
        -12    1    1    2    0    0  0.20868534414E+02  0.23962420393E+02 -0.26510427585E+01  0.31886068233E+02  0.00000000000E+00 0.  1.
         11    1    3    3    0    0 -0.12905727280E+02 -0.29734041447E+02 -0.15708865213E+02  0.36019987007E+02  0.51100000000E-03 0. -1.
        -11    1    3    3    0    0 -0.70912597668E+01  0.72798823552E+01  0.84406047429E+01  0.13210846334E+02  0.51100000000E-03 0.  1.
         12    1    3    3    0    0 -0.87154736668E+00 -0.15082613006E+01  0.99193032284E+01  0.10071098426E+02  0.00000000000E+00 0. -1.
</event>
<event>
 7    1  0.1113211E-011  0.5930195E+02  0.7816164E-02  0.1266605E+00
        -11   -1    0    0    0    0  0.00000000000E+00  0.00000000000E+00  0.45593999997E+02  0.45594000000E+02  0.51100000000E-03 0.  1.
         11   -1    0    0    0    0 -0.00000000000E+00 -0.00000000000E+00 -0.45593999997E+02  0.45594000000E+02  0.51100000000E-03 0. -1.
    9900012    2    1    2    0    0 -0.28772189141E+02 -0.12623360854E+02 -0.54343678002E+01  0.59301945672E+02  0.50000002999E+02 0.  0.
        -12    1    1    2    0    0  0.28772189141E+02  0.12623360854E+02  0.54343678002E+01  0.31886054328E+02  0.00000000000E+00 0.  1.
         11    1    3    3    0    0 -0.10211766173E+02  0.51093747359E+01 -0.18500191105E+02  0.21740353027E+02  0.51100000000E-03 0. -1.
        -11    1    3    3    0    0 -0.31408074544E+01 -0.10460493103E+02  0.16867165506E+02  0.20094473367E+02  0.51100000000E-03 0.  1.
        -12    1    3    3    0    0 -0.15419615513E+02 -0.72722424873E+01 -0.38013422010E+01  0.17467119278E+02  0.00000000000E+00 0.  1.
</event>
<event>
 7    1  0.1113211E-011  0.5930196E+02  0.7816164E-02  0.1266605E+00
        -11   -1    0    0    0    0  0.00000000000E+00  0.00000000000E+00  0.45593999997E+02  0.45594000000E+02  0.51100000000E-03 0.  1.
         11   -1    0    0    0    0 -0.00000000000E+00 -0.00000000000E+00 -0.45593999997E+02  0.45594000000E+02  0.51100000000E-03 0. -1.
    9900012    2    1    2    0    0  0.16982568930E+02  0.27799404049E+01 -0.26843692679E+02  0.59301959908E+02  0.50000028962E+02 0.  0.
        -12    1    1    2    0    0 -0.16982568930E+02 -0.27799404049E+01  0.26843692679E+02  0.31886040092E+02  0.00000000000E+00 0.  1.
         11    1    3    3    0    0 -0.14784115238E+02 -0.78071538935E+01 -0.18198606397E+02  0.24712567457E+02  0.51100000000E-03 0. -1.
        -11    1    3    3    0    0  0.11671107069E+02  0.42416224473E+01 -0.31831958358E+01  0.12819471018E+02  0.51100000000E-03 0.  1.
         12    1    3    3    0    0  0.20095577099E+02  0.63454718511E+01 -0.54618904459E+01  0.21769921433E+02  0.00000000000E+00 0. -1.
</event>
<event>
 7    1  0.1113211E-011  0.5930194E+02  0.7816164E-02  0.1266605E+00
        -11   -1    0    0    0    0  0.00000000000E+00  0.00000000000E+00  0.45593999997E+02  0.45594000000E+02  0.51100000000E-03 0.  1.
         11   -1    0    0    0    0 -0.00000000000E+00 -0.00000000000E+00 -0.45593999997E+02  0.45594000000E+02  0.51100000000E-03 0. -1.
    9900012    2    1    2    0    0 -0.25689067286E+02 -0.18288220431E+02 -0.47258230781E+01  0.59301943669E+02  0.49999999346E+02 0.  0.
        -12    1    1    2    0    0  0.25689067286E+02  0.18288220431E+02  0.47258230781E+01  0.31886056331E+02  0.00000000000E+00 0.  1.
         11    1    3    3    0    0  0.29383517235E+01 -0.13347675008E+02 -0.14185090078E+02  0.19697997861E+02  0.51100000000E-03 0. -1.
        -11    1    3    3    0    0 -0.17047858312E+02  0.74123711754E+01  0.12500029762E+02  0.22401416557E+02  0.51100000000E-03 0.  1.
         12    1    3    3    0    0 -0.11579560698E+02 -0.12352916599E+02 -0.30407627626E+01  0.17202529251E+02  0.00000000000E+00 0. -1.
</event>
<event>
 7    1  0.1113211E-011  0.5930190E+02  0.7816164E-02  0.1266605E+00
        -11   -1    0    0    0    0  0.00000000000E+00  0.00000000000E+00  0.45593999997E+02  0.45594000000E+02  0.51100000000E-03 0.  1.
         11   -1    0    0    0    0 -0.00000000000E+00 -0.00000000000E+00 -0.45593999997E+02  0.45594000000E+02  0.51100000000E-03 0. -1.
    9900012    2    1    2    0    0 -0.30531406336E+02  0.77769868902E+01 -0.49066216773E+01  0.59301902179E+02  0.49999923679E+02 0.  0.
        -12    1    1    2    0    0  0.30531406336E+02 -0.77769868902E+01  0.49066216773E+01  0.31886097821E+02  0.00000000000E+00 0.  1.
         11    1    3    3    0    0  0.12296604417E+02  0.34644898252E+01  0.58495757418E+01  0.14050861417E+02  0.51100000000E-03 0.  1.
        -11    1    3    3    0    0 -0.27441037023E+02  0.50608744454E+01 -0.10587655973E+02  0.29844956397E+02  0.51100000000E-03 0. -1.
         12    1    3    3    0    0 -0.15386973730E+02 -0.74837738044E+00 -0.16854144620E+00  0.15406084366E+02  0.00000000000E+00 0. -1.
</event>
<event>
 7    1  0.1113211E-011  0.5930187E+02  0.7816164E-02  0.1266605E+00
        -11   -1    0    0    0    0  0.00000000000E+00  0.00000000000E+00  0.45593999997E+02  0.45594000000E+02  0.51100000000E-03 0.  1.
         11   -1    0    0    0    0 -0.00000000000E+00 -0.00000000000E+00 -0.45593999997E+02  0.45594000000E+02  0.51100000000E-03 0. -1.
    9900012    2    1    2    0    0 -0.12518330659E-01 -0.20554940529E+02 -0.24376616631E+02  0.59301871743E+02  0.49999868169E+02 0.  0.
        -12    1    1    2    0    0  0.12518330659E-01  0.20554940529E+02  0.24376616631E+02  0.31886128257E+02  0.00000000000E+00 0.  1.
         11    1    3    3    0    0 -0.15999378894E+02 -0.11219693938E+00 -0.26234702223E+02  0.30728688780E+02  0.51100000000E-03 0. -1.
        -11    1    3    3    0    0  0.78271368379E+01 -0.15337937087E+02  0.58029664174E+01  0.18171153091E+02  0.51100000000E-03 0.  1.
         12    1    3    3    0    0  0.81597237259E+01 -0.51048065029E+01 -0.39448808255E+01  0.10402029871E+02  0.00000000000E+00 0. -1.
</event>
<event>
 7    1  0.1113211E-011  0.5930192E+02  0.7816164E-02  0.1266605E+00
        -11   -1    0    0    0    0  0.00000000000E+00  0.00000000000E+00  0.45593999997E+02  0.45594000000E+02  0.51100000000E-03 0. -1.
         11   -1    0    0    0    0 -0.00000000000E+00 -0.00000000000E+00 -0.45593999997E+02  0.45594000000E+02  0.51100000000E-03 0.  1.
    9900012    2    1    2    0    0  0.25345192200E+02  0.17515055592E+02  0.82198473952E+01  0.59301924179E+02  0.49999963801E+02 0.  0.
        -12    1    1    2    0    0 -0.25345192200E+02 -0.17515055592E+02 -0.82198473952E+01  0.31886075821E+02  0.00000000000E+00 0.  1.
         11    1    3    3    0    0  0.16817799221E+02  0.84308742325E+01 -0.19202847817E+02  0.26882473389E+02  0.51100000000E-03 0. -1.
        -11    1    3    3    0    0 -0.25205983814E+01 -0.60001701257E+00  0.37378190794E+01  0.45480466518E+01  0.51100000000E-03 0.  1.
         12    1    3    3    0    0  0.11047991360E+02  0.96841983722E+01  0.23684876133E+02  0.27871404138E+02  0.00000000000E+00 0. -1.
</event>
<event>
 7    1  0.1113211E-011  0.5930188E+02  0.7816164E-02  0.1266605E+00
        -11   -1    0    0    0    0  0.00000000000E+00  0.00000000000E+00  0.45593999997E+02  0.45594000000E+02  0.51100000000E-03 0.  1.
         11   -1    0    0    0    0 -0.00000000000E+00 -0.00000000000E+00 -0.45593999997E+02  0.45594000000E+02  0.51100000000E-03 0. -1.
    9900012    2    1    2    0    0 -0.43795932840E+01  0.26671143808E+02  0.16917260585E+02  0.59301883035E+02  0.49999888764E+02 0.  0.
        -12    1    1    2    0    0  0.43795932840E+01 -0.26671143808E+02 -0.16917260585E+02  0.31886116965E+02  0.00000000000E+00 0.  1.
         11    1    3    3    0    0 -0.13143545701E+02  0.21464997212E+02 -0.60364913958E+01  0.25883163013E+02  0.51100000000E-03 0. -1.
        -11    1    3    3    0    0  0.49648878930E+00 -0.51527284029E+00  0.23345976048E+02  0.23356939121E+02  0.51100000000E-03 0.  1.
         12    1    3    3    0    0  0.82674636275E+01  0.57214194360E+01 -0.39222406639E+00  0.10061780902E+02  0.00000000000E+00 0. -1.
</event>
<event>
 7    1  0.1113211E-011  0.5930209E+02  0.7816164E-02  0.1266604E+00
        -11   -1    0    0    0    0  0.00000000000E+00  0.00000000000E+00  0.45593999997E+02  0.45594000000E+02  0.51100000000E-03 0. -1.
         11   -1    0    0    0    0 -0.00000000000E+00 -0.00000000000E+00 -0.45593999997E+02  0.45594000000E+02  0.51100000000E-03 0.  1.
    9900012    2    1    2    0    0 -0.17938266947E+02 -0.21610239201E+02  0.15097269027E+02  0.59302087884E+02  0.50000262359E+02 0.  0.
        -12    1    1    2    0    0  0.17938266947E+02  0.21610239201E+02 -0.15097269027E+02  0.31885912116E+02  0.00000000000E+00 0.  1.
         11    1    3    3    0    0 -0.18764689750E+02 -0.27555245765E+02 -0.26959684223E+01  0.33446575259E+02  0.51100000000E-03 0. -1.
        -11    1    3    3    0    0  0.21809936464E+01  0.14001852211E+01 -0.33224781810E+01  0.42138003588E+01  0.51100000000E-03 0.  1.
         12    1    3    3    0    0 -0.13545708439E+01  0.45448213433E+01  0.21115715631E+02  0.21641712266E+02  0.00000000000E+00 0. -1.
</event>
<event>
 7    1  0.1113211E-011  0.5930194E+02  0.7816164E-02  0.1266605E+00
        -11   -1    0    0    0    0  0.00000000000E+00  0.00000000000E+00  0.45593999997E+02  0.45594000000E+02  0.51100000000E-03 0.  1.
         11   -1    0    0    0    0 -0.00000000000E+00 -0.00000000000E+00 -0.45593999997E+02  0.45594000000E+02  0.51100000000E-03 0. -1.
    9900012    2    1    2    0    0 -0.11960877754E+02 -0.26891305656E+02  0.12268491508E+02  0.59301940343E+02  0.49999993280E+02 0.  0.
        -12    1    1    2    0    0  0.11960877754E+02  0.26891305656E+02 -0.12268491508E+02  0.31886059657E+02  0.00000000000E+00 0.  1.
         11    1    3    3    0    0 -0.21200099884E+02 -0.24979260292E+02  0.24234323724E+02  0.40751811327E+02  0.51100000000E-03 0. -1.
        -11    1    3    3    0    0  0.48068239567E+01 -0.36386724843E+01 -0.12385490279E+02  0.13774827176E+02  0.51100000000E-03 0.  1.
         12    1    3    3    0    0  0.44323981732E+01  0.17266271197E+01  0.41965806409E+00  0.47753018404E+01  0.00000000000E+00 0. -1.
</event>
<event>
 7    1  0.1113211E-011  0.5930200E+02  0.7816164E-02  0.1266605E+00
        -11   -1    0    0    0    0  0.00000000000E+00  0.00000000000E+00  0.45593999997E+02  0.45594000000E+02  0.51100000000E-03 0.  1.
         11   -1    0    0    0    0 -0.00000000000E+00 -0.00000000000E+00 -0.45593999997E+02  0.45594000000E+02  0.51100000000E-03 0. -1.
    9900012    2    1    2    0    0  0.13855944464E+02 -0.27160110821E+02 -0.93305103382E+01  0.59301996175E+02  0.50000095103E+02 0.  0.
        -12    1    1    2    0    0 -0.13855944464E+02  0.27160110821E+02  0.93305103382E+01  0.31886003825E+02  0.00000000000E+00 0.  1.
         11    1    3    3    0    0  0.10468244549E+02 -0.37851165854E+01 -0.11540833959E+02  0.16034403645E+02  0.51100000000E-03 0. -1.
        -11    1    3    3    0    0  0.75449328999E+01  0.43116308492E+01  0.10912014436E+02  0.13949488606E+02  0.51100000000E-03 0.  1.
        -12    1    3    3    0    0 -0.41572329848E+01 -0.27686625085E+02 -0.87016908155E+01  0.29318103924E+02  0.00000000000E+00 0.  1.
</event>
<event>
 7    1  0.1113211E-011  0.5930190E+02  0.7816164E-02  0.1266605E+00
        -11   -1    0    0    0    0  0.00000000000E+00  0.00000000000E+00  0.45593999997E+02  0.45594000000E+02  0.51100000000E-03 0.  1.
         11   -1    0    0    0    0 -0.00000000000E+00 -0.00000000000E+00 -0.45593999997E+02  0.45594000000E+02  0.51100000000E-03 0. -1.
    9900012    2    1    2    0    0 -0.91459769232E+01 -0.20395626587E+02  0.22739678186E+02  0.59301898925E+02  0.49999917743E+02 0.  0.
        -12    1    1    2    0    0  0.91459769232E+01  0.20395626587E+02 -0.22739678186E+02  0.31886101075E+02  0.00000000000E+00 0.  1.
         11    1    3    3    0    0  0.15880418563E+02 -0.10284202269E+01 -0.20727038297E+01  0.16048097810E+02  0.51100000000E-03 0. -1.
        -11    1    3    3    0    0 -0.10085214889E+02 -0.32452498481E+01  0.16793220592E+02  0.19855867245E+02  0.51100000000E-03 0.  1.
         12    1    3    3    0    0 -0.14941180597E+02 -0.16121956512E+02  0.80191614238E+01  0.23397933869E+02  0.00000000000E+00 0. -1.
</event>
<event>
 7    1  0.1113211E-011  0.5930191E+02  0.7816164E-02  0.1266605E+00
        -11   -1    0    0    0    0  0.00000000000E+00  0.00000000000E+00  0.45593999997E+02  0.45594000000E+02  0.51100000000E-03 0.  1.
         11   -1    0    0    0    0 -0.00000000000E+00 -0.00000000000E+00 -0.45593999997E+02  0.45594000000E+02  0.51100000000E-03 0. -1.
    9900012    2    1    2    0    0 -0.12314932041E+02 -0.16954699632E+02 -0.24033383126E+02  0.59301907494E+02  0.49999933371E+02 0.  0.
        -12    1    1    2    0    0  0.12314932041E+02  0.16954699632E+02  0.24033383126E+02  0.31886092506E+02  0.00000000000E+00 0.  1.
         11    1    3    3    0    0  0.15933434371E+02  0.29414115364E+01 -0.44361488934E+01  0.16798977646E+02  0.51100000000E-03 0. -1.
        -11    1    3    3    0    0 -0.16236824786E+02 -0.80309156454E+01 -0.18011437239E+02  0.25544900800E+02  0.51100000000E-03 0.  1.
        -12    1    3    3    0    0 -0.12011541627E+02 -0.11865195523E+02 -0.15857969942E+01  0.16958029047E+02  0.00000000000E+00 0.  1.
</event>
<event>
 7    1  0.1113211E-011  0.5930190E+02  0.7816164E-02  0.1266605E+00
        -11   -1    0    0    0    0  0.00000000000E+00  0.00000000000E+00  0.45593999997E+02  0.45594000000E+02  0.51100000000E-03 0.  1.
         11   -1    0    0    0    0 -0.00000000000E+00 -0.00000000000E+00 -0.45593999997E+02  0.45594000000E+02  0.51100000000E-03 0. -1.
    9900012    2    1    2    0    0  0.18915494087E+02 -0.16587939831E+02 -0.19589991952E+02  0.59301898811E+02  0.49999917535E+02 0.  0.
        -12    1    1    2    0    0 -0.18915494087E+02  0.16587939831E+02  0.19589991952E+02  0.31886101189E+02  0.00000000000E+00 0.  1.
         11    1    3    3    0    0 -0.67699503893E+01 -0.12951506889E+02 -0.15302454486E+02  0.21159841033E+02  0.51100000000E-03 0. -1.
        -11    1    3    3    0    0  0.24974905970E+02 -0.15417793232E+01  0.75208755410E+01  0.26128271677E+02  0.51100000000E-03 0.  1.
         12    1    3    3    0    0  0.71053850649E+00 -0.20946536182E+01 -0.11808413006E+02  0.12013786101E+02  0.00000000000E+00 0. -1.
</event>
<event>
 7    1  0.1113211E-011  0.5930194E+02  0.7816164E-02  0.1266605E+00
        -11   -1    0    0    0    0  0.00000000000E+00  0.00000000000E+00  0.45593999997E+02  0.45594000000E+02  0.51100000000E-03 0.  1.
         11   -1    0    0    0    0 -0.00000000000E+00 -0.00000000000E+00 -0.45593999997E+02  0.45594000000E+02  0.51100000000E-03 0. -1.
    9900012    2    1    2    0    0  0.28190348927E+02  0.23734612451E+01 -0.14710269112E+02  0.59301935516E+02  0.49999984476E+02 0.  0.
        -12    1    1    2    0    0 -0.28190348927E+02 -0.23734612451E+01  0.14710269112E+02  0.31886064484E+02  0.00000000000E+00 0.  1.
         11    1    3    3    0    0  0.78753455298E+01  0.17210929849E+02 -0.77369223886E+01  0.20447423842E+02  0.51100000000E-03 0. -1.
        -11    1    3    3    0    0  0.33477308507E+01 -0.13032458446E+02 -0.14868851437E+02  0.20053304424E+02  0.51100000000E-03 0.  1.
        -12    1    3    3    0    0  0.16967272547E+02 -0.18050101579E+01  0.78955047137E+01  0.18801207249E+02  0.00000000000E+00 0.  1.
</event>
<event>
 7    1  0.1113211E-011  0.5930191E+02  0.7816164E-02  0.1266605E+00
        -11   -1    0    0    0    0  0.00000000000E+00  0.00000000000E+00  0.45593999997E+02  0.45594000000E+02  0.51100000000E-03 0. -1.
         11   -1    0    0    0    0 -0.00000000000E+00 -0.00000000000E+00 -0.45593999997E+02  0.45594000000E+02  0.51100000000E-03 0.  1.
    9900012    2    1    2    0    0  0.21653747132E+02 -0.18984170521E+02  0.13690855588E+02  0.59301905508E+02  0.49999929750E+02 0.  0.
        -12    1    1    2    0    0 -0.21653747132E+02  0.18984170521E+02 -0.13690855588E+02  0.31886094492E+02  0.00000000000E+00 0.  1.
         11    1    3    3    0    0  0.84383083396E+01 -0.21386602517E+02  0.12703966753E+02  0.26267519608E+02  0.51100000000E-03 0. -1.
        -11    1    3    3    0    0  0.16140131590E+02  0.10411013345E+02  0.91106368625E+01  0.21257863273E+02  0.51100000000E-03 0.  1.
         12    1    3    3    0    0 -0.29246927980E+01 -0.80085813484E+01 -0.81237480279E+01  0.11776522628E+02  0.00000000000E+00 0. -1.
</event>
<event>
 7    1  0.1113211E-011  0.5930192E+02  0.7816164E-02  0.1266605E+00
        -11   -1    0    0    0    0  0.00000000000E+00  0.00000000000E+00  0.45593999997E+02  0.45594000000E+02  0.51100000000E-03 0.  1.
         11   -1    0    0    0    0 -0.00000000000E+00 -0.00000000000E+00 -0.45593999997E+02  0.45594000000E+02  0.51100000000E-03 0. -1.
    9900012    2    1    2    0    0  0.28799732504E+02 -0.12824865610E+02  0.47770333539E+01  0.59301924389E+02  0.49999964183E+02 0.  0.
        -12    1    1    2    0    0 -0.28799732504E+02  0.12824865610E+02 -0.47770333539E+01  0.31886075611E+02  0.00000000000E+00 0.  1.
         11    1    3    3    0    0  0.27270444458E+02 -0.12669153882E+02  0.51784976716E+01  0.30512316192E+02  0.51100000000E-03 0. -1.
        -11    1    3    3    0    0 -0.71356419004E+01 -0.37519602978E+01  0.11243860165E+02  0.13835424933E+02  0.51100000000E-03 0.  1.
        -12    1    3    3    0    0  0.86649299468E+01  0.35962485700E+01 -0.11645324483E+02  0.14954183263E+02  0.00000000000E+00 0.  1.
</event>
<event>
 7    1  0.1113211E-011  0.5930195E+02  0.7816164E-02  0.1266605E+00
        -11   -1    0    0    0    0  0.00000000000E+00  0.00000000000E+00  0.45593999997E+02  0.45594000000E+02  0.51100000000E-03 0. -1.
         11   -1    0    0    0    0 -0.00000000000E+00 -0.00000000000E+00 -0.45593999997E+02  0.45594000000E+02  0.51100000000E-03 0.  1.
    9900012    2    1    2    0    0  0.17222572647E+02  0.24043419981E+02  0.11917101831E+02  0.59301947109E+02  0.50000005619E+02 0.  0.
        -12    1    1    2    0    0 -0.17222572647E+02 -0.24043419981E+02 -0.11917101831E+02  0.31886052891E+02  0.00000000000E+00 0.  1.
         11    1    3    3    0    0  0.28048285853E+02  0.10732576908E+01  0.10541521269E+02  0.29983026736E+02  0.51100000000E-03 0. -1.
        -11    1    3    3    0    0 -0.91918795685E+01  0.80027006820E+01  0.59782756025E+01  0.13574743005E+02  0.51100000000E-03 0.  1.
         12    1    3    3    0    0 -0.16338336375E+01  0.14967461608E+02 -0.46026950406E+01  0.15744177368E+02  0.00000000000E+00 0. -1.
</event>
<event>
 7    1  0.1113211E-011  0.5930194E+02  0.7816164E-02  0.1266605E+00
        -11   -1    0    0    0    0  0.00000000000E+00  0.00000000000E+00  0.45593999997E+02  0.45594000000E+02  0.51100000000E-03 0.  1.
         11   -1    0    0    0    0 -0.00000000000E+00 -0.00000000000E+00 -0.45593999997E+02  0.45594000000E+02  0.51100000000E-03 0. -1.
    9900012    2    1    2    0    0  0.23364368877E+02 -0.14693550840E+02  0.15966428466E+02  0.59301937100E+02  0.49999987366E+02 0.  0.
        -12    1    1    2    0    0 -0.23364368877E+02  0.14693550840E+02 -0.15966428466E+02  0.31886062900E+02  0.00000000000E+00 0.  1.
         11    1    3    3    0    0 -0.32805400221E+01 -0.75079625122E+01 -0.13314039489E+02  0.15633140814E+02  0.51100000000E-03 0. -1.
        -11    1    3    3    0    0  0.22648583418E+02 -0.56032624329E+01  0.31202131908E+02  0.38960594408E+02  0.51100000000E-03 0.  1.
         12    1    3    3    0    0  0.39963254807E+01 -0.15823258946E+01 -0.19216639524E+01  0.47082018787E+01  0.00000000000E+00 0. -1.
</event>
<event>
 7    1  0.1113211E-011  0.5930197E+02  0.7816164E-02  0.1266605E+00
        -11   -1    0    0    0    0  0.00000000000E+00  0.00000000000E+00  0.45593999997E+02  0.45594000000E+02  0.51100000000E-03 0. -1.
         11   -1    0    0    0    0 -0.00000000000E+00 -0.00000000000E+00 -0.45593999997E+02  0.45594000000E+02  0.51100000000E-03 0.  1.
    9900012    2    1    2    0    0 -0.42857874382E+01 -0.16844436160E+02  0.26732303169E+02  0.59301968007E+02  0.50000043733E+02 0.  0.
        -12    1    1    2    0    0  0.42857874382E+01  0.16844436160E+02 -0.26732303169E+02  0.31886031993E+02  0.00000000000E+00 0.  1.
         11    1    3    3    0    0  0.14194976743E+02  0.74290575836E+01  0.12809839754E+02  0.20512928998E+02  0.51100000000E-03 0. -1.
        -11    1    3    3    0    0 -0.57308902556E+01 -0.15520697153E+02 -0.19123331203E+01  0.16655094159E+02  0.51100000000E-03 0.  1.
        -12    1    3    3    0    0 -0.12749873925E+02 -0.87527965909E+01  0.15834796536E+02  0.22133944850E+02  0.00000000000E+00 0.  1.
</event>
<event>
 7    1  0.1113211E-011  0.5930191E+02  0.7816164E-02  0.1266605E+00
        -11   -1    0    0    0    0  0.00000000000E+00  0.00000000000E+00  0.45593999997E+02  0.45594000000E+02  0.51100000000E-03 0.  1.
         11   -1    0    0    0    0 -0.00000000000E+00 -0.00000000000E+00 -0.45593999997E+02  0.45594000000E+02  0.51100000000E-03 0. -1.
    9900012    2    1    2    0    0 -0.10566874450E+02 -0.20088338696E+02 -0.22394705190E+02  0.59301905731E+02  0.49999930156E+02 0.  0.
        -12    1    1    2    0    0  0.10566874450E+02  0.20088338696E+02  0.22394705190E+02  0.31886094269E+02  0.00000000000E+00 0.  1.
         11    1    3    3    0    0 -0.27951837925E+02 -0.20018152743E+02 -0.22991593357E+02  0.41359944971E+02  0.51100000000E-03 0. -1.
        -11    1    3    3    0    0  0.95587887719E+01  0.82388840807E+00  0.23374692918E+01  0.98748669786E+01  0.51100000000E-03 0.  1.
         12    1    3    3    0    0  0.78261747023E+01 -0.89407436071E+00 -0.17405811239E+01  0.80670937817E+01  0.00000000000E+00 0. -1.
</event>
<event>
 7    1  0.1113211E-011  0.5930192E+02  0.7816164E-02  0.1266605E+00
        -11   -1    0    0    0    0  0.00000000000E+00  0.00000000000E+00  0.45593999997E+02  0.45594000000E+02  0.51100000000E-03 0.  1.
         11   -1    0    0    0    0 -0.00000000000E+00 -0.00000000000E+00 -0.45593999997E+02  0.45594000000E+02  0.51100000000E-03 0. -1.
    9900012    2    1    2    0    0  0.25403311726E+02  0.19270892947E+02 -0.16201054342E+00  0.59301924528E+02  0.49999964436E+02 0.  0.
        -12    1    1    2    0    0 -0.25403311726E+02 -0.19270892947E+02  0.16201054342E+00  0.31886075472E+02  0.00000000000E+00 0.  1.
         11    1    3    3    0    0 -0.63604165232E+01  0.19215829306E+02  0.80969657613E+01  0.21800546990E+02  0.51100000000E-03 0. -1.
        -11    1    3    3    0    0  0.61136590558E+01 -0.13101470175E+01  0.55306904311E+01  0.83475654633E+01  0.51100000000E-03 0.  1.
         12    1    3    3    0    0  0.25650069194E+02  0.13652106582E+01 -0.13789666736E+02  0.29153812074E+02  0.00000000000E+00 0. -1.
</event>
<event>
 7    1  0.1113211E-011  0.5930193E+02  0.7816164E-02  0.1266605E+00
        -11   -1    0    0    0    0  0.00000000000E+00  0.00000000000E+00  0.45593999997E+02  0.45594000000E+02  0.51100000000E-03 0.  1.
         11   -1    0    0    0    0 -0.00000000000E+00 -0.00000000000E+00 -0.45593999997E+02  0.45594000000E+02  0.51100000000E-03 0. -1.
    9900012    2    1    2    0    0 -0.31347883197E+02 -0.52586734345E+01 -0.25254617663E+01  0.59301931187E+02  0.49999976582E+02 0.  0.
        -12    1    1    2    0    0  0.31347883197E+02  0.52586734345E+01  0.25254617663E+01  0.31886068813E+02  0.00000000000E+00 0.  1.
         11    1    3    3    0    0 -0.18360343831E+02  0.18185572052E+02 -0.11897204344E+02  0.28449265859E+02  0.51100000000E-03 0. -1.
        -11    1    3    3    0    0 -0.41062394271E+01 -0.10364417393E+02 -0.20673344129E+01  0.11338263622E+02  0.51100000000E-03 0.  1.
         12    1    3    3    0    0 -0.88812999384E+01 -0.13079828093E+02  0.11439076991E+02  0.19514401706E+02  0.00000000000E+00 0. -1.
</event>
<event>
 7    1  0.1113211E-011  0.5930193E+02  0.7816164E-02  0.1266605E+00
        -11   -1    0    0    0    0  0.00000000000E+00  0.00000000000E+00  0.45593999997E+02  0.45594000000E+02  0.51100000000E-03 0. -1.
         11   -1    0    0    0    0 -0.00000000000E+00 -0.00000000000E+00 -0.45593999997E+02  0.45594000000E+02  0.51100000000E-03 0.  1.
    9900012    2    1    2    0    0  0.10052292823E+02  0.30245548143E+02  0.93804804151E+00  0.59301926118E+02  0.49999967338E+02 0.  0.
        -12    1    1    2    0    0 -0.10052292823E+02 -0.30245548143E+02 -0.93804804151E+00  0.31886073882E+02  0.00000000000E+00 0.  1.
         11    1    3    3    0    0 -0.28166881296E+01  0.19635874529E+02 -0.99831920265E+00  0.19861972259E+02  0.51100000000E-03 0. -1.
        -11    1    3    3    0    0 -0.91843172037E+01 -0.20954165922E+01  0.89980521252E+01  0.13027179108E+02  0.51100000000E-03 0.  1.
        -12    1    3    3    0    0  0.22053298156E+02  0.12705090206E+02 -0.70616848811E+01  0.26412774751E+02  0.00000000000E+00 0.  1.
</event>
<event>
 7    1  0.1113211E-011  0.5930195E+02  0.7816164E-02  0.1266605E+00
        -11   -1    0    0    0    0  0.00000000000E+00  0.00000000000E+00  0.45593999997E+02  0.45594000000E+02  0.51100000000E-03 0.  1.
         11   -1    0    0    0    0 -0.00000000000E+00 -0.00000000000E+00 -0.45593999997E+02  0.45594000000E+02  0.51100000000E-03 0. -1.
    9900012    2    1    2    0    0  0.21543953028E+02  0.65449805667E+01 -0.22577454149E+02  0.59301951036E+02  0.50000012781E+02 0.  0.
        -12    1    1    2    0    0 -0.21543953028E+02 -0.65449805667E+01  0.22577454149E+02  0.31886048964E+02  0.00000000000E+00 0.  1.
         11    1    3    3    0    0  0.25420069263E+02  0.77900670413E+01 -0.24936227298E+02  0.36451069916E+02  0.51100000000E-03 0. -1.
        -11    1    3    3    0    0  0.68834837149E+00  0.30991271611E+01  0.11398121165E+02  0.11831972744E+02  0.51100000000E-03 0.  1.
        -12    1    3    3    0    0 -0.45644646068E+01 -0.43442136357E+01 -0.90393480161E+01  0.11018908377E+02  0.00000000000E+00 0.  1.
</event>
<event>
 7    1  0.1113211E-011  0.5930194E+02  0.7816164E-02  0.1266605E+00
        -11   -1    0    0    0    0  0.00000000000E+00  0.00000000000E+00  0.45593999997E+02  0.45594000000E+02  0.51100000000E-03 0.  1.
         11   -1    0    0    0    0 -0.00000000000E+00 -0.00000000000E+00 -0.45593999997E+02  0.45594000000E+02  0.51100000000E-03 0. -1.
    9900012    2    1    2    0    0 -0.23736700954E+02  0.19855029884E+01  0.21197824233E+02  0.59301938052E+02  0.49999989102E+02 0.  0.
        -12    1    1    2    0    0  0.23736700954E+02 -0.19855029884E+01 -0.21197824233E+02  0.31886061948E+02  0.00000000000E+00 0.  1.
         11    1    3    3    0    0 -0.67994989779E+01  0.51757046187E+01  0.19405390469E+01  0.87628075812E+01  0.51100000000E-03 0. -1.
        -11    1    3    3    0    0 -0.17070684893E+02 -0.19441313009E+02  0.71401008166E+00  0.25882093132E+02  0.51100000000E-03 0.  1.
        -12    1    3    3    0    0  0.13348291707E+00  0.16251111379E+02  0.18543275105E+02  0.24657037339E+02  0.00000000000E+00 0.  1.
</event>
<event>
 7    1  0.1113211E-011  0.5930192E+02  0.7816164E-02  0.1266605E+00
        -11   -1    0    0    0    0  0.00000000000E+00  0.00000000000E+00  0.45593999997E+02  0.45594000000E+02  0.51100000000E-03 0.  1.
         11   -1    0    0    0    0 -0.00000000000E+00 -0.00000000000E+00 -0.45593999997E+02  0.45594000000E+02  0.51100000000E-03 0. -1.
    9900012    2    1    2    0    0  0.18688524251E+02  0.22542598714E+02 -0.12621099117E+02  0.59301924067E+02  0.49999963597E+02 0.  0.
        -12    1    1    2    0    0 -0.18688524251E+02 -0.22542598714E+02  0.12621099117E+02  0.31886075933E+02  0.00000000000E+00 0.  1.
         11    1    3    3    0    0  0.25636625689E+02  0.22693229471E+02 -0.11986147727E+02  0.36275156487E+02  0.51100000000E-03 0. -1.
        -11    1    3    3    0    0 -0.15946551590E+01  0.32090182154E+01  0.10018223304E+02  0.10639808336E+02  0.51100000000E-03 0.  1.
         12    1    3    3    0    0 -0.53534462782E+01 -0.33596489724E+01 -0.10653174694E+02  0.12386959245E+02  0.00000000000E+00 0. -1.
</event>
<event>
 7    1  0.1113211E-011  0.5930195E+02  0.7816164E-02  0.1266605E+00
        -11   -1    0    0    0    0  0.00000000000E+00  0.00000000000E+00  0.45593999997E+02  0.45594000000E+02  0.51100000000E-03 0.  1.
         11   -1    0    0    0    0 -0.00000000000E+00 -0.00000000000E+00 -0.45593999997E+02  0.45594000000E+02  0.51100000000E-03 0. -1.
    9900012    2    1    2    0    0 -0.90303558856E+00 -0.19204834852E+02 -0.25437745103E+02  0.59301952410E+02  0.50000015287E+02 0.  0.
        -12    1    1    2    0    0  0.90303558856E+00  0.19204834852E+02  0.25437745103E+02  0.31886047590E+02  0.00000000000E+00 0.  1.
         11    1    3    3    0    0 -0.11616835236E+02 -0.33115825284E+02 -0.13202830634E+02  0.37495646176E+02  0.51100000000E-03 0. -1.
        -11    1    3    3    0    0  0.16467829809E+01  0.37083191412E+01 -0.11349145908E+01  0.42132595967E+01  0.51100000000E-03 0.  1.
         12    1    3    3    0    0  0.90670166667E+01  0.10202671290E+02 -0.11099999878E+02  0.17593046638E+02  0.00000000000E+00 0. -1.
</event>
<event>
 7    1  0.1113211E-011  0.5930188E+02  0.7816164E-02  0.1266605E+00
        -11   -1    0    0    0    0  0.00000000000E+00  0.00000000000E+00  0.45593999997E+02  0.45594000000E+02  0.51100000000E-03 0.  1.
         11   -1    0    0    0    0 -0.00000000000E+00 -0.00000000000E+00 -0.45593999997E+02  0.45594000000E+02  0.51100000000E-03 0. -1.
    9900012    2    1    2    0    0 -0.26234271902E+02  0.17060781919E+02  0.61169781842E+01  0.59301878818E+02  0.49999881073E+02 0.  0.
        -12    1    1    2    0    0  0.26234271902E+02 -0.17060781919E+02 -0.61169781842E+01  0.31886121182E+02  0.00000000000E+00 0.  1.
         11    1    3    3    0    0 -0.19038505338E+02  0.90655392752E+01  0.32006930345E+01  0.21328223649E+02  0.51100000000E-03 0. -1.
        -11    1    3    3    0    0  0.10001943157E+02  0.91637390440E+00  0.13305592384E+02  0.16670854717E+02  0.51100000000E-03 0.  1.
        -12    1    3    3    0    0 -0.17197709722E+02  0.70788687392E+01 -0.10389307234E+02  0.21302800452E+02  0.00000000000E+00 0.  1.
</event>
<event>
 7    1  0.1113211E-011  0.5930206E+02  0.7816164E-02  0.1266604E+00
        -11   -1    0    0    0    0  0.00000000000E+00  0.00000000000E+00  0.45593999997E+02  0.45594000000E+02  0.51100000000E-03 0. -1.
         11   -1    0    0    0    0 -0.00000000000E+00 -0.00000000000E+00 -0.45593999997E+02  0.45594000000E+02  0.51100000000E-03 0.  1.
    9900012    2    1    2    0    0  0.30378371068E+00  0.24897161753E+02  0.19918647103E+02  0.59302055600E+02  0.50000203480E+02 0.  0.
        -12    1    1    2    0    0 -0.30378371068E+00 -0.24897161753E+02 -0.19918647103E+02  0.31885944400E+02  0.00000000000E+00 0.  1.
         11    1    3    3    0    0 -0.14982987861E+02  0.26191027988E+02  0.26460801958E+02  0.40132703781E+02  0.51100000000E-03 0. -1.
        -11    1    3    3    0    0  0.11295384756E+02 -0.44374693922E+01 -0.18929442041E+01  0.12282511527E+02  0.51100000000E-03 0.  1.
         12    1    3    3    0    0  0.39913868158E+01  0.31436031575E+01 -0.46492106510E+01  0.68868402916E+01  0.00000000000E+00 0. -1.
</event>
<event>
 7    1  0.1113211E-011  0.5930189E+02  0.7816164E-02  0.1266605E+00
        -11   -1    0    0    0    0  0.00000000000E+00  0.00000000000E+00  0.45593999997E+02  0.45594000000E+02  0.51100000000E-03 0.  1.
         11   -1    0    0    0    0 -0.00000000000E+00 -0.00000000000E+00 -0.45593999997E+02  0.45594000000E+02  0.51100000000E-03 0. -1.
    9900012    2    1    2    0    0  0.29467047556E+02 -0.28901861716E+01 -0.11834868341E+02  0.59301887405E+02  0.49999896733E+02 0.  0.
        -12    1    1    2    0    0 -0.29467047556E+02  0.28901861716E+01  0.11834868341E+02  0.31886112595E+02  0.00000000000E+00 0.  1.
         11    1    3    3    0    0  0.15863648778E+02  0.59617417482E+01 -0.26394497549E+02  0.31366657749E+02  0.51100000000E-03 0. -1.
        -11    1    3    3    0    0  0.73413115102E+01  0.29258014072E+01  0.11975723676E+02  0.14348279562E+02  0.51100000000E-03 0.  1.
        -12    1    3    3    0    0  0.62620872683E+01 -0.11777729327E+02  0.25839055327E+01  0.13586950094E+02  0.00000000000E+00 0.  1.
</event>
<event>
 7    1  0.1113211E-011  0.5930195E+02  0.7816164E-02  0.1266605E+00
        -11   -1    0    0    0    0  0.00000000000E+00  0.00000000000E+00  0.45593999997E+02  0.45594000000E+02  0.51100000000E-03 0. -1.
         11   -1    0    0    0    0 -0.00000000000E+00 -0.00000000000E+00 -0.45593999997E+02  0.45594000000E+02  0.51100000000E-03 0.  1.
    9900012    2    1    2    0    0 -0.23013090146E+02 -0.21270763177E+02  0.58883212134E+01  0.59301952724E+02  0.50000015859E+02 0.  0.
        -12    1    1    2    0    0  0.23013090146E+02  0.21270763177E+02 -0.58883212134E+01  0.31886047276E+02  0.00000000000E+00 0.  1.
         11    1    3    3    0    0  0.45470105088E+01 -0.30887632440E+01 -0.75420326350E+00  0.55483858706E+01  0.51100000000E-03 0. -1.
        -11    1    3    3    0    0 -0.22033741375E+02 -0.30894943795E+02 -0.92882002512E+00  0.37958477551E+02  0.51100000000E-03 0.  1.
        -12    1    3    3    0    0 -0.55263592791E+01  0.12712943861E+02  0.75713445020E+01  0.15795089302E+02  0.00000000000E+00 0.  1.
</event>
<event>
 7    1  0.1113211E-011  0.5930195E+02  0.7816164E-02  0.1266605E+00
        -11   -1    0    0    0    0  0.00000000000E+00  0.00000000000E+00  0.45593999997E+02  0.45594000000E+02  0.51100000000E-03 0.  1.
         11   -1    0    0    0    0 -0.00000000000E+00 -0.00000000000E+00 -0.45593999997E+02  0.45594000000E+02  0.51100000000E-03 0. -1.
    9900012    2    1    2    0    0 -0.10909327365E+02  0.28197787316E+02 -0.10128743717E+02  0.59301951604E+02  0.50000013817E+02 0.  0.
        -12    1    1    2    0    0  0.10909327365E+02 -0.28197787316E+02  0.10128743717E+02  0.31886048396E+02  0.00000000000E+00 0.  1.
         11    1    3    3    0    0 -0.47255641530E+01 -0.11471896661E+02 -0.60838893621E+01  0.13818432603E+02  0.51100000000E-03 0. -1.
        -11    1    3    3    0    0 -0.49162440559E+01  0.25306770163E+02  0.76797858819E+01  0.26899464365E+02  0.51100000000E-03 0.  1.
        -12    1    3    3    0    0 -0.12675191561E+01  0.14362913814E+02 -0.11724640237E+02  0.18584054636E+02  0.00000000000E+00 0.  1.
</event>
<event>
 7    1  0.1113211E-011  0.5930194E+02  0.7816164E-02  0.1266605E+00
        -11   -1    0    0    0    0  0.00000000000E+00  0.00000000000E+00  0.45593999997E+02  0.45594000000E+02  0.51100000000E-03 0.  1.
         11   -1    0    0    0    0 -0.00000000000E+00 -0.00000000000E+00 -0.45593999997E+02  0.45594000000E+02  0.51100000000E-03 0. -1.
    9900012    2    1    2    0    0  0.34937517186E+01  0.18171225828E+02 -0.25967687186E+02  0.59301944632E+02  0.50000001101E+02 0.  0.
        -12    1    1    2    0    0 -0.34937517186E+01 -0.18171225828E+02  0.25967687186E+02  0.31886055368E+02  0.00000000000E+00 0.  1.
         11    1    3    3    0    0  0.12178663847E+01  0.10379249539E+02 -0.40368783011E+02  0.41699528314E+02  0.51100000000E-03 0. -1.
        -11    1    3    3    0    0 -0.16042664381E+01  0.51671062647E+01  0.83551534112E+01  0.99539563360E+01  0.51100000000E-03 0.  1.
        -12    1    3    3    0    0  0.38801517719E+01  0.26248700240E+01  0.60459424140E+01  0.76484599816E+01  0.00000000000E+00 0.  1.
</event>
<event>
 7    1  0.1113211E-011  0.5930173E+02  0.7816164E-02  0.1266605E+00
        -11   -1    0    0    0    0  0.00000000000E+00  0.00000000000E+00  0.45593999997E+02  0.45594000000E+02  0.51100000000E-03 0.  1.
         11   -1    0    0    0    0 -0.00000000000E+00 -0.00000000000E+00 -0.45593999997E+02  0.45594000000E+02  0.51100000000E-03 0. -1.
    9900012    2    1    2    0    0  0.88729857237E+01 -0.29839050720E+02 -0.69018255810E+01  0.59301733052E+02  0.49999615229E+02 0.  0.
        -12    1    1    2    0    0 -0.88729857237E+01  0.29839050720E+02  0.69018255810E+01  0.31886266948E+02  0.00000000000E+00 0.  1.
         11    1    3    3    0    0 -0.12543540145E+02 -0.14098583064E+02 -0.55589316412E+00  0.18879074693E+02  0.51100000000E-03 0. -1.
        -11    1    3    3    0    0  0.26967620682E+02 -0.16840803178E+02  0.16704998764E+00  0.31794545489E+02  0.51100000000E-03 0.  1.
        -12    1    3    3    0    0 -0.55510948130E+01  0.11003355222E+01 -0.65129824046E+01  0.86281128694E+01  0.00000000000E+00 0.  1.
</event>
<event>
 7    1  0.1113211E-011  0.5930194E+02  0.7816164E-02  0.1266605E+00
        -11   -1    0    0    0    0  0.00000000000E+00  0.00000000000E+00  0.45593999997E+02  0.45594000000E+02  0.51100000000E-03 0.  1.
         11   -1    0    0    0    0 -0.00000000000E+00 -0.00000000000E+00 -0.45593999997E+02  0.45594000000E+02  0.51100000000E-03 0. -1.
    9900012    2    1    2    0    0  0.21739519404E+02  0.10490362537E+01 -0.23302651666E+02  0.59301941046E+02  0.49999994561E+02 0.  0.
        -12    1    1    2    0    0 -0.21739519404E+02 -0.10490362537E+01  0.23302651666E+02  0.31886058954E+02  0.00000000000E+00 0.  1.
         11    1    3    3    0    0 -0.65458664136E+01  0.11481653833E+02 -0.18110013430E+02  0.22419842295E+02  0.51100000000E-03 0. -1.
        -11    1    3    3    0    0  0.97514237378E+01 -0.52318904233E+01  0.79043697517E+01  0.13599338357E+02  0.51100000000E-03 0.  1.
         12    1    3    3    0    0  0.18533962079E+02 -0.52007271555E+01 -0.13097007989E+02  0.23282760394E+02  0.00000000000E+00 0. -1.
</event>
<event>
 7    1  0.1113211E-011  0.5930195E+02  0.7816164E-02  0.1266605E+00
        -11   -1    0    0    0    0  0.00000000000E+00  0.00000000000E+00  0.45593999997E+02  0.45594000000E+02  0.51100000000E-03 0. -1.
         11   -1    0    0    0    0 -0.00000000000E+00 -0.00000000000E+00 -0.45593999997E+02  0.45594000000E+02  0.51100000000E-03 0.  1.
    9900012    2    1    2    0    0  0.18681004533E+02  0.18344503522E+02  0.18199441428E+02  0.59301946495E+02  0.50000004500E+02 0.  0.
        -12    1    1    2    0    0 -0.18681004533E+02 -0.18344503522E+02 -0.18199441428E+02  0.31886053505E+02  0.00000000000E+00 0.  1.
         11    1    3    3    0    0  0.20425486673E+02  0.20431454822E+02  0.87516003955E+01  0.30186675234E+02  0.51100000000E-03 0. -1.
        -11    1    3    3    0    0  0.60678456877E+01 -0.11736997198E+02 -0.47505964625E+00  0.13221253210E+02  0.51100000000E-03 0.  1.
        -12    1    3    3    0    0 -0.78123278270E+01  0.96500458976E+01  0.99229006789E+01  0.15894018050E+02  0.00000000000E+00 0.  1.
</event>
<event>
 7    1  0.1113211E-011  0.5930196E+02  0.7816164E-02  0.1266605E+00
        -11   -1    0    0    0    0  0.00000000000E+00  0.00000000000E+00  0.45593999997E+02  0.45594000000E+02  0.51100000000E-03 0. -1.
         11   -1    0    0    0    0 -0.00000000000E+00 -0.00000000000E+00 -0.45593999997E+02  0.45594000000E+02  0.51100000000E-03 0.  1.
    9900012    2    1    2    0    0  0.80934315950E+01  0.24674285861E+02  0.18503934692E+02  0.59301958904E+02  0.50000027130E+02 0.  0.
        -12    1    1    2    0    0 -0.80934315950E+01 -0.24674285861E+02 -0.18503934692E+02  0.31886041096E+02  0.00000000000E+00 0.  1.
         11    1    3    3    0    0  0.63245202104E+01  0.74544367994E+01  0.10039010155E+02  0.14012491179E+02  0.51100000000E-03 0. -1.
        -11    1    3    3    0    0 -0.17579109161E+02  0.16004017944E+02 -0.83582981612E+00  0.23787649758E+02  0.51100000000E-03 0.  1.
        -12    1    3    3    0    0  0.19348020546E+02  0.12158311174E+01  0.93007543531E+01  0.21501817967E+02  0.00000000000E+00 0.  1.
</event>
<event>
 7    1  0.1113211E-011  0.5930195E+02  0.7816164E-02  0.1266605E+00
        -11   -1    0    0    0    0  0.00000000000E+00  0.00000000000E+00  0.45593999997E+02  0.45594000000E+02  0.51100000000E-03 0. -1.
         11   -1    0    0    0    0 -0.00000000000E+00 -0.00000000000E+00 -0.45593999997E+02  0.45594000000E+02  0.51100000000E-03 0.  1.
    9900012    2    1    2    0    0 -0.29254079049E+02 -0.93886418521E+01  0.85306768378E+01  0.59301950007E+02  0.50000010905E+02 0.  0.
        -12    1    1    2    0    0  0.29254079049E+02  0.93886418521E+01 -0.85306768378E+01  0.31886049993E+02  0.00000000000E+00 0.  1.
         11    1    3    3    0    0 -0.93149029009E+01 -0.23456335903E+01  0.16116164455E+02  0.18761667570E+02  0.51100000000E-03 0. -1.
        -11    1    3    3    0    0  0.58085906066E+01 -0.85743488953E+00 -0.12312955547E+02  0.13641253387E+02  0.51100000000E-03 0.  1.
        -12    1    3    3    0    0 -0.25747766755E+02 -0.61855733722E+01  0.47274679290E+01  0.26899029050E+02  0.00000000000E+00 0.  1.
</event>
<event>
 7    1  0.1113211E-011  0.5930191E+02  0.7816164E-02  0.1266605E+00
        -11   -1    0    0    0    0  0.00000000000E+00  0.00000000000E+00  0.45593999997E+02  0.45594000000E+02  0.51100000000E-03 0.  1.
         11   -1    0    0    0    0 -0.00000000000E+00 -0.00000000000E+00 -0.45593999997E+02  0.45594000000E+02  0.51100000000E-03 0. -1.
    9900012    2    1    2    0    0  0.84917464585E+01 -0.91305435818E+01 -0.29346993598E+02  0.59301911854E+02  0.49999941322E+02 0.  0.
        -12    1    1    2    0    0 -0.84917464585E+01  0.91305435818E+01  0.29346993598E+02  0.31886088146E+02  0.00000000000E+00 0.  1.
         11    1    3    3    0    0  0.14620271354E+02 -0.76221604453E+01 -0.24081004995E+02  0.29184661487E+02  0.51100000000E-03 0. -1.
        -11    1    3    3    0    0  0.74039752793E+01  0.50978899409E+01  0.64279522611E+01  0.11051058878E+02  0.51100000000E-03 0.  1.
         12    1    3    3    0    0 -0.13532500174E+02 -0.66062730774E+01 -0.11693940865E+02  0.19066191489E+02  0.00000000000E+00 0. -1.
</event>
<event>
 7    1  0.1113211E-011  0.5930195E+02  0.7816164E-02  0.1266605E+00
        -11   -1    0    0    0    0  0.00000000000E+00  0.00000000000E+00  0.45593999997E+02  0.45594000000E+02  0.51100000000E-03 0.  1.
         11   -1    0    0    0    0 -0.00000000000E+00 -0.00000000000E+00 -0.45593999997E+02  0.45594000000E+02  0.51100000000E-03 0. -1.
    9900012    2    1    2    0    0  0.18820347740E+02 -0.90093632636E+01 -0.24111118120E+02  0.59301950818E+02  0.50000012383E+02 0.  0.
        -12    1    1    2    0    0 -0.18820347740E+02  0.90093632636E+01  0.24111118120E+02  0.31886049182E+02  0.00000000000E+00 0.  1.
         11    1    3    3    0    0  0.28542280638E+02 -0.63435756863E+01 -0.87927615264E+01  0.30532202541E+02  0.51100000000E-03 0. -1.
        -11    1    3    3    0    0 -0.85002930537E+01 -0.46756155618E+01  0.31132727497E+01  0.10188661853E+02  0.51100000000E-03 0.  1.
         12    1    3    3    0    0 -0.12216398442E+01  0.20098279844E+01 -0.18431629343E+02  0.18581086424E+02  0.00000000000E+00 0. -1.
</event>
<event>
 7    1  0.1113211E-011  0.5930196E+02  0.7816164E-02  0.1266605E+00
        -11   -1    0    0    0    0  0.00000000000E+00  0.00000000000E+00  0.45593999997E+02  0.45594000000E+02  0.51100000000E-03 0. -1.
         11   -1    0    0    0    0 -0.00000000000E+00 -0.00000000000E+00 -0.45593999997E+02  0.45594000000E+02  0.51100000000E-03 0.  1.
    9900012    2    1    2    0    0  0.11409288611E+02 -0.21064081841E+02  0.21044048273E+02  0.59301962646E+02  0.50000033956E+02 0.  0.
        -12    1    1    2    0    0 -0.11409288611E+02  0.21064081841E+02 -0.21044048273E+02  0.31886037354E+02  0.00000000000E+00 0.  1.
         11    1    3    3    0    0  0.14990001190E+02  0.53801324903E+01  0.22268230557E+02  0.27377363892E+02  0.51100000000E-03 0.  1.
        -11    1    3    3    0    0 -0.56504256900E+01 -0.21900012459E+02  0.57598800749E+01  0.23339110414E+02  0.51100000000E-03 0. -1.
        -12    1    3    3    0    0  0.20697131113E+01 -0.45442018728E+01 -0.69840623584E+01  0.85854883408E+01  0.00000000000E+00 0.  1.
</event>
<event>
 7    1  0.1113211E-011  0.5930195E+02  0.7816164E-02  0.1266605E+00
        -11   -1    0    0    0    0  0.00000000000E+00  0.00000000000E+00  0.45593999997E+02  0.45594000000E+02  0.51100000000E-03 0.  1.
         11   -1    0    0    0    0 -0.00000000000E+00 -0.00000000000E+00 -0.45593999997E+02  0.45594000000E+02  0.51100000000E-03 0. -1.
    9900012    2    1    2    0    0  0.81183495393E+01 -0.80045182374E+01 -0.29778185931E+02  0.59301948680E+02  0.50000008484E+02 0.  0.
        -12    1    1    2    0    0 -0.81183495393E+01  0.80045182374E+01  0.29778185931E+02  0.31886051320E+02  0.00000000000E+00 0.  1.
         11    1    3    3    0    0  0.25714441096E+02 -0.20762829402E+01 -0.37218645166E+01  0.26065220265E+02  0.51100000000E-03 0.  1.
        -11    1    3    3    0    0 -0.13945902069E+02 -0.17020108847E+01 -0.13453207907E+02  0.19451833560E+02  0.51100000000E-03 0. -1.
        -12    1    3    3    0    0 -0.36501894876E+01 -0.42262244125E+01 -0.12603113507E+02  0.13784894855E+02  0.00000000000E+00 0.  1.
</event>
<event>
 7    1  0.1113211E-011  0.5930194E+02  0.7816164E-02  0.1266605E+00
        -11   -1    0    0    0    0  0.00000000000E+00  0.00000000000E+00  0.45593999997E+02  0.45594000000E+02  0.51100000000E-03 0. -1.
         11   -1    0    0    0    0 -0.00000000000E+00 -0.00000000000E+00 -0.45593999997E+02  0.45594000000E+02  0.51100000000E-03 0.  1.
    9900012    2    1    2    0    0  0.11084575495E+02  0.15446879042E+02  0.25597795345E+02  0.59301937017E+02  0.49999987214E+02 0.  0.
        -12    1    1    2    0    0 -0.11084575495E+02 -0.15446879042E+02 -0.25597795345E+02  0.31886062983E+02  0.00000000000E+00 0.  1.
         11    1    3    3    0    0 -0.98016501156E+01  0.11716048185E+02  0.10335161563E+02  0.18443256081E+02  0.51100000000E-03 0. -1.
        -11    1    3    3    0    0  0.14200307426E+02  0.13035389299E+02 -0.27900388546E+01  0.19477022931E+02  0.51100000000E-03 0.  1.
        -12    1    3    3    0    0  0.66859181840E+01 -0.93045584416E+01  0.18052672636E+02  0.21381658006E+02  0.00000000000E+00 0.  1.
</event>
<event>
 7    1  0.1113211E-011  0.5930197E+02  0.7816164E-02  0.1266605E+00
        -11   -1    0    0    0    0  0.00000000000E+00  0.00000000000E+00  0.45593999997E+02  0.45594000000E+02  0.51100000000E-03 0. -1.
         11   -1    0    0    0    0 -0.00000000000E+00 -0.00000000000E+00 -0.45593999997E+02  0.45594000000E+02  0.51100000000E-03 0.  1.
    9900012    2    1    2    0    0 -0.25897618353E+02 -0.11625667861E+02  0.14521581241E+02  0.59301966830E+02  0.50000041585E+02 0.  0.
        -12    1    1    2    0    0  0.25897618353E+02  0.11625667861E+02 -0.14521581241E+02  0.31886033170E+02  0.00000000000E+00 0.  1.
         11    1    3    3    0    0  0.37711568465E+01  0.57379874648E+01  0.54658162986E+01  0.87761763985E+01  0.51100000000E-03 0. -1.
        -11    1    3    3    0    0 -0.31475588152E+01 -0.21963741094E+02  0.19931898817E+00  0.22189023810E+02  0.51100000000E-03 0.  1.
        -12    1    3    3    0    0 -0.26521216385E+02  0.46000857680E+01  0.88564459546E+01  0.28336766621E+02  0.00000000000E+00 0.  1.
</event>
<event>
 7    1  0.1113211E-011  0.5930196E+02  0.7816164E-02  0.1266605E+00
        -11   -1    0    0    0    0  0.00000000000E+00  0.00000000000E+00  0.45593999997E+02  0.45594000000E+02  0.51100000000E-03 0.  1.
         11   -1    0    0    0    0 -0.00000000000E+00 -0.00000000000E+00 -0.45593999997E+02  0.45594000000E+02  0.51100000000E-03 0. -1.
    9900012    2    1    2    0    0 -0.27112395579E+01 -0.31111425933E+02  0.64380140181E+01  0.59301958100E+02  0.50000025665E+02 0.  0.
        -12    1    1    2    0    0  0.27112395579E+01  0.31111425933E+02 -0.64380140181E+01  0.31886041900E+02  0.00000000000E+00 0.  1.
         11    1    3    3    0    0 -0.17309856284E+02 -0.28664164389E+02  0.69081442703E+01  0.34190465078E+02  0.51100000000E-03 0. -1.
        -11    1    3    3    0    0  0.87422850133E+00  0.83017484710E+00  0.83728520795E+01  0.84592031513E+01  0.51100000000E-03 0.  1.
         12    1    3    3    0    0  0.13724388225E+02 -0.32774363909E+01 -0.88429823317E+01  0.16652289871E+02  0.00000000000E+00 0. -1.
</event>
<event>
 7    1  0.1113211E-011  0.5930193E+02  0.7816164E-02  0.1266605E+00
        -11   -1    0    0    0    0  0.00000000000E+00  0.00000000000E+00  0.45593999997E+02  0.45594000000E+02  0.51100000000E-03 0. -1.
         11   -1    0    0    0    0 -0.00000000000E+00 -0.00000000000E+00 -0.45593999997E+02  0.45594000000E+02  0.51100000000E-03 0.  1.
    9900012    2    1    2    0    0  0.33485248967E+01 -0.31479982476E+02 -0.38104544787E+01  0.59301929703E+02  0.49999973874E+02 0.  0.
        -12    1    1    2    0    0 -0.33485248967E+01  0.31479982476E+02  0.38104544787E+01  0.31886070297E+02  0.00000000000E+00 0.  1.
         11    1    3    3    0    0  0.92796791494E+01 -0.12949796062E+02  0.17129484025E+02  0.23392923853E+02  0.51100000000E-03 0. -1.
        -11    1    3    3    0    0 -0.13042206972E+02 -0.56304617259E+01 -0.12561752669E+02  0.18963092900E+02  0.51100000000E-03 0.  1.
         12    1    3    3    0    0  0.71110527197E+01 -0.12899724688E+02 -0.83781858345E+01  0.16945912950E+02  0.00000000000E+00 0. -1.
</event>
<event>
 7    1  0.1113211E-011  0.5930194E+02  0.7816164E-02  0.1266605E+00
        -11   -1    0    0    0    0  0.00000000000E+00  0.00000000000E+00  0.45593999997E+02  0.45594000000E+02  0.51100000000E-03 0.  1.
         11   -1    0    0    0    0 -0.00000000000E+00 -0.00000000000E+00 -0.45593999997E+02  0.45594000000E+02  0.51100000000E-03 0. -1.
    9900012    2    1    2    0    0 -0.14727794927E+02  0.28186573392E+02  0.23086174954E+01  0.59301943835E+02  0.49999999649E+02 0.  0.
        -12    1    1    2    0    0  0.14727794927E+02 -0.28186573392E+02 -0.23086174954E+01  0.31886056165E+02  0.00000000000E+00 0.  1.
         11    1    3    3    0    0  0.19312621725E+01 -0.73153698589E+00 -0.79410310995E+01  0.82051748991E+01  0.51100000000E-03 0. -1.
        -11    1    3    3    0    0 -0.25286242474E+02  0.17876505801E+02  0.17234562648E+02  0.35440000960E+02  0.51100000000E-03 0.  1.
        -12    1    3    3    0    0  0.86271853744E+01  0.11041604577E+02 -0.69849140535E+01  0.15656767976E+02  0.00000000000E+00 0.  1.
</event>
<event>
 7    1  0.1113211E-011  0.5930197E+02  0.7816164E-02  0.1266605E+00
        -11   -1    0    0    0    0  0.00000000000E+00  0.00000000000E+00  0.45593999997E+02  0.45594000000E+02  0.51100000000E-03 0.  1.
         11   -1    0    0    0    0 -0.00000000000E+00 -0.00000000000E+00 -0.45593999997E+02  0.45594000000E+02  0.51100000000E-03 0. -1.
    9900012    2    1    2    0    0  0.19623462119E+02 -0.19364912791E+02 -0.16019956892E+02  0.59301966510E+02  0.50000041002E+02 0.  0.
        -12    1    1    2    0    0 -0.19623462119E+02  0.19364912791E+02  0.16019956892E+02  0.31886033490E+02  0.00000000000E+00 0.  1.
         11    1    3    3    0    0 -0.88987337278E+01 -0.20527557898E+02 -0.12135754107E+02  0.25452792052E+02  0.51100000000E-03 0. -1.
        -11    1    3    3    0    0  0.11250459565E+02  0.74640313896E+01  0.36406627443E+01  0.13983527112E+02  0.51100000000E-03 0.  1.
        -12    1    3    3    0    0  0.17271736282E+02 -0.63013862822E+01 -0.75248655290E+01  0.19865647347E+02  0.00000000000E+00 0.  1.
</event>
<event>
 7    1  0.1113211E-011  0.5930195E+02  0.7816164E-02  0.1266605E+00
        -11   -1    0    0    0    0  0.00000000000E+00  0.00000000000E+00  0.45593999997E+02  0.45594000000E+02  0.51100000000E-03 0. -1.
         11   -1    0    0    0    0 -0.00000000000E+00 -0.00000000000E+00 -0.45593999997E+02  0.45594000000E+02  0.51100000000E-03 0.  1.
    9900012    2    1    2    0    0 -0.96164568054E+01  0.23181334589E+02  0.19668999239E+02  0.59301952175E+02  0.50000014859E+02 0.  0.
        -12    1    1    2    0    0  0.96164568054E+01 -0.23181334589E+02 -0.19668999239E+02  0.31886047825E+02  0.00000000000E+00 0.  1.
         11    1    3    3    0    0 -0.98295660519E+01  0.24775882945E+02  0.33527170812E+02  0.42831482899E+02  0.51100000000E-03 0. -1.
        -11    1    3    3    0    0  0.23613313197E+01 -0.22590470205E+01 -0.13841214201E+02  0.14221757622E+02  0.51100000000E-03 0.  1.
        -12    1    3    3    0    0 -0.21482220731E+01  0.66449866463E+00 -0.16957371610E-01  0.22487116541E+01  0.00000000000E+00 0.  1.
</event>
<event>
 7    1  0.1113211E-011  0.5930195E+02  0.7816164E-02  0.1266605E+00
        -11   -1    0    0    0    0  0.00000000000E+00  0.00000000000E+00  0.45593999997E+02  0.45594000000E+02  0.51100000000E-03 0. -1.
         11   -1    0    0    0    0 -0.00000000000E+00 -0.00000000000E+00 -0.45593999997E+02  0.45594000000E+02  0.51100000000E-03 0.  1.
    9900012    2    1    2    0    0  0.29698406023E+02 -0.11607044605E+02 -0.40127973403E-01  0.59301946387E+02  0.50000004302E+02 0.  0.
        -12    1    1    2    0    0 -0.29698406023E+02  0.11607044605E+02  0.40127973403E-01  0.31886053613E+02  0.00000000000E+00 0.  1.
         11    1    3    3    0    0  0.41728639784E+01 -0.88268335508E+01  0.66899145993E+01  0.11835571043E+02  0.51100000000E-03 0.  1.
        -11    1    3    3    0    0  0.34509457909E+02  0.50688948498E+01 -0.67999978431E+01  0.35536408810E+02  0.51100000000E-03 0. -1.
        -12    1    3    3    0    0 -0.89839158644E+01 -0.78491059039E+01  0.69955270345E-01  0.11929966533E+02  0.00000000000E+00 0.  1.
</event>
<event>
 7    1  0.1113211E-011  0.5930198E+02  0.7816164E-02  0.1266605E+00
        -11   -1    0    0    0    0  0.00000000000E+00  0.00000000000E+00  0.45593999997E+02  0.45594000000E+02  0.51100000000E-03 0.  1.
         11   -1    0    0    0    0 -0.00000000000E+00 -0.00000000000E+00 -0.45593999997E+02  0.45594000000E+02  0.51100000000E-03 0. -1.
    9900012    2    1    2    0    0 -0.66900872782E+01 -0.11224788925E+02 -0.29085478346E+02  0.59301981045E+02  0.50000067510E+02 0.  0.
        -12    1    1    2    0    0  0.66900872782E+01  0.11224788925E+02  0.29085478346E+02  0.31886018955E+02  0.00000000000E+00 0.  1.
         11    1    3    3    0    0 -0.17093421860E+02  0.26627760647E+01 -0.29108868614E+02  0.33861507343E+02  0.51100000000E-03 0. -1.
        -11    1    3    3    0    0  0.14453380619E+02 -0.15377597388E+02 -0.37077124226E+00  0.21107064796E+02  0.51100000000E-03 0.  1.
        -12    1    3    3    0    0 -0.40500460368E+01  0.14900323978E+01  0.39416151051E+00  0.43334089056E+01  0.00000000000E+00 0.  1.
</event>
<event>
 7    1  0.1113211E-011  0.5930192E+02  0.7816164E-02  0.1266605E+00
        -11   -1    0    0    0    0  0.00000000000E+00  0.00000000000E+00  0.45593999997E+02  0.45594000000E+02  0.51100000000E-03 0. -1.
         11   -1    0    0    0    0 -0.00000000000E+00 -0.00000000000E+00 -0.45593999997E+02  0.45594000000E+02  0.51100000000E-03 0.  1.
    9900012    2    1    2    0    0 -0.24675242482E+02 -0.15318681945E+02 -0.13160252334E+02  0.59301923892E+02  0.49999963277E+02 0.  0.
        -12    1    1    2    0    0  0.24675242482E+02  0.15318681945E+02  0.13160252334E+02  0.31886076108E+02  0.00000000000E+00 0.  1.
         11    1    3    3    0    0 -0.38502626196E+01 -0.16914784017E+02  0.42080184530E+00  0.17352565085E+02  0.51100000000E-03 0. -1.
        -11    1    3    3    0    0 -0.19256511439E+02  0.11529057609E+02 -0.19964346622E+02  0.30038434355E+02  0.51100000000E-03 0.  1.
        -12    1    3    3    0    0 -0.15684684230E+01 -0.99329555372E+01  0.63832924427E+01  0.11910924452E+02  0.00000000000E+00 0.  1.
</event>
<event>
 7    1  0.1113211E-011  0.5930191E+02  0.7816164E-02  0.1266605E+00
        -11   -1    0    0    0    0  0.00000000000E+00  0.00000000000E+00  0.45593999997E+02  0.45594000000E+02  0.51100000000E-03 0. -1.
         11   -1    0    0    0    0 -0.00000000000E+00 -0.00000000000E+00 -0.45593999997E+02  0.45594000000E+02  0.51100000000E-03 0.  1.
    9900012    2    1    2    0    0 -0.14672039551E+02 -0.45420876170E+01  0.27943213131E+02  0.59301914248E+02  0.49999945688E+02 0.  0.
        -12    1    1    2    0    0  0.14672039551E+02  0.45420876170E+01 -0.27943213131E+02  0.31886085752E+02  0.00000000000E+00 0.  1.
         11    1    3    3    0    0  0.83494601320E+01 -0.13931802135E+02  0.77324991940E+01  0.17988889328E+02  0.51100000000E-03 0. -1.
        -11    1    3    3    0    0 -0.13864422450E+02  0.18387954397E+02  0.14841500906E+02  0.27397248515E+02  0.51100000000E-03 0.  1.
         12    1    3    3    0    0 -0.91570772327E+01 -0.89982398792E+01  0.53692130314E+01  0.13915776405E+02  0.00000000000E+00 0. -1.
</event>
<event>
 7    1  0.1113211E-011  0.5930195E+02  0.7816164E-02  0.1266605E+00
        -11   -1    0    0    0    0  0.00000000000E+00  0.00000000000E+00  0.45593999997E+02  0.45594000000E+02  0.51100000000E-03 0.  1.
         11   -1    0    0    0    0 -0.00000000000E+00 -0.00000000000E+00 -0.45593999997E+02  0.45594000000E+02  0.51100000000E-03 0. -1.
    9900012    2    1    2    0    0 -0.29592032430E+02 -0.98896428601E+01  0.65747162582E+01  0.59301947985E+02  0.50000007217E+02 0.  0.
        -12    1    1    2    0    0  0.29592032430E+02  0.98896428601E+01 -0.65747162582E+01  0.31886052015E+02  0.00000000000E+00 0.  1.
         11    1    3    3    0    0  0.82625064883E+01 -0.10397015410E+02 -0.38586454149E+01  0.13829536782E+02  0.51100000000E-03 0. -1.
        -11    1    3    3    0    0 -0.23406555959E+02  0.68435298495E+01  0.15508292283E+02  0.28899963537E+02  0.51100000000E-03 0.  1.
         12    1    3    3    0    0 -0.14447982960E+02 -0.63361572997E+01 -0.50749306100E+01  0.16572447665E+02  0.00000000000E+00 0. -1.
</event>
<event>
 7    1  0.1113211E-011  0.5930193E+02  0.7816164E-02  0.1266605E+00
        -11   -1    0    0    0    0  0.00000000000E+00  0.00000000000E+00  0.45593999997E+02  0.45594000000E+02  0.51100000000E-03 0. -1.
         11   -1    0    0    0    0 -0.00000000000E+00 -0.00000000000E+00 -0.45593999997E+02  0.45594000000E+02  0.51100000000E-03 0.  1.
    9900012    2    1    2    0    0 -0.21778796068E+02  0.22506025503E+02  0.59903326865E+01  0.59301933641E+02  0.49999981058E+02 0.  0.
        -12    1    1    2    0    0  0.21778796068E+02 -0.22506025503E+02 -0.59903326865E+01  0.31886066359E+02  0.00000000000E+00 0.  1.
         11    1    3    3    0    0 -0.95307337647E+01  0.30133368080E+02 -0.11600041729E+02  0.33666240157E+02  0.51100000000E-03 0. -1.
        -11    1    3    3    0    0 -0.40112309559E+01 -0.41240912896E+01  0.15373024836E+02  0.16414261958E+02  0.51100000000E-03 0.  1.
         12    1    3    3    0    0 -0.82368313478E+01 -0.35032512879E+01  0.22173495795E+01  0.92214315263E+01  0.00000000000E+00 0. -1.
</event>
<event>
 7    1  0.1113211E-011  0.5930195E+02  0.7816164E-02  0.1266605E+00
        -11   -1    0    0    0    0  0.00000000000E+00  0.00000000000E+00  0.45593999997E+02  0.45594000000E+02  0.51100000000E-03 0.  1.
         11   -1    0    0    0    0 -0.00000000000E+00 -0.00000000000E+00 -0.45593999997E+02  0.45594000000E+02  0.51100000000E-03 0. -1.
    9900012    2    1    2    0    0  0.70944320806E+01  0.29301686512E+02 -0.10382706356E+02  0.59301946775E+02  0.50000005010E+02 0.  0.
        -12    1    1    2    0    0 -0.70944320806E+01 -0.29301686512E+02  0.10382706356E+02  0.31886053225E+02  0.00000000000E+00 0.  1.
         11    1    3    3    0    0 -0.13310943915E+02  0.17096009928E+02 -0.10635100787E+02  0.24136282903E+02  0.51100000000E-03 0. -1.
        -11    1    3    3    0    0  0.80742178744E+01  0.16277086587E+02  0.82068925751E+01  0.19937141923E+02  0.51100000000E-03 0.  1.
         12    1    3    3    0    0  0.12331158121E+02 -0.40714100037E+01 -0.79544981436E+01  0.15228521949E+02  0.00000000000E+00 0. -1.
</event>
<event>
 7    1  0.1113211E-011  0.5930194E+02  0.7816164E-02  0.1266605E+00
        -11   -1    0    0    0    0  0.00000000000E+00  0.00000000000E+00  0.45593999997E+02  0.45594000000E+02  0.51100000000E-03 0. -1.
         11   -1    0    0    0    0 -0.00000000000E+00 -0.00000000000E+00 -0.45593999997E+02  0.45594000000E+02  0.51100000000E-03 0.  1.
    9900012    2    1    2    0    0 -0.59351601951E+01 -0.21925413787E+02 -0.22377911537E+02  0.59301940020E+02  0.49999992691E+02 0.  0.
        -12    1    1    2    0    0  0.59351601951E+01  0.21925413787E+02  0.22377911537E+02  0.31886059980E+02  0.00000000000E+00 0.  1.
         11    1    3    3    0    0 -0.15463202070E+02 -0.18574354028E+02 -0.18222206366E+02  0.30268235015E+02  0.51100000000E-03 0. -1.
        -11    1    3    3    0    0  0.82491852540E+01  0.10845860196E+02  0.14779116719E+01  0.13706420536E+02  0.51100000000E-03 0.  1.
        -12    1    3    3    0    0  0.12788566206E+01 -0.14196919955E+02 -0.56336168428E+01  0.15327284469E+02  0.00000000000E+00 0.  1.
</event>
<event>
 7    1  0.1113211E-011  0.5930194E+02  0.7816164E-02  0.1266605E+00
        -11   -1    0    0    0    0  0.00000000000E+00  0.00000000000E+00  0.45593999997E+02  0.45594000000E+02  0.51100000000E-03 0.  1.
         11   -1    0    0    0    0 -0.00000000000E+00 -0.00000000000E+00 -0.45593999997E+02  0.45594000000E+02  0.51100000000E-03 0. -1.
    9900012    2    1    2    0    0  0.79893926619E+01 -0.30557092896E+02  0.43765967120E+01  0.59301938466E+02  0.49999989857E+02 0.  0.
        -12    1    1    2    0    0 -0.79893926619E+01  0.30557092896E+02 -0.43765967120E+01  0.31886061534E+02  0.00000000000E+00 0.  1.
         11    1    3    3    0    0 -0.19473069045E+01 -0.32945880338E+02 -0.19841825495E+00  0.33003975601E+02  0.51100000000E-03 0. -1.
        -11    1    3    3    0    0  0.15182898946E+02 -0.28888425531E+01  0.87550789251E+01  0.17762804929E+02  0.51100000000E-03 0.  1.
         12    1    3    3    0    0 -0.52461993795E+01  0.52776299951E+01 -0.41800639581E+01  0.85351579358E+01  0.00000000000E+00 0. -1.
</event>
<event>
 7    1  0.1113211E-011  0.5930197E+02  0.7816164E-02  0.1266605E+00
        -11   -1    0    0    0    0  0.00000000000E+00  0.00000000000E+00  0.45593999997E+02  0.45594000000E+02  0.51100000000E-03 0. -1.
         11   -1    0    0    0    0 -0.00000000000E+00 -0.00000000000E+00 -0.45593999997E+02  0.45594000000E+02  0.51100000000E-03 0.  1.
    9900012    2    1    2    0    0 -0.26532548490E+02 -0.11892216864E+02  0.13088844484E+02  0.59301971692E+02  0.50000050453E+02 0.  0.
        -12    1    1    2    0    0  0.26532548490E+02  0.11892216864E+02 -0.13088844484E+02  0.31886028308E+02  0.00000000000E+00 0.  1.
         11    1    3    3    0    0  0.62057460837E+01 -0.77674527289E+01  0.18454426904E+02  0.20962120097E+02  0.51100000000E-03 0. -1.
        -11    1    3    3    0    0 -0.26561052238E+02 -0.30572890245E+00  0.35958496126E+01  0.26805094681E+02  0.51100000000E-03 0.  1.
        -12    1    3    3    0    0 -0.61772423359E+01 -0.38190352330E+01 -0.89614320325E+01  0.11534756914E+02  0.00000000000E+00 0.  1.
</event>
<event>
 7    1  0.1113211E-011  0.5930195E+02  0.7816164E-02  0.1266605E+00
        -11   -1    0    0    0    0  0.00000000000E+00  0.00000000000E+00  0.45593999997E+02  0.45594000000E+02  0.51100000000E-03 0. -1.
         11   -1    0    0    0    0 -0.00000000000E+00 -0.00000000000E+00 -0.45593999997E+02  0.45594000000E+02  0.51100000000E-03 0.  1.
    9900012    2    1    2    0    0  0.47193266859E+01  0.24108126341E+02  0.20328470146E+02  0.59301945077E+02  0.50000001914E+02 0.  0.
        -12    1    1    2    0    0 -0.47193266859E+01 -0.24108126341E+02 -0.20328470146E+02  0.31886054923E+02  0.00000000000E+00 0.  1.
         11    1    3    3    0    0 -0.52364088796E+01  0.36027999015E+01  0.56026785297E+01  0.84729069423E+01  0.51100000000E-03 0. -1.
        -11    1    3    3    0    0  0.12479022633E+01 -0.12826102902E+02 -0.10684889601E+01  0.12930887233E+02  0.51100000000E-03 0.  1.
        -12    1    3    3    0    0  0.87078333022E+01  0.33331429342E+02  0.15794280577E+02  0.37898150901E+02  0.00000000000E+00 0.  1.
</event>
<event>
 7    1  0.1113211E-011  0.5930193E+02  0.7816164E-02  0.1266605E+00
        -11   -1    0    0    0    0  0.00000000000E+00  0.00000000000E+00  0.45593999997E+02  0.45594000000E+02  0.51100000000E-03 0. -1.
         11   -1    0    0    0    0 -0.00000000000E+00 -0.00000000000E+00 -0.45593999997E+02  0.45594000000E+02  0.51100000000E-03 0.  1.
    9900012    2    1    2    0    0  0.14224290225E+02  0.11934107997E+02  0.25922348669E+02  0.59301928956E+02  0.49999972513E+02 0.  0.
        -12    1    1    2    0    0 -0.14224290225E+02 -0.11934107997E+02 -0.25922348669E+02  0.31886071044E+02  0.00000000000E+00 0.  1.
         11    1    3    3    0    0  0.14271832218E+02  0.22516016687E+02  0.15038597218E+02  0.30607443683E+02  0.51100000000E-03 0. -1.
        -11    1    3    3    0    0 -0.11781954250E+02 -0.82261689695E+01  0.41272637533E+01  0.14950538726E+02  0.51100000000E-03 0.  1.
         12    1    3    3    0    0  0.11734412257E+02 -0.23557397201E+01  0.67564876983E+01  0.13743946546E+02  0.00000000000E+00 0. -1.
</event>
<event>
 7    1  0.1113211E-011  0.5930192E+02  0.7816164E-02  0.1266605E+00
        -11   -1    0    0    0    0  0.00000000000E+00  0.00000000000E+00  0.45593999997E+02  0.45594000000E+02  0.51100000000E-03 0.  1.
         11   -1    0    0    0    0 -0.00000000000E+00 -0.00000000000E+00 -0.45593999997E+02  0.45594000000E+02  0.51100000000E-03 0. -1.
    9900012    2    1    2    0    0 -0.20957122429E+02  0.19627266452E+02 -0.13866912225E+02  0.59301924301E+02  0.49999964023E+02 0.  0.
        -12    1    1    2    0    0  0.20957122429E+02 -0.19627266452E+02  0.13866912225E+02  0.31886075699E+02  0.00000000000E+00 0.  1.
         11    1    3    3    0    0 -0.24185176332E+02 -0.84732087561E+01 -0.12130591454E+02  0.28352588420E+02  0.51100000000E-03 0. -1.
        -11    1    3    3    0    0  0.30756696658E+01  0.56756037074E+01  0.42622002916E+01  0.77355396013E+01  0.51100000000E-03 0.  1.
         12    1    3    3    0    0  0.15238423762E+00  0.22424871500E+02 -0.59985210623E+01  0.23213796279E+02  0.00000000000E+00 0. -1.
</event>
<event>
 7    1  0.1113211E-011  0.5930199E+02  0.7816164E-02  0.1266605E+00
        -11   -1    0    0    0    0  0.00000000000E+00  0.00000000000E+00  0.45593999997E+02  0.45594000000E+02  0.51100000000E-03 0. -1.
         11   -1    0    0    0    0 -0.00000000000E+00 -0.00000000000E+00 -0.45593999997E+02  0.45594000000E+02  0.51100000000E-03 0.  1.
    9900012    2    1    2    0    0  0.42501449113E+00  0.81516983524E+01  0.30823481111E+02  0.59301987218E+02  0.50000078768E+02 0.  0.
        -12    1    1    2    0    0 -0.42501449113E+00 -0.81516983524E+01 -0.30823481111E+02  0.31886012782E+02  0.00000000000E+00 0.  1.
         11    1    3    3    0    0 -0.20559520906E+01 -0.13848932836E+01  0.32631449375E+02  0.32725469546E+02  0.51100000000E-03 0. -1.
        -11    1    3    3    0    0  0.84350539158E+01  0.15330387667E+02  0.16551074493E+01  0.17575844262E+02  0.51100000000E-03 0.  1.
        -12    1    3    3    0    0 -0.59540873341E+01 -0.57937960312E+01 -0.34630757136E+01  0.90006734099E+01  0.00000000000E+00 0.  1.
</event>
<event>
 7    1  0.1113211E-011  0.5930195E+02  0.7816164E-02  0.1266605E+00
        -11   -1    0    0    0    0  0.00000000000E+00  0.00000000000E+00  0.45593999997E+02  0.45594000000E+02  0.51100000000E-03 0. -1.
         11   -1    0    0    0    0 -0.00000000000E+00 -0.00000000000E+00 -0.45593999997E+02  0.45594000000E+02  0.51100000000E-03 0.  1.
    9900012    2    1    2    0    0  0.14297939353E+02  0.26825006506E+02 -0.96285128917E+01  0.59301948123E+02  0.50000007469E+02 0.  0.
        -12    1    1    2    0    0 -0.14297939353E+02 -0.26825006506E+02  0.96285128917E+01  0.31886051877E+02  0.00000000000E+00 0.  1.
         11    1    3    3    0    0  0.40641753375E+01  0.61957125928E+00  0.82095372043E+01  0.91813882986E+01  0.51100000000E-03 0. -1.
        -11    1    3    3    0    0  0.13454654882E+02  0.32011743071E+02 -0.23050998303E+02  0.41678867013E+02  0.51100000000E-03 0.  1.
        -12    1    3    3    0    0 -0.32208908669E+01 -0.58063078240E+01  0.52129482071E+01  0.84416928121E+01  0.00000000000E+00 0.  1.
</event>
<event>
 7    1  0.1113211E-011  0.5930201E+02  0.7816164E-02  0.1266605E+00
        -11   -1    0    0    0    0  0.00000000000E+00  0.00000000000E+00  0.45593999997E+02  0.45594000000E+02  0.51100000000E-03 0.  1.
         11   -1    0    0    0    0 -0.00000000000E+00 -0.00000000000E+00 -0.45593999997E+02  0.45594000000E+02  0.51100000000E-03 0. -1.
    9900012    2    1    2    0    0  0.36666230522E+01 -0.28351900055E+00 -0.31673204362E+02  0.59302009625E+02  0.50000119634E+02 0.  0.
        -12    1    1    2    0    0 -0.36666230522E+01  0.28351900055E+00  0.31673204362E+02  0.31885990375E+02  0.00000000000E+00 0.  1.
         11    1    3    3    0    0 -0.91540687453E+01 -0.97977970752E+01 -0.34245806066E+02  0.36777289670E+02  0.51100000000E-03 0. -1.
        -11    1    3    3    0    0  0.65590109656E+01  0.55643506078E+01  0.91955093473E+01  0.12591267408E+02  0.51100000000E-03 0.  1.
         12    1    3    3    0    0  0.62616808319E+01  0.39499274669E+01 -0.66229076434E+01  0.99334525461E+01  0.00000000000E+00 0. -1.
</event>
<event>
 7    1  0.1113211E-011  0.5930194E+02  0.7816164E-02  0.1266605E+00
        -11   -1    0    0    0    0  0.00000000000E+00  0.00000000000E+00  0.45593999997E+02  0.45594000000E+02  0.51100000000E-03 0.  1.
         11   -1    0    0    0    0 -0.00000000000E+00 -0.00000000000E+00 -0.45593999997E+02  0.45594000000E+02  0.51100000000E-03 0. -1.
    9900012    2    1    2    0    0  0.44212321670E+01 -0.25861519234E+02 -0.18120570877E+02  0.59301944116E+02  0.50000000160E+02 0.  0.
        -12    1    1    2    0    0 -0.44212321670E+01  0.25861519234E+02  0.18120570877E+02  0.31886055884E+02  0.00000000000E+00 0.  1.
         11    1    3    3    0    0  0.15678981058E+01 -0.20949489877E+02  0.12748237441E+01  0.21046724363E+02  0.51100000000E-03 0. -1.
        -11    1    3    3    0    0  0.43000907290E+01 -0.15483165804E+02 -0.22027277340E+02  0.27265732172E+02  0.51100000000E-03 0.  1.
        -12    1    3    3    0    0 -0.14467566678E+01  0.10571136447E+02  0.26318827188E+01  0.10989487581E+02  0.00000000000E+00 0.  1.
</event>
<event>
 7    1  0.1113211E-011  0.5930193E+02  0.7816164E-02  0.1266605E+00
        -11   -1    0    0    0    0  0.00000000000E+00  0.00000000000E+00  0.45593999997E+02  0.45594000000E+02  0.51100000000E-03 0.  1.
         11   -1    0    0    0    0 -0.00000000000E+00 -0.00000000000E+00 -0.45593999997E+02  0.45594000000E+02  0.51100000000E-03 0. -1.
    9900012    2    1    2    0    0 -0.41520059328E+01  0.28692117668E+02 -0.13275706380E+02  0.59301934871E+02  0.49999983301E+02 0.  0.
        -12    1    1    2    0    0  0.41520059328E+01 -0.28692117668E+02  0.13275706380E+02  0.31886065129E+02  0.00000000000E+00 0.  1.
         11    1    3    3    0    0 -0.30075722190E+01 -0.27417728034E+01 -0.18536995318E+02  0.18978487939E+02  0.51100000000E-03 0. -1.
        -11    1    3    3    0    0 -0.10444247118E+02  0.84425329034E+01  0.75680994534E+01  0.15415407529E+02  0.51100000000E-03 0.  1.
        -12    1    3    3    0    0  0.92998134045E+01  0.22991357568E+02 -0.23068105150E+01  0.24908039403E+02  0.00000000000E+00 0.  1.
</event>
<event>
 7    1  0.1113211E-011  0.5930194E+02  0.7816164E-02  0.1266605E+00
        -11   -1    0    0    0    0  0.00000000000E+00  0.00000000000E+00  0.45593999997E+02  0.45594000000E+02  0.51100000000E-03 0.  1.
         11   -1    0    0    0    0 -0.00000000000E+00 -0.00000000000E+00 -0.45593999997E+02  0.45594000000E+02  0.51100000000E-03 0. -1.
    9900012    2    1    2    0    0 -0.15005156420E+01 -0.30285997083E+02 -0.98604039885E+01  0.59301941396E+02  0.49999995200E+02 0.  0.
        -12    1    1    2    0    0  0.15005156420E+01  0.30285997083E+02  0.98604039885E+01  0.31886058604E+02  0.00000000000E+00 0.  1.
         11    1    3    3    0    0 -0.11322495884E+02 -0.18844119737E+02 -0.13941661381E+02  0.26032089506E+02  0.51100000000E-03 0. -1.
        -11    1    3    3    0    0  0.84989861602E+01 -0.20658182998E+02 -0.15444242382E+01  0.22391483582E+02  0.51100000000E-03 0.  1.
        -12    1    3    3    0    0  0.13229940815E+01  0.92163056528E+01  0.56256816309E+01  0.10878368308E+02  0.00000000000E+00 0.  1.
</event>
<event>
 7    1  0.1113211E-011  0.5930219E+02  0.7816164E-02  0.1266604E+00
        -11   -1    0    0    0    0  0.00000000000E+00  0.00000000000E+00  0.45593999997E+02  0.45594000000E+02  0.51100000000E-03 0.  1.
         11   -1    0    0    0    0 -0.00000000000E+00 -0.00000000000E+00 -0.45593999997E+02  0.45594000000E+02  0.51100000000E-03 0. -1.
    9900012    2    1    2    0    0 -0.11678579603E+02 -0.18868507857E+02 -0.22897485670E+02  0.59302193435E+02  0.50000454857E+02 0.  0.
        -12    1    1    2    0    0  0.11678579603E+02  0.18868507857E+02  0.22897485670E+02  0.31885806565E+02  0.00000000000E+00 0.  1.
         11    1    3    3    0    0 -0.29945458757E+01 -0.11028959173E+02 -0.17129524895E+02  0.20591888423E+02  0.51100000000E-03 0. -1.
        -11    1    3    3    0    0  0.75606756674E+01 -0.52468859059E+01  0.11587518447E+02  0.14797439383E+02  0.51100000000E-03 0.  1.
        -12    1    3    3    0    0 -0.16244709394E+02 -0.25926627783E+01 -0.17355479222E+02  0.23912865630E+02  0.00000000000E+00 0.  1.
</event>
<event>
 7    1  0.1113211E-011  0.5930193E+02  0.7816164E-02  0.1266605E+00
        -11   -1    0    0    0    0  0.00000000000E+00  0.00000000000E+00  0.45593999997E+02  0.45594000000E+02  0.51100000000E-03 0.  1.
         11   -1    0    0    0    0 -0.00000000000E+00 -0.00000000000E+00 -0.45593999997E+02  0.45594000000E+02  0.51100000000E-03 0. -1.
    9900012    2    1    2    0    0  0.11597334102E+02  0.27759438351E+02  0.10565831710E+02  0.59301931324E+02  0.49999976832E+02 0.  0.
        -12    1    1    2    0    0 -0.11597334102E+02 -0.27759438351E+02 -0.10565831710E+02  0.31886068676E+02  0.00000000000E+00 0.  1.
         11    1    3    3    0    0  0.29302387530E+02  0.13089638110E+02 -0.20403646415E+01  0.32157917049E+02  0.51100000000E-03 0.  1.
        -11    1    3    3    0    0 -0.12964427835E+02  0.12455176855E+02  0.12525306179E+02  0.21910981601E+02  0.51100000000E-03 0. -1.
        -12    1    3    3    0    0 -0.47406255925E+01  0.22146233864E+01  0.80890172149E-01  0.52330326745E+01  0.00000000000E+00 0.  1.
</event>
<event>
 7    1  0.1113211E-011  0.5930194E+02  0.7816164E-02  0.1266605E+00
        -11   -1    0    0    0    0  0.00000000000E+00  0.00000000000E+00  0.45593999997E+02  0.45594000000E+02  0.51100000000E-03 0. -1.
         11   -1    0    0    0    0 -0.00000000000E+00 -0.00000000000E+00 -0.45593999997E+02  0.45594000000E+02  0.51100000000E-03 0.  1.
    9900012    2    1    2    0    0  0.14702706643E+02  0.20418669494E+02 -0.19586449040E+02  0.59301942976E+02  0.49999998082E+02 0.  0.
        -12    1    1    2    0    0 -0.14702706643E+02 -0.20418669494E+02  0.19586449040E+02  0.31886057024E+02  0.00000000000E+00 0.  1.
         11    1    3    3    0    0  0.20965326536E+02 -0.33572898717E+01 -0.19722855708E+02  0.28979429766E+02  0.51100000000E-03 0. -1.
        -11    1    3    3    0    0 -0.11142940560E+02  0.16970243704E+02 -0.44364798399E+01  0.20780679713E+02  0.51100000000E-03 0.  1.
         12    1    3    3    0    0  0.48803206675E+01  0.68057156613E+01  0.45728865075E+01  0.95418334973E+01  0.00000000000E+00 0. -1.
</event>
<event>
 7    1  0.1113211E-011  0.5930190E+02  0.7816164E-02  0.1266605E+00
        -11   -1    0    0    0    0  0.00000000000E+00  0.00000000000E+00  0.45593999997E+02  0.45594000000E+02  0.51100000000E-03 0. -1.
         11   -1    0    0    0    0 -0.00000000000E+00 -0.00000000000E+00 -0.45593999997E+02  0.45594000000E+02  0.51100000000E-03 0.  1.
    9900012    2    1    2    0    0 -0.15074073653E+02  0.21843605154E+02  0.17673506724E+02  0.59301896090E+02  0.49999912574E+02 0.  0.
        -12    1    1    2    0    0  0.15074073653E+02 -0.21843605154E+02 -0.17673506724E+02  0.31886103910E+02  0.00000000000E+00 0.  1.
         11    1    3    3    0    0 -0.13349375493E+01  0.24736562297E+02  0.35756012677E+01  0.25029272806E+02  0.51100000000E-03 0. -1.
        -11    1    3    3    0    0 -0.70645083580E+01 -0.13291019554E+02 -0.60903455909E+00  0.15064176130E+02  0.51100000000E-03 0.  1.
        -12    1    3    3    0    0 -0.66746277455E+01  0.10398062411E+02  0.14706940016E+02  0.19208447154E+02  0.00000000000E+00 0.  1.
</event>
<event>
 7    1  0.1113211E-011  0.5930194E+02  0.7816164E-02  0.1266605E+00
        -11   -1    0    0    0    0  0.00000000000E+00  0.00000000000E+00  0.45593999997E+02  0.45594000000E+02  0.51100000000E-03 0. -1.
         11   -1    0    0    0    0 -0.00000000000E+00 -0.00000000000E+00 -0.45593999997E+02  0.45594000000E+02  0.51100000000E-03 0.  1.
    9900012    2    1    2    0    0 -0.12251530567E+02  0.19538536384E+02  0.22019682816E+02  0.59301939777E+02  0.49999992247E+02 0.  0.
        -12    1    1    2    0    0  0.12251530567E+02 -0.19538536384E+02 -0.22019682816E+02  0.31886060223E+02  0.00000000000E+00 0.  1.
         11    1    3    3    0    0 -0.29926815295E+01 -0.64913162926E+01 -0.60775862854E+01  0.93824509199E+01  0.51100000000E-03 0. -1.
        -11    1    3    3    0    0  0.86036350070E+01  0.19830655238E+02  0.10267818206E+02  0.23931266441E+02  0.51100000000E-03 0.  1.
         12    1    3    3    0    0 -0.17862484044E+02  0.61991974382E+01  0.17829450895E+02  0.25988222416E+02  0.00000000000E+00 0. -1.
</event>
<event>
 7    1  0.1113211E-011  0.5930191E+02  0.7816164E-02  0.1266605E+00
        -11   -1    0    0    0    0  0.00000000000E+00  0.00000000000E+00  0.45593999997E+02  0.45594000000E+02  0.51100000000E-03 0.  1.
         11   -1    0    0    0    0 -0.00000000000E+00 -0.00000000000E+00 -0.45593999997E+02  0.45594000000E+02  0.51100000000E-03 0. -1.
    9900012    2    1    2    0    0  0.20234074096E+02  0.18524664167E+02 -0.16252434967E+02  0.59301912448E+02  0.49999942406E+02 0.  0.
        -12    1    1    2    0    0 -0.20234074096E+02 -0.18524664167E+02  0.16252434967E+02  0.31886087552E+02  0.00000000000E+00 0.  1.
         11    1    3    3    0    0  0.19763948425E+02 -0.35214360765E+01 -0.61143136785E+01  0.20985685631E+02  0.51100000000E-03 0. -1.
        -11    1    3    3    0    0  0.63582611435E+01  0.25058392518E+02  0.42195529223E+00  0.25855919378E+02  0.51100000000E-03 0.  1.
         12    1    3    3    0    0 -0.58881354722E+01 -0.30122922747E+01 -0.10560076581E+02  0.12460307439E+02  0.00000000000E+00 0. -1.
</event>
<event>
 7    1  0.1113211E-011  0.5930195E+02  0.7816164E-02  0.1266605E+00
        -11   -1    0    0    0    0  0.00000000000E+00  0.00000000000E+00  0.45593999997E+02  0.45594000000E+02  0.51100000000E-03 0.  1.
         11   -1    0    0    0    0 -0.00000000000E+00 -0.00000000000E+00 -0.45593999997E+02  0.45594000000E+02  0.51100000000E-03 0. -1.
    9900012    2    1    2    0    0  0.81326326862E+01  0.19903257379E+02 -0.23546571370E+02  0.59301946748E+02  0.50000004961E+02 0.  0.
        -12    1    1    2    0    0 -0.81326326862E+01 -0.19903257379E+02  0.23546571370E+02  0.31886053252E+02  0.00000000000E+00 0.  1.
         11    1    3    3    0    0 -0.13256058406E+02 -0.80224745312E+01 -0.10187007087E+02  0.18543416506E+02  0.51100000000E-03 0. -1.
        -11    1    3    3    0    0  0.93140211250E+01  0.16588346052E+02 -0.14842397768E+02  0.24129255812E+02  0.51100000000E-03 0.  1.
         12    1    3    3    0    0  0.12074669967E+02  0.11337385857E+02  0.14828334854E+01  0.16629274429E+02  0.00000000000E+00 0. -1.
</event>
<event>
 7    1  0.1113211E-011  0.5930187E+02  0.7816164E-02  0.1266605E+00
        -11   -1    0    0    0    0  0.00000000000E+00  0.00000000000E+00  0.45593999997E+02  0.45594000000E+02  0.51100000000E-03 0. -1.
         11   -1    0    0    0    0 -0.00000000000E+00 -0.00000000000E+00 -0.45593999997E+02  0.45594000000E+02  0.51100000000E-03 0.  1.
    9900012    2    1    2    0    0 -0.17665684158E+02 -0.66330737281E+01  0.25703131306E+02  0.59301874133E+02  0.49999872529E+02 0.  0.
        -12    1    1    2    0    0  0.17665684158E+02  0.66330737281E+01 -0.25703131306E+02  0.31886125867E+02  0.00000000000E+00 0.  1.
         11    1    3    3    0    0 -0.20080398188E+02 -0.19614261055E+02  0.30507464655E+02  0.41456567973E+02  0.51100000000E-03 0.  1.
        -11    1    3    3    0    0 -0.31751593090E+01  0.10528089593E+02 -0.39346951705E+01  0.11679218016E+02  0.51100000000E-03 0. -1.
        -12    1    3    3    0    0  0.55898733394E+01  0.24530977338E+01 -0.86963817848E+00  0.61660881443E+01  0.00000000000E+00 0.  1.
</event>
<event>
 7    1  0.1113211E-011  0.5930197E+02  0.7816164E-02  0.1266605E+00
        -11   -1    0    0    0    0  0.00000000000E+00  0.00000000000E+00  0.45593999997E+02  0.45594000000E+02  0.51100000000E-03 0. -1.
         11   -1    0    0    0    0 -0.00000000000E+00 -0.00000000000E+00 -0.45593999997E+02  0.45594000000E+02  0.51100000000E-03 0.  1.
    9900012    2    1    2    0    0 -0.11988613203E+01  0.30339118367E+02  0.97375215095E+01  0.59301973329E+02  0.50000053438E+02 0.  0.
        -12    1    1    2    0    0  0.11988613203E+01 -0.30339118367E+02 -0.97375215095E+01  0.31886026671E+02  0.00000000000E+00 0.  1.
         11    1    3    3    0    0 -0.12788254139E+02  0.24616893056E+02  0.18368608450E+02  0.33270657407E+02  0.51100000000E-03 0. -1.
        -11    1    3    3    0    0  0.14618925629E+02 -0.31213026102E+01 -0.34419242422E+01  0.15339568419E+02  0.51100000000E-03 0.  1.
        -12    1    3    3    0    0 -0.30295328108E+01  0.88435279211E+01 -0.51891626988E+01  0.10691747503E+02  0.00000000000E+00 0.  1.
</event>
<event>
 7    1  0.1113211E-011  0.5930195E+02  0.7816164E-02  0.1266605E+00
        -11   -1    0    0    0    0  0.00000000000E+00  0.00000000000E+00  0.45593999997E+02  0.45594000000E+02  0.51100000000E-03 0. -1.
         11   -1    0    0    0    0 -0.00000000000E+00 -0.00000000000E+00 -0.45593999997E+02  0.45594000000E+02  0.51100000000E-03 0.  1.
    9900012    2    1    2    0    0  0.29773745124E+02  0.73658017950E+00  0.11388672259E+02  0.59301948114E+02  0.50000007453E+02 0.  0.
        -12    1    1    2    0    0 -0.29773745124E+02 -0.73658017950E+00 -0.11388672259E+02  0.31886051886E+02  0.00000000000E+00 0.  1.
         11    1    3    3    0    0  0.19049922820E+02  0.13788290650E+01 -0.16352915438E+02  0.25143956980E+02  0.51100000000E-03 0. -1.
        -11    1    3    3    0    0  0.27108368726E+01  0.67531313037E+01  0.18445833260E+02  0.19829326359E+02  0.51100000000E-03 0.  1.
        -12    1    3    3    0    0  0.80129854313E+01 -0.73953801891E+01  0.92957544373E+01  0.14328664775E+02  0.00000000000E+00 0.  1.
</event>
<event>
 7    1  0.1113211E-011  0.5930193E+02  0.7816164E-02  0.1266605E+00
        -11   -1    0    0    0    0  0.00000000000E+00  0.00000000000E+00  0.45593999997E+02  0.45594000000E+02  0.51100000000E-03 0.  1.
         11   -1    0    0    0    0 -0.00000000000E+00 -0.00000000000E+00 -0.45593999997E+02  0.45594000000E+02  0.51100000000E-03 0. -1.
    9900012    2    1    2    0    0  0.27316408450E+02 -0.41273419298E+01 -0.15921702071E+02  0.59301925942E+02  0.49999967016E+02 0.  0.
        -12    1    1    2    0    0 -0.27316408450E+02  0.41273419298E+01  0.15921702071E+02  0.31886074058E+02  0.00000000000E+00 0.  1.
         11    1    3    3    0    0  0.67320032426E+01 -0.12038835931E+02 -0.10530293505E+02  0.17353400814E+02  0.51100000000E-03 0. -1.
        -11    1    3    3    0    0  0.58128007151E+00  0.15185820276E+02 -0.12321055843E+02  0.19564136610E+02  0.51100000000E-03 0.  1.
        -12    1    3    3    0    0  0.20003125136E+02 -0.72743262739E+01  0.69296472773E+01  0.22384388518E+02  0.00000000000E+00 0.  1.
</event>
<event>
 7    1  0.1113211E-011  0.5930197E+02  0.7816164E-02  0.1266605E+00
        -11   -1    0    0    0    0  0.00000000000E+00  0.00000000000E+00  0.45593999997E+02  0.45594000000E+02  0.51100000000E-03 0.  1.
         11   -1    0    0    0    0 -0.00000000000E+00 -0.00000000000E+00 -0.45593999997E+02  0.45594000000E+02  0.51100000000E-03 0. -1.
    9900012    2    1    2    0    0 -0.25237368555E+01  0.24577602562E-02 -0.31785997107E+02  0.59301970680E+02  0.50000048607E+02 0.  0.
        -12    1    1    2    0    0  0.25237368555E+01 -0.24577602562E-02  0.31785997107E+02  0.31886029320E+02  0.00000000000E+00 0.  1.
         11    1    3    3    0    0 -0.52309415097E+01 -0.18049508337E+02 -0.73832023310E+01  0.20190571493E+02  0.51100000000E-03 0. -1.
        -11    1    3    3    0    0  0.53046120383E+01  0.20551217335E+02 -0.85969631047E+01  0.22899764578E+02  0.51100000000E-03 0.  1.
         12    1    3    3    0    0 -0.25974073840E+01 -0.24992512380E+01 -0.15805831671E+02  0.16211634609E+02  0.00000000000E+00 0. -1.
</event>
<event>
 7    1  0.1113211E-011  0.5930195E+02  0.7816164E-02  0.1266605E+00
        -11   -1    0    0    0    0  0.00000000000E+00  0.00000000000E+00  0.45593999997E+02  0.45594000000E+02  0.51100000000E-03 0. -1.
         11   -1    0    0    0    0 -0.00000000000E+00 -0.00000000000E+00 -0.45593999997E+02  0.45594000000E+02  0.51100000000E-03 0.  1.
    9900012    2    1    2    0    0  0.30614237853E+02  0.86636553468E+01 -0.21046819235E+01  0.59301950240E+02  0.50000011329E+02 0.  0.
        -12    1    1    2    0    0 -0.30614237853E+02 -0.86636553468E+01  0.21046819235E+01  0.31886049760E+02  0.00000000000E+00 0.  1.
         11    1    3    3    0    0  0.28753980175E+02 -0.81576817166E+01  0.54998747729E+01  0.30390586860E+02  0.51100000000E-03 0. -1.
        -11    1    3    3    0    0  0.10611663106E+02  0.11440996755E+02 -0.97724560766E+01  0.18412080237E+02  0.51100000000E-03 0.  1.
         12    1    3    3    0    0 -0.87514054278E+01  0.53803403086E+01  0.21678993801E+01  0.10499283143E+02  0.00000000000E+00 0. -1.
</event>
<event>
 7    1  0.1113211E-011  0.5930193E+02  0.7816164E-02  0.1266605E+00
        -11   -1    0    0    0    0  0.00000000000E+00  0.00000000000E+00  0.45593999997E+02  0.45594000000E+02  0.51100000000E-03 0.  1.
         11   -1    0    0    0    0 -0.00000000000E+00 -0.00000000000E+00 -0.45593999997E+02  0.45594000000E+02  0.51100000000E-03 0. -1.
    9900012    2    1    2    0    0 -0.14079211984E+02 -0.21030257654E+02 -0.19396541518E+02  0.59301925140E+02  0.49999965554E+02 0.  0.
        -12    1    1    2    0    0  0.14079211984E+02  0.21030257654E+02  0.19396541518E+02  0.31886074860E+02  0.00000000000E+00 0.  1.
         11    1    3    3    0    0  0.58059974070E+01 -0.48597353485E+01 -0.20634941216E+02  0.21980159981E+02  0.51100000000E-03 0. -1.
        -11    1    3    3    0    0 -0.16884025267E+00 -0.17349229107E+02  0.25034065870E+01  0.17529726251E+02  0.51100000000E-03 0.  1.
        -12    1    3    3    0    0 -0.19716369138E+02  0.11787068015E+01 -0.12650068899E+01  0.19792038908E+02  0.00000000000E+00 0.  1.
</event>
<event>
 7    1  0.1113211E-011  0.5930194E+02  0.7816164E-02  0.1266605E+00
        -11   -1    0    0    0    0  0.00000000000E+00  0.00000000000E+00  0.45593999997E+02  0.45594000000E+02  0.51100000000E-03 0.  1.
         11   -1    0    0    0    0 -0.00000000000E+00 -0.00000000000E+00 -0.45593999997E+02  0.45594000000E+02  0.51100000000E-03 0. -1.
    9900012    2    1    2    0    0  0.28184103920E+02 -0.13992899086E+02 -0.51551665260E+01  0.59301942223E+02  0.49999996709E+02 0.  0.
        -12    1    1    2    0    0 -0.28184103920E+02  0.13992899086E+02  0.51551665260E+01  0.31886057777E+02  0.00000000000E+00 0.  1.
         11    1    3    3    0    0  0.10253636557E+02 -0.20097010423E+01  0.17058117746E+02  0.20003883178E+02  0.51100000000E-03 0. -1.
        -11    1    3    3    0    0  0.79879585382E+01 -0.29803908756E+01 -0.24274088508E+02  0.25727836764E+02  0.51100000000E-03 0.  1.
         12    1    3    3    0    0  0.99425088253E+01 -0.90028071686E+01  0.20608042362E+01  0.13570222281E+02  0.00000000000E+00 0. -1.
</event>
<event>
 7    1  0.1113211E-011  0.5930192E+02  0.7816164E-02  0.1266605E+00
        -11   -1    0    0    0    0  0.00000000000E+00  0.00000000000E+00  0.45593999997E+02  0.45594000000E+02  0.51100000000E-03 0. -1.
         11   -1    0    0    0    0 -0.00000000000E+00 -0.00000000000E+00 -0.45593999997E+02  0.45594000000E+02  0.51100000000E-03 0.  1.
    9900012    2    1    2    0    0  0.95451083992E+00 -0.12383232735E+02  0.29367784083E+02  0.59301917051E+02  0.49999950801E+02 0.  0.
        -12    1    1    2    0    0 -0.95451083992E+00  0.12383232735E+02 -0.29367784083E+02  0.31886082949E+02  0.00000000000E+00 0.  1.
         11    1    3    3    0    0 -0.72707206386E+01 -0.24371936628E+02  0.20421954313E+02  0.32617646939E+02  0.51100000000E-03 0. -1.
        -11    1    3    3    0    0 -0.73031229033E+00  0.15470596394E+02  0.47532641967E+01  0.16200809535E+02  0.51100000000E-03 0.  1.
         12    1    3    3    0    0  0.89555437689E+01 -0.34818925003E+01  0.41925655728E+01  0.10483460577E+02  0.00000000000E+00 0. -1.
</event>
<event>
 7    1  0.1113211E-011  0.5930181E+02  0.7816164E-02  0.1266605E+00
        -11   -1    0    0    0    0  0.00000000000E+00  0.00000000000E+00  0.45593999997E+02  0.45594000000E+02  0.51100000000E-03 0.  1.
         11   -1    0    0    0    0 -0.00000000000E+00 -0.00000000000E+00 -0.45593999997E+02  0.45594000000E+02  0.51100000000E-03 0. -1.
    9900012    2    1    2    0    0  0.14298499135E+02 -0.28015720611E+02 -0.52346462205E+01  0.59301808632E+02  0.49999753070E+02 0.  0.
        -12    1    1    2    0    0 -0.14298499135E+02  0.28015720611E+02  0.52346462205E+01  0.31886191368E+02  0.00000000000E+00 0.  1.
         11    1    3    3    0    0  0.12665587371E+02 -0.20296860749E+02 -0.15780375677E+02  0.28660075305E+02  0.51100000000E-03 0. -1.
        -11    1    3    3    0    0  0.37591587992E+01  0.91480093278E+01  0.93322884810E+01  0.13598123330E+02  0.51100000000E-03 0.  1.
        -12    1    3    3    0    0 -0.21262470351E+01 -0.16866869191E+02  0.12134409755E+01  0.17043609998E+02  0.00000000000E+00 0.  1.
</event>
<event>
 7    1  0.1113211E-011  0.5930195E+02  0.7816164E-02  0.1266605E+00
        -11   -1    0    0    0    0  0.00000000000E+00  0.00000000000E+00  0.45593999997E+02  0.45594000000E+02  0.51100000000E-03 0. -1.
         11   -1    0    0    0    0 -0.00000000000E+00 -0.00000000000E+00 -0.45593999997E+02  0.45594000000E+02  0.51100000000E-03 0.  1.
    9900012    2    1    2    0    0 -0.14339322645E+02  0.96413700330E+01  0.26798288272E+02  0.59301945928E+02  0.50000003465E+02 0.  0.
        -12    1    1    2    0    0  0.14339322645E+02 -0.96413700330E+01 -0.26798288272E+02  0.31886054072E+02  0.00000000000E+00 0.  1.
         11    1    3    3    0    0  0.68051481783E+01  0.22108381629E+02  0.10293493598E+02  0.25318897896E+02  0.51100000000E-03 0. -1.
        -11    1    3    3    0    0 -0.64088777959E+01  0.54496774748E+00 -0.22491909174E+01  0.68139243093E+01  0.51100000000E-03 0.  1.
         12    1    3    3    0    0 -0.14735593027E+02 -0.13011979343E+02  0.18753985590E+02  0.27169123722E+02  0.00000000000E+00 0. -1.
</event>
<event>
 7    1  0.1113211E-011  0.5930195E+02  0.7816164E-02  0.1266605E+00
        -11   -1    0    0    0    0  0.00000000000E+00  0.00000000000E+00  0.45593999997E+02  0.45594000000E+02  0.51100000000E-03 0.  1.
         11   -1    0    0    0    0 -0.00000000000E+00 -0.00000000000E+00 -0.45593999997E+02  0.45594000000E+02  0.51100000000E-03 0. -1.
    9900012    2    1    2    0    0 -0.30184122176E+02  0.38443716952E+01  0.95320379701E+01  0.59301950180E+02  0.50000011220E+02 0.  0.
        -12    1    1    2    0    0  0.30184122176E+02 -0.38443716952E+01 -0.95320379701E+01  0.31886049820E+02  0.00000000000E+00 0.  1.
         11    1    3    3    0    0 -0.29241182023E+02  0.17880264087E+02 -0.23941319156E+01  0.34358149511E+02  0.51100000000E-03 0.  1.
        -11    1    3    3    0    0  0.72497989555E+01 -0.79659489582E+01  0.97267604050E+01  0.14512952695E+02  0.51100000000E-03 0. -1.
         12    1    3    3    0    0 -0.81927391088E+01 -0.60699434338E+01  0.21994094807E+01  0.10430847974E+02  0.00000000000E+00 0. -1.
</event>
<event>
 7    1  0.1113211E-011  0.5930191E+02  0.7816164E-02  0.1266605E+00
        -11   -1    0    0    0    0  0.00000000000E+00  0.00000000000E+00  0.45593999997E+02  0.45594000000E+02  0.51100000000E-03 0.  1.
         11   -1    0    0    0    0 -0.00000000000E+00 -0.00000000000E+00 -0.45593999997E+02  0.45594000000E+02  0.51100000000E-03 0. -1.
    9900012    2    1    2    0    0  0.41378192596E+01 -0.23006694737E+02 -0.21686245731E+02  0.59301908912E+02  0.49999935957E+02 0.  0.
        -12    1    1    2    0    0 -0.41378192596E+01  0.23006694737E+02  0.21686245731E+02  0.31886091088E+02  0.00000000000E+00 0.  1.
         11    1    3    3    0    0  0.15361509897E+02 -0.22492479713E+02 -0.68913886493E+01  0.28095887025E+02  0.51100000000E-03 0. -1.
        -11    1    3    3    0    0 -0.12397011065E+02  0.97117338416E+01 -0.13666524831E+02  0.20851320312E+02  0.51100000000E-03 0.  1.
        -12    1    3    3    0    0  0.11733204276E+01 -0.10225948866E+02 -0.11283322514E+01  0.10354701575E+02  0.00000000000E+00 0.  1.
</event>
<event>
 7    1  0.1113211E-011  0.5930194E+02  0.7816164E-02  0.1266605E+00
        -11   -1    0    0    0    0  0.00000000000E+00  0.00000000000E+00  0.45593999997E+02  0.45594000000E+02  0.51100000000E-03 0.  1.
         11   -1    0    0    0    0 -0.00000000000E+00 -0.00000000000E+00 -0.45593999997E+02  0.45594000000E+02  0.51100000000E-03 0. -1.
    9900012    2    1    2    0    0  0.16575348326E+02 -0.17342090944E+02 -0.21005483692E+02  0.59301942928E+02  0.49999997995E+02 0.  0.
        -12    1    1    2    0    0 -0.16575348326E+02  0.17342090944E+02  0.21005483692E+02  0.31886057072E+02  0.00000000000E+00 0.  1.
         11    1    3    3    0    0 -0.94209711022E+00  0.19388601852E+01 -0.67605575249E+00  0.22591541392E+01  0.51100000000E-03 0. -1.
        -11    1    3    3    0    0  0.27038606430E+02 -0.22199751013E+02 -0.65389214013E+00  0.34990609567E+02  0.51100000000E-03 0.  1.
        -12    1    3    3    0    0 -0.95211609939E+01  0.29187998835E+01 -0.19675535800E+02  0.22052179222E+02  0.00000000000E+00 0.  1.
</event>
<event>
 7    1  0.1113211E-011  0.5930194E+02  0.7816164E-02  0.1266605E+00
        -11   -1    0    0    0    0  0.00000000000E+00  0.00000000000E+00  0.45593999997E+02  0.45594000000E+02  0.51100000000E-03 0.  1.
         11   -1    0    0    0    0 -0.00000000000E+00 -0.00000000000E+00 -0.45593999997E+02  0.45594000000E+02  0.51100000000E-03 0. -1.
    9900012    2    1    2    0    0 -0.19384819996E+02 -0.24250411576E+02 -0.72709602931E+01  0.59301943934E+02  0.49999999829E+02 0.  0.
        -12    1    1    2    0    0  0.19384819996E+02  0.24250411576E+02  0.72709602931E+01  0.31886056066E+02  0.00000000000E+00 0.  1.
         11    1    3    3    0    0  0.58150574344E+01 -0.28182384159E+02 -0.55010380916E+01  0.29297151572E+02  0.51100000000E-03 0. -1.
        -11    1    3    3    0    0 -0.12639951317E+02 -0.40453159530E+01  0.42772642184E+01  0.13943741963E+02  0.51100000000E-03 0.  1.
         12    1    3    3    0    0 -0.12559926113E+02  0.79772885364E+01 -0.60471864200E+01  0.16061050400E+02  0.00000000000E+00 0. -1.
</event>
<event>
 7    1  0.1113211E-011  0.5930194E+02  0.7816164E-02  0.1266605E+00
        -11   -1    0    0    0    0  0.00000000000E+00  0.00000000000E+00  0.45593999997E+02  0.45594000000E+02  0.51100000000E-03 0.  1.
         11   -1    0    0    0    0 -0.00000000000E+00 -0.00000000000E+00 -0.45593999997E+02  0.45594000000E+02  0.51100000000E-03 0. -1.
    9900012    2    1    2    0    0  0.12497490837E+02 -0.25433065180E+02  0.14618224899E+02  0.59301943786E+02  0.49999999560E+02 0.  0.
        -12    1    1    2    0    0 -0.12497490837E+02  0.25433065180E+02 -0.14618224899E+02  0.31886056214E+02  0.00000000000E+00 0.  1.
         11    1    3    3    0    0 -0.58962051223E+01 -0.19057826892E+02 -0.91214972735E+01  0.21935535404E+02  0.51100000000E-03 0. -1.
        -11    1    3    3    0    0  0.21503842366E+02 -0.20794323446E+01  0.23691297263E+02  0.32062701721E+02  0.51100000000E-03 0.  1.
        -12    1    3    3    0    0 -0.31101464070E+01 -0.42958059435E+01  0.48424909707E-01  0.53037066613E+01  0.00000000000E+00 0.  1.
</event>
<event>
 7    1  0.1113211E-011  0.5930195E+02  0.7816164E-02  0.1266605E+00
        -11   -1    0    0    0    0  0.00000000000E+00  0.00000000000E+00  0.45593999997E+02  0.45594000000E+02  0.51100000000E-03 0. -1.
         11   -1    0    0    0    0 -0.00000000000E+00 -0.00000000000E+00 -0.45593999997E+02  0.45594000000E+02  0.51100000000E-03 0.  1.
    9900012    2    1    2    0    0  0.20081623008E+02 -0.97400948047E+01 -0.22772333020E+02  0.59301950063E+02  0.50000011007E+02 0.  0.
        -12    1    1    2    0    0 -0.20081623008E+02  0.97400948047E+01  0.22772333020E+02  0.31886049937E+02  0.00000000000E+00 0.  1.
         11    1    3    3    0    0 -0.10511973285E+02  0.30390337964E+01 -0.42959269130E+01  0.11755521982E+02  0.51100000000E-03 0. -1.
        -11    1    3    3    0    0  0.11032226825E+02  0.40928497125E+01 -0.18248164671E+02  0.21713059702E+02  0.51100000000E-03 0.  1.
         12    1    3    3    0    0  0.19561369468E+02 -0.16871978314E+02 -0.22824143521E+00  0.25833368379E+02  0.00000000000E+00 0. -1.
</event>
<event>
 7    1  0.1113211E-011  0.5930191E+02  0.7816164E-02  0.1266605E+00
        -11   -1    0    0    0    0  0.00000000000E+00  0.00000000000E+00  0.45593999997E+02  0.45594000000E+02  0.51100000000E-03 0.  1.
         11   -1    0    0    0    0 -0.00000000000E+00 -0.00000000000E+00 -0.45593999997E+02  0.45594000000E+02  0.51100000000E-03 0. -1.
    9900012    2    1    2    0    0  0.27829998461E+01  0.31539291187E+02 -0.37750421024E+01  0.59301907113E+02  0.49999932677E+02 0.  0.
        -12    1    1    2    0    0 -0.27829998461E+01 -0.31539291187E+02  0.37750421024E+01  0.31886092887E+02  0.00000000000E+00 0.  1.
         11    1    3    3    0    0  0.38269471501E+01  0.29218422214E+02 -0.20190834596E+01  0.29537068565E+02  0.51100000000E-03 0. -1.
        -11    1    3    3    0    0 -0.63948699534E+01 -0.41908994795E+01  0.11646861609E+02  0.13932242669E+02  0.51100000000E-03 0.  1.
        -12    1    3    3    0    0  0.53509226494E+01  0.65117684524E+01 -0.13402820252E+02  0.15832595880E+02  0.00000000000E+00 0.  1.
</event>
<event>
 7    1  0.1113211E-011  0.5930190E+02  0.7816164E-02  0.1266605E+00
        -11   -1    0    0    0    0  0.00000000000E+00  0.00000000000E+00  0.45593999997E+02  0.45594000000E+02  0.51100000000E-03 0. -1.
         11   -1    0    0    0    0 -0.00000000000E+00 -0.00000000000E+00 -0.45593999997E+02  0.45594000000E+02  0.51100000000E-03 0.  1.
    9900012    2    1    2    0    0 -0.36351034625E+01 -0.29753716825E+02 -0.10873164498E+02  0.59301900391E+02  0.49999920417E+02 0.  0.
        -12    1    1    2    0    0  0.36351034625E+01  0.29753716825E+02  0.10873164498E+02  0.31886099609E+02  0.00000000000E+00 0.  1.
         11    1    3    3    0    0  0.17577130004E+02  0.30713061860E+01 -0.29554743412E+01  0.18086548861E+02  0.51100000000E-03 0. -1.
        -11    1    3    3    0    0 -0.51695759231E+01 -0.13430133569E+02 -0.70637052032E+01  0.16030874411E+02  0.51100000000E-03 0.  1.
         12    1    3    3    0    0 -0.16042657543E+02 -0.19394889442E+02 -0.85398495381E+00  0.25184477120E+02  0.00000000000E+00 0. -1.
</event>
<event>
 7    1  0.1113211E-011  0.5930194E+02  0.7816164E-02  0.1266605E+00
        -11   -1    0    0    0    0  0.00000000000E+00  0.00000000000E+00  0.45593999997E+02  0.45594000000E+02  0.51100000000E-03 0. -1.
         11   -1    0    0    0    0 -0.00000000000E+00 -0.00000000000E+00 -0.45593999997E+02  0.45594000000E+02  0.51100000000E-03 0.  1.
    9900012    2    1    2    0    0  0.34950241808E+01  0.14929369761E+02  0.27957457751E+02  0.59301941614E+02  0.49999995598E+02 0.  0.
        -12    1    1    2    0    0 -0.34950241808E+01 -0.14929369761E+02 -0.27957457751E+02  0.31886058386E+02  0.00000000000E+00 0.  1.
         11    1    3    3    0    0 -0.77082368101E+01  0.22218736924E+02  0.25437458268E+02  0.34643231209E+02  0.51100000000E-03 0. -1.
        -11    1    3    3    0    0  0.15096193205E+02 -0.48102814485E+01  0.77882507911E+01  0.17654764443E+02  0.51100000000E-03 0.  1.
        -12    1    3    3    0    0 -0.38929322138E+01 -0.24790857152E+01 -0.52682513075E+01  0.70039459623E+01  0.00000000000E+00 0.  1.
</event>
<event>
 7    1  0.1113211E-011  0.5930197E+02  0.7816164E-02  0.1266605E+00
        -11   -1    0    0    0    0  0.00000000000E+00  0.00000000000E+00  0.45593999997E+02  0.45594000000E+02  0.51100000000E-03 0. -1.
         11   -1    0    0    0    0 -0.00000000000E+00 -0.00000000000E+00 -0.45593999997E+02  0.45594000000E+02  0.51100000000E-03 0.  1.
    9900012    2    1    2    0    0 -0.69588980941E+01 -0.35244404225E+01  0.30917166656E+02  0.59301966427E+02  0.50000040852E+02 0.  0.
        -12    1    1    2    0    0  0.69588980941E+01  0.35244404225E+01 -0.30917166656E+02  0.31886033573E+02  0.00000000000E+00 0.  1.
         11    1    3    3    0    0 -0.19298948312E+02 -0.62438263858E+01  0.19624927724E+02  0.28223617102E+02  0.51100000000E-03 0. -1.
        -11    1    3    3    0    0 -0.77862817040E-01 -0.29685382568E+01 -0.73734926508E+01  0.79490047259E+01  0.51100000000E-03 0.  1.
         12    1    3    3    0    0  0.12417913035E+02  0.56879242202E+01  0.18665731583E+02  0.23129344600E+02  0.00000000000E+00 0. -1.
</event>
<event>
 7    1  0.1113211E-011  0.5930194E+02  0.7816164E-02  0.1266605E+00
        -11   -1    0    0    0    0  0.00000000000E+00  0.00000000000E+00  0.45593999997E+02  0.45594000000E+02  0.51100000000E-03 0.  1.
         11   -1    0    0    0    0 -0.00000000000E+00 -0.00000000000E+00 -0.45593999997E+02  0.45594000000E+02  0.51100000000E-03 0. -1.
    9900012    2    1    2    0    0  0.10550111978E+00 -0.31882666545E+02  0.45315701140E+00  0.59301938660E+02  0.49999990211E+02 0.  0.
        -12    1    1    2    0    0 -0.10550111978E+00  0.31882666545E+02 -0.45315701140E+00  0.31886061340E+02  0.00000000000E+00 0.  1.
         11    1    3    3    0    0  0.10898976294E+02 -0.95899199750E+01 -0.12721361412E+02  0.19302520194E+02  0.51100000000E-03 0. -1.
        -11    1    3    3    0    0 -0.19634422974E+02 -0.18702678547E+02  0.13820929459E+02  0.30435486553E+02  0.51100000000E-03 0.  1.
        -12    1    3    3    0    0  0.88409478001E+01 -0.35900680231E+01 -0.64641103570E+00  0.95639319133E+01  0.00000000000E+00 0.  1.
</event>
<event>
 7    1  0.1113211E-011  0.5930196E+02  0.7816164E-02  0.1266605E+00
        -11   -1    0    0    0    0  0.00000000000E+00  0.00000000000E+00  0.45593999997E+02  0.45594000000E+02  0.51100000000E-03 0.  1.
         11   -1    0    0    0    0 -0.00000000000E+00 -0.00000000000E+00 -0.45593999997E+02  0.45594000000E+02  0.51100000000E-03 0. -1.
    9900012    2    1    2    0    0  0.11141234416E+02  0.29712125877E+02  0.31275887455E+01  0.59301963247E+02  0.50000035052E+02 0.  0.
        -12    1    1    2    0    0 -0.11141234416E+02 -0.29712125877E+02 -0.31275887455E+01  0.31886036753E+02  0.00000000000E+00 0.  1.
         11    1    3    3    0    0  0.15313085267E+02  0.23525669005E+02 -0.57180808193E+01  0.28646886935E+02  0.51100000000E-03 0. -1.
        -11    1    3    3    0    0 -0.10361270258E+02  0.82769093860E+01  0.16122617559E+02  0.20875869983E+02  0.51100000000E-03 0.  1.
         12    1    3    3    0    0  0.61894194070E+01 -0.20904525144E+01 -0.72769479945E+01  0.97792063290E+01  0.00000000000E+00 0. -1.
</event>
<event>
 7    1  0.1113211E-011  0.5930194E+02  0.7816164E-02  0.1266605E+00
        -11   -1    0    0    0    0  0.00000000000E+00  0.00000000000E+00  0.45593999997E+02  0.45594000000E+02  0.51100000000E-03 0. -1.
         11   -1    0    0    0    0 -0.00000000000E+00 -0.00000000000E+00 -0.45593999997E+02  0.45594000000E+02  0.51100000000E-03 0.  1.
    9900012    2    1    2    0    0 -0.24408227376E+02  0.17731942374E+02  0.10321694239E+02  0.59301941668E+02  0.49999995696E+02 0.  0.
        -12    1    1    2    0    0  0.24408227376E+02 -0.17731942374E+02 -0.10321694239E+02  0.31886058332E+02  0.00000000000E+00 0.  1.
         11    1    3    3    0    0  0.93741354260E+01  0.94762405629E+01  0.13914072714E+02  0.19268496826E+02  0.51100000000E-03 0. -1.
        -11    1    3    3    0    0 -0.14659909929E+02 -0.36519311061E+01 -0.79758946079E+01  0.17084040945E+02  0.51100000000E-03 0.  1.
         12    1    3    3    0    0 -0.19122452873E+02  0.11907632917E+02  0.43835161333E+01  0.22949403897E+02  0.00000000000E+00 0. -1.
</event>
<event>
 7    1  0.1113211E-011  0.5930195E+02  0.7816164E-02  0.1266605E+00
        -11   -1    0    0    0    0  0.00000000000E+00  0.00000000000E+00  0.45593999997E+02  0.45594000000E+02  0.51100000000E-03 0.  1.
         11   -1    0    0    0    0 -0.00000000000E+00 -0.00000000000E+00 -0.45593999997E+02  0.45594000000E+02  0.51100000000E-03 0. -1.
    9900012    2    1    2    0    0 -0.20467332194E+02  0.11834704513E+02 -0.21395049735E+02  0.59301951778E+02  0.50000014135E+02 0.  0.
        -12    1    1    2    0    0  0.20467332194E+02 -0.11834704513E+02  0.21395049735E+02  0.31886048222E+02  0.00000000000E+00 0.  1.
         11    1    3    3    0    0 -0.99264805420E+01  0.25564622377E+02 -0.69353202449E+01  0.28287516688E+02  0.51100000000E-03 0. -1.
        -11    1    3    3    0    0 -0.13648940805E+02 -0.33764681938E+00 -0.64097643531E+01  0.15082860133E+02  0.51100000000E-03 0.  1.
         12    1    3    3    0    0  0.31080891534E+01 -0.13392271044E+02 -0.80499651366E+01  0.15931574957E+02  0.00000000000E+00 0. -1.
</event>
<event>
 7    1  0.1113211E-011  0.5930191E+02  0.7816164E-02  0.1266605E+00
        -11   -1    0    0    0    0  0.00000000000E+00  0.00000000000E+00  0.45593999997E+02  0.45594000000E+02  0.51100000000E-03 0.  1.
         11   -1    0    0    0    0 -0.00000000000E+00 -0.00000000000E+00 -0.45593999997E+02  0.45594000000E+02  0.51100000000E-03 0. -1.
    9900012    2    1    2    0    0 -0.27222374517E+01  0.31661116474E+02 -0.26241101223E+01  0.59301908564E+02  0.49999935322E+02 0.  0.
        -12    1    1    2    0    0  0.27222374517E+01 -0.31661116474E+02  0.26241101223E+01  0.31886091436E+02  0.00000000000E+00 0.  1.
         11    1    3    3    0    0 -0.15141158763E+02  0.12895672627E+02 -0.11631960315E+02  0.23040302998E+02  0.51100000000E-03 0. -1.
        -11    1    3    3    0    0  0.78725013747E+01 -0.18446902859E+01  0.12481848013E+02  0.14871976675E+02  0.51100000000E-03 0.  1.
        -12    1    3    3    0    0  0.45464199364E+01  0.20610134133E+02 -0.34739978206E+01  0.21389628891E+02  0.00000000000E+00 0.  1.
</event>
<event>
 7    1  0.1113211E-011  0.5930197E+02  0.7816164E-02  0.1266605E+00
        -11   -1    0    0    0    0  0.00000000000E+00  0.00000000000E+00  0.45593999997E+02  0.45594000000E+02  0.51100000000E-03 0.  1.
         11   -1    0    0    0    0 -0.00000000000E+00 -0.00000000000E+00 -0.45593999997E+02  0.45594000000E+02  0.51100000000E-03 0. -1.
    9900012    2    1    2    0    0 -0.21416807213E+02  0.14054196692E+02  0.18987331916E+02  0.59301970941E+02  0.50000049083E+02 0.  0.
        -12    1    1    2    0    0  0.21416807213E+02 -0.14054196692E+02 -0.18987331916E+02  0.31886029059E+02  0.00000000000E+00 0.  1.
         11    1    3    3    0    0 -0.20172269920E+02  0.77300544594E+01 -0.91695967671E+01  0.23468185290E+02  0.51100000000E-03 0. -1.
        -11    1    3    3    0    0 -0.68048056127E+01  0.90152822056E+01  0.27366868284E+02  0.29606184702E+02  0.51100000000E-03 0.  1.
         12    1    3    3    0    0  0.55602683197E+01 -0.26911399727E+01  0.79006039941E+00  0.62276009485E+01  0.00000000000E+00 0. -1.
</event>
<event>
 7    1  0.1113211E-011  0.5930195E+02  0.7816164E-02  0.1266605E+00
        -11   -1    0    0    0    0  0.00000000000E+00  0.00000000000E+00  0.45593999997E+02  0.45594000000E+02  0.51100000000E-03 0.  1.
         11   -1    0    0    0    0 -0.00000000000E+00 -0.00000000000E+00 -0.45593999997E+02  0.45594000000E+02  0.51100000000E-03 0. -1.
    9900012    2    1    2    0    0 -0.38359161807E+01 -0.31654292521E+02 -0.10813114860E+00  0.59301950067E+02  0.50000011015E+02 0.  0.
        -12    1    1    2    0    0  0.38359161807E+01  0.31654292521E+02  0.10813114860E+00  0.31886049933E+02  0.00000000000E+00 0.  1.
         11    1    3    3    0    0  0.38302820273E+01 -0.38866601658E+02 -0.94148049073E+01  0.40173652268E+02  0.51100000000E-03 0. -1.
        -11    1    3    3    0    0 -0.55217919866E+01  0.51629536600E+00 -0.19309189653E+01  0.58724097234E+01  0.51100000000E-03 0.  1.
         12    1    3    3    0    0 -0.21444062214E+01  0.66960137705E+01  0.11237592724E+02  0.13255888076E+02  0.00000000000E+00 0. -1.
</event>
<event>
 7    1  0.1113211E-011  0.5930192E+02  0.7816164E-02  0.1266605E+00
        -11   -1    0    0    0    0  0.00000000000E+00  0.00000000000E+00  0.45593999997E+02  0.45594000000E+02  0.51100000000E-03 0. -1.
         11   -1    0    0    0    0 -0.00000000000E+00 -0.00000000000E+00 -0.45593999997E+02  0.45594000000E+02  0.51100000000E-03 0.  1.
    9900012    2    1    2    0    0 -0.22517949927E+02 -0.39177234347E+01  0.22233199738E+02  0.59301924726E+02  0.49999964798E+02 0.  0.
        -12    1    1    2    0    0  0.22517949927E+02  0.39177234347E+01 -0.22233199738E+02  0.31886075274E+02  0.00000000000E+00 0.  1.
         11    1    3    3    0    0 -0.19660159187E+02  0.20507704505E+02  0.10682903336E+02  0.30351478172E+02  0.51100000000E-03 0. -1.
        -11    1    3    3    0    0 -0.41671637538E+00 -0.53355368014E+01  0.76139874255E+01  0.93066863208E+01  0.51100000000E-03 0.  1.
         12    1    3    3    0    0 -0.24410743643E+01 -0.19089891138E+02  0.39363089766E+01  0.19643760232E+02  0.00000000000E+00 0. -1.
</event>
<event>
 7    1  0.1113211E-011  0.5930194E+02  0.7816164E-02  0.1266605E+00
        -11   -1    0    0    0    0  0.00000000000E+00  0.00000000000E+00  0.45593999997E+02  0.45594000000E+02  0.51100000000E-03 0.  1.
         11   -1    0    0    0    0 -0.00000000000E+00 -0.00000000000E+00 -0.45593999997E+02  0.45594000000E+02  0.51100000000E-03 0. -1.
    9900012    2    1    2    0    0  0.63802835441E+01  0.29278368071E+02 -0.10899089319E+02  0.59301937167E+02  0.49999987488E+02 0.  0.
        -12    1    1    2    0    0 -0.63802835441E+01 -0.29278368071E+02  0.10899089319E+02  0.31886062833E+02  0.00000000000E+00 0.  1.
         11    1    3    3    0    0 -0.11170089980E+02  0.47652188819E+01 -0.22637308175E+02  0.25689023781E+02  0.51100000000E-03 0. -1.
        -11    1    3    3    0    0  0.33476729625E+01  0.12002713910E+01  0.37533321372E+01  0.51705964907E+01  0.51100000000E-03 0.  1.
         12    1    3    3    0    0  0.14202700561E+02  0.23312877798E+02  0.79848867193E+01  0.28442316895E+02  0.00000000000E+00 0. -1.
</event>
<event>
 7    1  0.1113211E-011  0.5930195E+02  0.7816164E-02  0.1266605E+00
        -11   -1    0    0    0    0  0.00000000000E+00  0.00000000000E+00  0.45593999997E+02  0.45594000000E+02  0.51100000000E-03 0.  1.
         11   -1    0    0    0    0 -0.00000000000E+00 -0.00000000000E+00 -0.45593999997E+02  0.45594000000E+02  0.51100000000E-03 0. -1.
    9900012    2    1    2    0    0 -0.11591948128E+02  0.16245174040E+02 -0.24868474733E+02  0.59301953263E+02  0.50000016843E+02 0.  0.
        -12    1    1    2    0    0  0.11591948128E+02 -0.16245174040E+02  0.24868474733E+02  0.31886046737E+02  0.00000000000E+00 0.  1.
         11    1    3    3    0    0  0.40123460241E+01 -0.78172826364E+01 -0.20493011938E+01  0.90226639125E+01  0.51100000000E-03 0. -1.
        -11    1    3    3    0    0 -0.14002119266E+02  0.16020099230E+02 -0.31708323080E+02  0.38185346353E+02  0.51100000000E-03 0.  1.
        -12    1    3    3    0    0 -0.16021748856E+01  0.80423574463E+01  0.88891495411E+01  0.12093942997E+02  0.00000000000E+00 0.  1.
</event>
<event>
 7    1  0.1113211E-011  0.5930193E+02  0.7816164E-02  0.1266605E+00
        -11   -1    0    0    0    0  0.00000000000E+00  0.00000000000E+00  0.45593999997E+02  0.45594000000E+02  0.51100000000E-03 0.  1.
         11   -1    0    0    0    0 -0.00000000000E+00 -0.00000000000E+00 -0.45593999997E+02  0.45594000000E+02  0.51100000000E-03 0. -1.
    9900012    2    1    2    0    0  0.96131591081E+01  0.28326955167E+02 -0.11040492866E+02  0.59301926241E+02  0.49999967561E+02 0.  0.
        -12    1    1    2    0    0 -0.96131591081E+01 -0.28326955167E+02  0.11040492866E+02  0.31886073759E+02  0.00000000000E+00 0.  1.
         11    1    3    3    0    0  0.83258343170E+01 -0.62334852949E+01 -0.16256826918E+02  0.19299229977E+02  0.51100000000E-03 0. -1.
        -11    1    3    3    0    0  0.18565897269E+01  0.86909124799E+01  0.10329710205E+02  0.13626510864E+02  0.51100000000E-03 0.  1.
         12    1    3    3    0    0 -0.56926493576E+00  0.25869527982E+02 -0.51133761522E+01  0.26376185400E+02  0.00000000000E+00 0. -1.
</event>
<event>
 7    1  0.1113211E-011  0.5930198E+02  0.7816164E-02  0.1266605E+00
        -11   -1    0    0    0    0  0.00000000000E+00  0.00000000000E+00  0.45593999997E+02  0.45594000000E+02  0.51100000000E-03 0.  1.
         11   -1    0    0    0    0 -0.00000000000E+00 -0.00000000000E+00 -0.45593999997E+02  0.45594000000E+02  0.51100000000E-03 0. -1.
    9900012    2    1    2    0    0 -0.15328793613E+01  0.24883116529E+02 -0.19879611667E+02  0.59301981632E+02  0.50000068582E+02 0.  0.
        -12    1    1    2    0    0  0.15328793613E+01 -0.24883116529E+02  0.19879611667E+02  0.31886018368E+02  0.00000000000E+00 0.  1.
         11    1    3    3    0    0  0.13287030871E+02  0.78277164814E+01 -0.23275495744E+02  0.27920727731E+02  0.51100000000E-03 0. -1.
        -11    1    3    3    0    0 -0.18163391071E+02  0.17787643666E+02 -0.14323209396E+01  0.25462925715E+02  0.51100000000E-03 0.  1.
        -12    1    3    3    0    0  0.33434808391E+01 -0.73224361916E+00  0.48282050164E+01  0.59183281862E+01  0.00000000000E+00 0.  1.
</event>
<event>
 7    1  0.1113211E-011  0.5930196E+02  0.7816164E-02  0.1266605E+00
        -11   -1    0    0    0    0  0.00000000000E+00  0.00000000000E+00  0.45593999997E+02  0.45594000000E+02  0.51100000000E-03 0.  1.
         11   -1    0    0    0    0 -0.00000000000E+00 -0.00000000000E+00 -0.45593999997E+02  0.45594000000E+02  0.51100000000E-03 0. -1.
    9900012    2    1    2    0    0 -0.38694237662E+01  0.15791668983E+02 -0.27429373104E+02  0.59301956683E+02  0.50000023079E+02 0.  0.
        -12    1    1    2    0    0  0.38694237662E+01 -0.15791668983E+02  0.27429373104E+02  0.31886043317E+02  0.00000000000E+00 0.  1.
         11    1    3    3    0    0 -0.32992073934E+01  0.16998975208E+02 -0.23304272514E+02  0.29033412566E+02  0.51100000000E-03 0. -1.
        -11    1    3    3    0    0  0.78652250895E+01 -0.91349486180E+01 -0.11404211718E+02  0.16594128393E+02  0.51100000000E-03 0.  1.
        -12    1    3    3    0    0 -0.84354414623E+01  0.79276423930E+01  0.72791111275E+01  0.13674415724E+02  0.00000000000E+00 0.  1.
</event>
<event>
 7    1  0.1113211E-011  0.5930194E+02  0.7816164E-02  0.1266605E+00
        -11   -1    0    0    0    0  0.00000000000E+00  0.00000000000E+00  0.45593999997E+02  0.45594000000E+02  0.51100000000E-03 0. -1.
         11   -1    0    0    0    0 -0.00000000000E+00 -0.00000000000E+00 -0.45593999997E+02  0.45594000000E+02  0.51100000000E-03 0.  1.
    9900012    2    1    2    0    0 -0.27157367217E+02  0.30083305941E+01  0.16436185621E+02  0.59301939646E+02  0.49999992009E+02 0.  0.
        -12    1    1    2    0    0  0.27157367217E+02 -0.30083305941E+01 -0.16436185621E+02  0.31886060354E+02  0.00000000000E+00 0.  1.
         11    1    3    3    0    0 -0.21247562556E+02  0.64740539368E+01 -0.11809080074E+02  0.25156046219E+02  0.51100000000E-03 0. -1.
        -11    1    3    3    0    0  0.36945383315E+01 -0.16648737453E+01 -0.21177227035E+00  0.40578646880E+01  0.51100000000E-03 0.  1.
         12    1    3    3    0    0 -0.96043429926E+01 -0.18008495974E+01  0.28457037966E+02  0.30088028739E+02  0.00000000000E+00 0. -1.
</event>
<event>
 7    1  0.1113211E-011  0.5930196E+02  0.7816164E-02  0.1266605E+00
        -11   -1    0    0    0    0  0.00000000000E+00  0.00000000000E+00  0.45593999997E+02  0.45594000000E+02  0.51100000000E-03 0.  1.
         11   -1    0    0    0    0 -0.00000000000E+00 -0.00000000000E+00 -0.45593999997E+02  0.45594000000E+02  0.51100000000E-03 0. -1.
    9900012    2    1    2    0    0 -0.15047123330E+02  0.18824846048E+02 -0.20878913993E+02  0.59301956050E+02  0.50000021927E+02 0.  0.
        -12    1    1    2    0    0  0.15047123330E+02 -0.18824846048E+02  0.20878913993E+02  0.31886043950E+02  0.00000000000E+00 0.  1.
         11    1    3    3    0    0 -0.14417538377E+02 -0.12988472611E+02 -0.60079766466E+01  0.20314074364E+02  0.51100000000E-03 0. -1.
        -11    1    3    3    0    0 -0.19855296094E+01  0.59294605452E+01  0.35489693659E+01  0.71899940200E+01  0.51100000000E-03 0.  1.
         12    1    3    3    0    0  0.13559446562E+01  0.25883858114E+02 -0.18419906712E+02  0.31797887666E+02  0.00000000000E+00 0. -1.
</event>
<event>
 7    1  0.1113211E-011  0.5930194E+02  0.7816164E-02  0.1266605E+00
        -11   -1    0    0    0    0  0.00000000000E+00  0.00000000000E+00  0.45593999997E+02  0.45594000000E+02  0.51100000000E-03 0.  1.
         11   -1    0    0    0    0 -0.00000000000E+00 -0.00000000000E+00 -0.45593999997E+02  0.45594000000E+02  0.51100000000E-03 0. -1.
    9900012    2    1    2    0    0 -0.11485845627E+01 -0.27701354570E+02 -0.15749171726E+02  0.59301941894E+02  0.49999996108E+02 0.  0.
        -12    1    1    2    0    0  0.11485845627E+01  0.27701354570E+02  0.15749171726E+02  0.31886058106E+02  0.00000000000E+00 0.  1.
         11    1    3    3    0    0  0.19140196933E+02 -0.27486585561E+02 -0.16020341399E+02  0.37128302725E+02  0.51100000000E-03 0. -1.
        -11    1    3    3    0    0 -0.15917198509E+02  0.17966644976E+01  0.34771677044E+01  0.16391336345E+02  0.51100000000E-03 0.  1.
         12    1    3    3    0    0 -0.43715829872E+01 -0.20114335065E+01 -0.32059980312E+01  0.57823028234E+01  0.00000000000E+00 0. -1.
</event>
<event>
 7    1  0.1113211E-011  0.5930196E+02  0.7816164E-02  0.1266605E+00
        -11   -1    0    0    0    0  0.00000000000E+00  0.00000000000E+00  0.45593999997E+02  0.45594000000E+02  0.51100000000E-03 0.  1.
         11   -1    0    0    0    0 -0.00000000000E+00 -0.00000000000E+00 -0.45593999997E+02  0.45594000000E+02  0.51100000000E-03 0. -1.
    9900012    2    1    2    0    0 -0.32534007284E+00 -0.27896260169E+02 -0.15440614632E+02  0.59301956693E+02  0.50000023098E+02 0.  0.
        -12    1    1    2    0    0  0.32534007284E+00  0.27896260169E+02  0.15440614632E+02  0.31886043307E+02  0.00000000000E+00 0.  1.
         11    1    3    3    0    0  0.16237654144E+01  0.59492907259E+00 -0.12455424664E+02  0.12574901930E+02  0.51100000000E-03 0.  1.
        -11    1    3    3    0    0  0.80934504957E+01 -0.40317449873E+01  0.12995798770E+02  0.15831920114E+02  0.51100000000E-03 0. -1.
        -12    1    3    3    0    0 -0.10042555983E+02 -0.24459444255E+02 -0.15980988738E+02  0.30895134649E+02  0.00000000000E+00 0.  1.
</event>
<event>
 7    1  0.1113211E-011  0.5930195E+02  0.7816164E-02  0.1266605E+00
        -11   -1    0    0    0    0  0.00000000000E+00  0.00000000000E+00  0.45593999997E+02  0.45594000000E+02  0.51100000000E-03 0.  1.
         11   -1    0    0    0    0 -0.00000000000E+00 -0.00000000000E+00 -0.45593999997E+02  0.45594000000E+02  0.51100000000E-03 0. -1.
    9900012    2    1    2    0    0 -0.25077424508E+02 -0.90600104123E+01 -0.17485972023E+02  0.59301949347E+02  0.50000009701E+02 0.  0.
        -12    1    1    2    0    0  0.25077424508E+02  0.90600104123E+01  0.17485972023E+02  0.31886050653E+02  0.00000000000E+00 0.  1.
         11    1    3    3    0    0 -0.10976033230E+01  0.12173024472E+01 -0.24761830402E+02  0.24816019089E+02  0.51100000000E-03 0. -1.
        -11    1    3    3    0    0 -0.18164748742E+01 -0.93734250283E+01  0.77527768599E+01  0.12299033581E+02  0.51100000000E-03 0.  1.
         12    1    3    3    0    0 -0.22163346311E+02 -0.90388783120E+00 -0.47691848099E+00  0.22186896677E+02  0.00000000000E+00 0. -1.
</event>
<event>
 7    1  0.1113211E-011  0.5930194E+02  0.7816164E-02  0.1266605E+00
        -11   -1    0    0    0    0  0.00000000000E+00  0.00000000000E+00  0.45593999997E+02  0.45594000000E+02  0.51100000000E-03 0.  1.
         11   -1    0    0    0    0 -0.00000000000E+00 -0.00000000000E+00 -0.45593999997E+02  0.45594000000E+02  0.51100000000E-03 0. -1.
    9900012    2    1    2    0    0 -0.42097347137E+01  0.14136151186E+02 -0.28269568228E+02  0.59301935261E+02  0.49999984012E+02 0.  0.
        -12    1    1    2    0    0  0.42097347137E+01 -0.14136151186E+02  0.28269568228E+02  0.31886064739E+02  0.00000000000E+00 0.  1.
         11    1    3    3    0    0  0.16738825489E+02  0.19851762507E+02 -0.23615910796E+02  0.35099743537E+02  0.51100000000E-03 0. -1.
        -11    1    3    3    0    0 -0.27621205952E+00 -0.21424781161E+01  0.11337768557E+01  0.24396630504E+01  0.51100000000E-03 0.  1.
         12    1    3    3    0    0 -0.20672348143E+02 -0.35731332048E+01 -0.57874342873E+01  0.21762528674E+02  0.00000000000E+00 0. -1.
</event>
<event>
 7    1  0.1113211E-011  0.5930196E+02  0.7816164E-02  0.1266605E+00
        -11   -1    0    0    0    0  0.00000000000E+00  0.00000000000E+00  0.45593999997E+02  0.45594000000E+02  0.51100000000E-03 0.  1.
         11   -1    0    0    0    0 -0.00000000000E+00 -0.00000000000E+00 -0.45593999997E+02  0.45594000000E+02  0.51100000000E-03 0. -1.
    9900012    2    1    2    0    0 -0.59821575589E+01 -0.95035389579E+01 -0.29843192412E+02  0.59301959244E+02  0.50000027750E+02 0.  0.
        -12    1    1    2    0    0  0.59821575589E+01  0.95035389579E+01  0.29843192412E+02  0.31886040756E+02  0.00000000000E+00 0.  1.
         11    1    3    3    0    0 -0.75377672660E+01 -0.86727238102E+00 -0.11292183769E+01  0.76710645378E+01  0.51100000000E-03 0. -1.
        -11    1    3    3    0    0  0.21769589517E+02 -0.38382436764E+01 -0.13854828331E+02  0.26088376926E+02  0.51100000000E-03 0.  1.
        -12    1    3    3    0    0 -0.20213979810E+02 -0.47980229006E+01 -0.14859145704E+02  0.25542517780E+02  0.00000000000E+00 0.  1.
</event>
<event>
 7    1  0.1113211E-011  0.5930189E+02  0.7816164E-02  0.1266605E+00
        -11   -1    0    0    0    0  0.00000000000E+00  0.00000000000E+00  0.45593999997E+02  0.45594000000E+02  0.51100000000E-03 0.  1.
         11   -1    0    0    0    0 -0.00000000000E+00 -0.00000000000E+00 -0.45593999997E+02  0.45594000000E+02  0.51100000000E-03 0. -1.
    9900012    2    1    2    0    0  0.88321248305E+01  0.38079981822E+01 -0.30400937553E+02  0.59301885729E+02  0.49999893677E+02 0.  0.
        -12    1    1    2    0    0 -0.88321248305E+01 -0.38079981822E+01  0.30400937553E+02  0.31886114271E+02  0.00000000000E+00 0.  1.
         11    1    3    3    0    0  0.38749181928E+01 -0.18168836396E+02 -0.20756905119E+02  0.27856250957E+02  0.51100000000E-03 0. -1.
        -11    1    3    3    0    0  0.75343020874E+01  0.23674606236E+02 -0.11973291864E+02  0.27579202431E+02  0.51100000000E-03 0.  1.
        -12    1    3    3    0    0 -0.25770954498E+01 -0.16977716580E+01  0.23292594298E+01  0.38664323415E+01  0.00000000000E+00 0.  1.
</event>
<event>
 7    1  0.1113211E-011  0.5930193E+02  0.7816164E-02  0.1266605E+00
        -11   -1    0    0    0    0  0.00000000000E+00  0.00000000000E+00  0.45593999997E+02  0.45594000000E+02  0.51100000000E-03 0. -1.
         11   -1    0    0    0    0 -0.00000000000E+00 -0.00000000000E+00 -0.45593999997E+02  0.45594000000E+02  0.51100000000E-03 0.  1.
    9900012    2    1    2    0    0  0.21858002693E+02 -0.20029826070E+02  0.11736926817E+02  0.59301926783E+02  0.49999968549E+02 0.  0.
        -12    1    1    2    0    0 -0.21858002693E+02  0.20029826070E+02 -0.11736926817E+02  0.31886073217E+02  0.00000000000E+00 0.  1.
         11    1    3    3    0    0 -0.10324740323E+02 -0.14222755249E+02  0.34051990704E+01  0.17902022528E+02  0.51100000000E-03 0. -1.
        -11    1    3    3    0    0  0.32198375911E+02 -0.13842534750E+01  0.29837367508E+00  0.32229498850E+02  0.51100000000E-03 0.  1.
        -12    1    3    3    0    0 -0.15632895555E-01 -0.44228173456E+01  0.80333540714E+01  0.91704054053E+01  0.00000000000E+00 0.  1.
</event>
<event>
 7    1  0.1113211E-011  0.5930194E+02  0.7816164E-02  0.1266605E+00
        -11   -1    0    0    0    0  0.00000000000E+00  0.00000000000E+00  0.45593999997E+02  0.45594000000E+02  0.51100000000E-03 0.  1.
         11   -1    0    0    0    0 -0.00000000000E+00 -0.00000000000E+00 -0.45593999997E+02  0.45594000000E+02  0.51100000000E-03 0. -1.
    9900012    2    1    2    0    0 -0.17380320390E+02  0.23465943879E+02 -0.12806048991E+02  0.59301938002E+02  0.49999989010E+02 0.  0.
        -12    1    1    2    0    0  0.17380320390E+02 -0.23465943879E+02  0.12806048991E+02  0.31886061998E+02  0.00000000000E+00 0.  1.
         11    1    3    3    0    0 -0.22233354177E+02 -0.41649714032E+00 -0.13494281180E+02  0.26011365451E+02  0.51100000000E-03 0.  1.
        -11    1    3    3    0    0  0.72309198582E+01  0.27457268346E+02 -0.15750562681E+01  0.28437098824E+02  0.51100000000E-03 0. -1.
        -12    1    3    3    0    0 -0.23778860711E+01 -0.35748273261E+01  0.22632884565E+01  0.48534737268E+01  0.00000000000E+00 0.  1.
</event>
<event>
 7    1  0.1113211E-011  0.5930196E+02  0.7816164E-02  0.1266605E+00
        -11   -1    0    0    0    0  0.00000000000E+00  0.00000000000E+00  0.45593999997E+02  0.45594000000E+02  0.51100000000E-03 0.  1.
         11   -1    0    0    0    0 -0.00000000000E+00 -0.00000000000E+00 -0.45593999997E+02  0.45594000000E+02  0.51100000000E-03 0. -1.
    9900012    2    1    2    0    0 -0.79561315833E+01  0.28924985183E+02 -0.10805784784E+02  0.59301956306E+02  0.50000022393E+02 0.  0.
        -12    1    1    2    0    0  0.79561315833E+01 -0.28924985183E+02  0.10805784784E+02  0.31886043694E+02  0.00000000000E+00 0.  1.
         11    1    3    3    0    0  0.83405857193E+01  0.60254069795E+01 -0.19968032976E+02  0.22463152953E+02  0.51100000000E-03 0. -1.
        -11    1    3    3    0    0 -0.66320437721E+01  0.99190915291E+00  0.10936193868E+02  0.12828414748E+02  0.51100000000E-03 0.  1.
         12    1    3    3    0    0 -0.96646735305E+01  0.21907669051E+02 -0.17739456768E+01  0.24010388605E+02  0.00000000000E+00 0. -1.
</event>
<event>
 7    1  0.1113211E-011  0.5930193E+02  0.7816164E-02  0.1266605E+00
        -11   -1    0    0    0    0  0.00000000000E+00  0.00000000000E+00  0.45593999997E+02  0.45594000000E+02  0.51100000000E-03 0.  1.
         11   -1    0    0    0    0 -0.00000000000E+00 -0.00000000000E+00 -0.45593999997E+02  0.45594000000E+02  0.51100000000E-03 0. -1.
    9900012    2    1    2    0    0 -0.13586918753E+02  0.22519019036E+02  0.18028060523E+02  0.59301928656E+02  0.49999971965E+02 0.  0.
        -12    1    1    2    0    0  0.13586918753E+02 -0.22519019036E+02 -0.18028060523E+02  0.31886071344E+02  0.00000000000E+00 0.  1.
         11    1    3    3    0    0 -0.15584037478E+01  0.32789145614E+02  0.11289454981E+02  0.34713232151E+02  0.51100000000E-03 0. -1.
        -11    1    3    3    0    0  0.11777036921E+01 -0.91296099045E+01  0.66100886120E+01  0.11332697592E+02  0.51100000000E-03 0.  1.
         12    1    3    3    0    0 -0.13206218698E+02 -0.11405166734E+01  0.12851693066E+00  0.13255998913E+02  0.00000000000E+00 0. -1.
</event>
<event>
 7    1  0.1113211E-011  0.5930189E+02  0.7816164E-02  0.1266605E+00
        -11   -1    0    0    0    0  0.00000000000E+00  0.00000000000E+00  0.45593999997E+02  0.45594000000E+02  0.51100000000E-03 0.  1.
         11   -1    0    0    0    0 -0.00000000000E+00 -0.00000000000E+00 -0.45593999997E+02  0.45594000000E+02  0.51100000000E-03 0. -1.
    9900012    2    1    2    0    0 -0.24786460300E+02  0.17939953364E+02 -0.89729320049E+01  0.59301889392E+02  0.49999900358E+02 0.  0.
        -12    1    1    2    0    0  0.24786460300E+02 -0.17939953364E+02  0.89729320049E+01  0.31886110608E+02  0.00000000000E+00 0.  1.
         11    1    3    3    0    0 -0.54368212850E+01  0.53417272406E+01 -0.15878474311E+02  0.17613035579E+02  0.51100000000E-03 0. -1.
        -11    1    3    3    0    0 -0.12911015678E+02  0.22903767504E+01  0.19941448781E+02  0.23866326304E+02  0.51100000000E-03 0.  1.
        -12    1    3    3    0    0 -0.64386233372E+01  0.10307849373E+02 -0.13035906476E+02  0.17822527510E+02  0.00000000000E+00 0.  1.
</event>
<event>
 7    1  0.1113211E-011  0.5930223E+02  0.7816164E-02  0.1266604E+00
        -11   -1    0    0    0    0  0.00000000000E+00  0.00000000000E+00  0.45593999997E+02  0.45594000000E+02  0.51100000000E-03 0. -1.
         11   -1    0    0    0    0 -0.00000000000E+00 -0.00000000000E+00 -0.45593999997E+02  0.45594000000E+02  0.51100000000E-03 0.  1.
    9900012    2    1    2    0    0  0.77379056903E+01 -0.10027595363E+02  0.29262168938E+02  0.59302229126E+02  0.50000519949E+02 0.  0.
        -12    1    1    2    0    0 -0.77379056903E+01  0.10027595363E+02 -0.29262168938E+02  0.31885770874E+02  0.00000000000E+00 0.  1.
         11    1    3    3    0    0 -0.19572872117E+02  0.13777873232E+01  0.20169691721E+02  0.28139155730E+02  0.51100000000E-03 0. -1.
        -11    1    3    3    0    0  0.13896102899E+02 -0.47470074868E+01  0.29599296545E+01  0.14979884501E+02  0.51100000000E-03 0.  1.
         12    1    3    3    0    0  0.13414674909E+02 -0.66583751998E+01  0.61325475626E+01  0.16183188895E+02  0.00000000000E+00 0. -1.
</event>
<event>
 7    1  0.1113211E-011  0.5930193E+02  0.7816164E-02  0.1266605E+00
        -11   -1    0    0    0    0  0.00000000000E+00  0.00000000000E+00  0.45593999997E+02  0.45594000000E+02  0.51100000000E-03 0. -1.
         11   -1    0    0    0    0 -0.00000000000E+00 -0.00000000000E+00 -0.45593999997E+02  0.45594000000E+02  0.51100000000E-03 0.  1.
    9900012    2    1    2    0    0 -0.25082379756E+02  0.15553486652E+01  0.19625923170E+02  0.59301925548E+02  0.49999966298E+02 0.  0.
        -12    1    1    2    0    0  0.25082379756E+02 -0.15553486652E+01 -0.19625923170E+02  0.31886074452E+02  0.00000000000E+00 0.  1.
         11    1    3    3    0    0 -0.10817601305E+02  0.22986867354E+01 -0.12194221261E+02  0.16462183668E+02  0.51100000000E-03 0. -1.
        -11    1    3    3    0    0 -0.11817428026E+02  0.36947794310E+01  0.34816169655E+02  0.36952248509E+02  0.51100000000E-03 0.  1.
        -12    1    3    3    0    0 -0.24473504244E+01 -0.44381175011E+01 -0.29960252245E+01  0.58874933715E+01  0.00000000000E+00 0.  1.
</event>
<event>
 7    1  0.1113211E-011  0.5930194E+02  0.7816164E-02  0.1266605E+00
        -11   -1    0    0    0    0  0.00000000000E+00  0.00000000000E+00  0.45593999997E+02  0.45594000000E+02  0.51100000000E-03 0.  1.
         11   -1    0    0    0    0 -0.00000000000E+00 -0.00000000000E+00 -0.45593999997E+02  0.45594000000E+02  0.51100000000E-03 0. -1.
    9900012    2    1    2    0    0  0.16455306425E+02 -0.25394483043E+00 -0.27310786698E+02  0.59301942426E+02  0.49999997079E+02 0.  0.
        -12    1    1    2    0    0 -0.16455306425E+02  0.25394483043E+00  0.27310786698E+02  0.31886057574E+02  0.00000000000E+00 0.  1.
         11    1    3    3    0    0 -0.46284632247E+01  0.10069697986E+01 -0.31715701404E+02  0.32067466002E+02  0.51100000000E-03 0. -1.
        -11    1    3    3    0    0  0.18402212172E+02  0.26050050846E+01 -0.26304295245E+01  0.18770898328E+02  0.51100000000E-03 0.  1.
        -12    1    3    3    0    0  0.26815574785E+01 -0.38659197136E+01  0.70353442304E+01  0.84635780958E+01  0.00000000000E+00 0.  1.
</event>
<event>
 7    1  0.1113211E-011  0.5930194E+02  0.7816164E-02  0.1266605E+00
        -11   -1    0    0    0    0  0.00000000000E+00  0.00000000000E+00  0.45593999997E+02  0.45594000000E+02  0.51100000000E-03 0.  1.
         11   -1    0    0    0    0 -0.00000000000E+00 -0.00000000000E+00 -0.45593999997E+02  0.45594000000E+02  0.51100000000E-03 0. -1.
    9900012    2    1    2    0    0 -0.29803139253E+02  0.37700596316E+01  0.10690209092E+02  0.59301936753E+02  0.49999986733E+02 0.  0.
        -12    1    1    2    0    0  0.29803139253E+02 -0.37700596316E+01 -0.10690209092E+02  0.31886063247E+02  0.00000000000E+00 0.  1.
         11    1    3    3    0    0 -0.15897313979E+02 -0.20536566723E+01  0.26907320762E+01  0.16253680716E+02  0.51100000000E-03 0. -1.
        -11    1    3    3    0    0  0.25823288453E+01  0.20234846474E+02  0.37017263011E+01  0.20732105826E+02  0.51100000000E-03 0.  1.
        -12    1    3    3    0    0 -0.16488154119E+02 -0.14411130170E+02  0.42977507149E+01  0.22316150211E+02  0.00000000000E+00 0.  1.
</event>
<event>
 7    1  0.1113211E-011  0.5930194E+02  0.7816164E-02  0.1266605E+00
        -11   -1    0    0    0    0  0.00000000000E+00  0.00000000000E+00  0.45593999997E+02  0.45594000000E+02  0.51100000000E-03 0.  1.
         11   -1    0    0    0    0 -0.00000000000E+00 -0.00000000000E+00 -0.45593999997E+02  0.45594000000E+02  0.51100000000E-03 0. -1.
    9900012    2    1    2    0    0  0.31465070456E+02  0.40584475937E+01 -0.31936455824E+01  0.59301936778E+02  0.49999986779E+02 0.  0.
        -12    1    1    2    0    0 -0.31465070456E+02 -0.40584475937E+01  0.31936455824E+01  0.31886063222E+02  0.00000000000E+00 0.  1.
         11    1    3    3    0    0  0.30446982776E+02 -0.48160366685E+01 -0.12540378293E+02  0.33278732808E+02  0.51100000000E-03 0. -1.
        -11    1    3    3    0    0 -0.85887189156E+01  0.97976172704E+00 -0.23433493489E+01  0.89564117863E+01  0.51100000000E-03 0.  1.
         12    1    3    3    0    0  0.96068065958E+01  0.78947225351E+01  0.11690082060E+02  0.17066792184E+02  0.00000000000E+00 0. -1.
</event>
<event>
 7    1  0.1113211E-011  0.5930194E+02  0.7816164E-02  0.1266605E+00
        -11   -1    0    0    0    0  0.00000000000E+00  0.00000000000E+00  0.45593999997E+02  0.45594000000E+02  0.51100000000E-03 0.  1.
         11   -1    0    0    0    0 -0.00000000000E+00 -0.00000000000E+00 -0.45593999997E+02  0.45594000000E+02  0.51100000000E-03 0. -1.
    9900012    2    1    2    0    0  0.20376866744E+02  0.34615186368E+00 -0.24523141415E+02  0.59301937460E+02  0.49999988023E+02 0.  0.
        -12    1    1    2    0    0 -0.20376866744E+02 -0.34615186368E+00  0.24523141415E+02  0.31886062540E+02  0.00000000000E+00 0.  1.
         11    1    3    3    0    0  0.11504314277E+02  0.21875547942E+02 -0.10317096627E+02  0.26783041795E+02  0.51100000000E-03 0. -1.
        -11    1    3    3    0    0  0.22601514347E+01 -0.14618900588E+02 -0.17019150290E+02  0.22549324065E+02  0.51100000000E-03 0.  1.
         12    1    3    3    0    0  0.66124010327E+01 -0.69104954900E+01  0.28131055021E+01  0.99695716006E+01  0.00000000000E+00 0. -1.
</event>
<event>
 7    1  0.1113211E-011  0.5930194E+02  0.7816164E-02  0.1266605E+00
        -11   -1    0    0    0    0  0.00000000000E+00  0.00000000000E+00  0.45593999997E+02  0.45594000000E+02  0.51100000000E-03 0. -1.
         11   -1    0    0    0    0 -0.00000000000E+00 -0.00000000000E+00 -0.45593999997E+02  0.45594000000E+02  0.51100000000E-03 0.  1.
    9900012    2    1    2    0    0 -0.24846191947E+02 -0.18601241132E+02  0.73062666354E+01  0.59301937872E+02  0.49999988773E+02 0.  0.
        -12    1    1    2    0    0  0.24846191947E+02  0.18601241132E+02 -0.73062666354E+01  0.31886062128E+02  0.00000000000E+00 0.  1.
         11    1    3    3    0    0 -0.90502802653E+01  0.15717934442E+02  0.85431789676E+01  0.20048614494E+02  0.51100000000E-03 0. -1.
        -11    1    3    3    0    0 -0.14725173711E+02 -0.19848938732E+02 -0.36359188072E+00  0.24717267424E+02  0.51100000000E-03 0.  1.
        -12    1    3    3    0    0 -0.10707379701E+01 -0.14470236842E+02 -0.87332045155E+00  0.14536055953E+02  0.00000000000E+00 0.  1.
</event>
<event>
 7    1  0.1113211E-011  0.5930207E+02  0.7816164E-02  0.1266604E+00
        -11   -1    0    0    0    0  0.00000000000E+00  0.00000000000E+00  0.45593999997E+02  0.45594000000E+02  0.51100000000E-03 0.  1.
         11   -1    0    0    0    0 -0.00000000000E+00 -0.00000000000E+00 -0.45593999997E+02  0.45594000000E+02  0.51100000000E-03 0. -1.
    9900012    2    1    2    0    0  0.27796755003E+02  0.48177726758E+01 -0.14860752124E+02  0.59302070879E+02  0.50000231345E+02 0.  0.
        -12    1    1    2    0    0 -0.27796755003E+02 -0.48177726758E+01  0.14860752124E+02  0.31885929121E+02  0.00000000000E+00 0.  1.
         11    1    3    3    0    0  0.11454811539E+02 -0.80113105425E+01 -0.93451260901E+01  0.16814433856E+02  0.51100000000E-03 0. -1.
        -11    1    3    3    0    0  0.11890416422E+02  0.90599609231E+01  0.14989192493E+02  0.21169335995E+02  0.51100000000E-03 0.  1.
        -12    1    3    3    0    0  0.44515270419E+01  0.37691222952E+01 -0.20504818527E+02  0.21318301028E+02  0.00000000000E+00 0.  1.
</event>
<event>
 7    1  0.1113211E-011  0.5930195E+02  0.7816164E-02  0.1266605E+00
        -11   -1    0    0    0    0  0.00000000000E+00  0.00000000000E+00  0.45593999997E+02  0.45594000000E+02  0.51100000000E-03 0.  1.
         11   -1    0    0    0    0 -0.00000000000E+00 -0.00000000000E+00 -0.45593999997E+02  0.45594000000E+02  0.51100000000E-03 0. -1.
    9900012    2    1    2    0    0 -0.10089770445E+02 -0.81358997895E+01 -0.29132863432E+02  0.59301951879E+02  0.50000014320E+02 0.  0.
        -12    1    1    2    0    0  0.10089770445E+02  0.81358997895E+01  0.29132863432E+02  0.31886048121E+02  0.00000000000E+00 0.  1.
         11    1    3    3    0    0  0.42820013831E+01 -0.24758128805E+02 -0.16395225653E+02  0.30001731654E+02  0.51100000000E-03 0. -1.
        -11    1    3    3    0    0  0.26695329039E+01  0.23845788530E+01 -0.41773235962E+01  0.55011503269E+01  0.51100000000E-03 0.  1.
         12    1    3    3    0    0 -0.17041304732E+02  0.14237650163E+02 -0.85603141828E+01  0.23799069898E+02  0.00000000000E+00 0. -1.
</event>
<event>
 7    1  0.1113211E-011  0.5930194E+02  0.7816164E-02  0.1266605E+00
        -11   -1    0    0    0    0  0.00000000000E+00  0.00000000000E+00  0.45593999997E+02  0.45594000000E+02  0.51100000000E-03 0.  1.
         11   -1    0    0    0    0 -0.00000000000E+00 -0.00000000000E+00 -0.45593999997E+02  0.45594000000E+02  0.51100000000E-03 0. -1.
    9900012    2    1    2    0    0 -0.16927827233E+02 -0.15825019218E+02  0.21902924484E+02  0.59301942404E+02  0.49999997039E+02 0.  0.
        -12    1    1    2    0    0  0.16927827233E+02  0.15825019218E+02 -0.21902924484E+02  0.31886057596E+02  0.00000000000E+00 0.  1.
         11    1    3    3    0    0 -0.22460145322E+02 -0.16923790786E+02 -0.49824457159E+01  0.28560419955E+02  0.51100000000E-03 0. -1.
        -11    1    3    3    0    0  0.25497866270E+01  0.40760488281E+01  0.25992928299E+02  0.26433840200E+02  0.51100000000E-03 0.  1.
        -12    1    3    3    0    0  0.29825314627E+01 -0.29772772603E+01  0.89244190020E+00  0.43076822487E+01  0.00000000000E+00 0.  1.
</event>
<event>
 7    1  0.1113211E-011  0.5930195E+02  0.7816164E-02  0.1266605E+00
        -11   -1    0    0    0    0  0.00000000000E+00  0.00000000000E+00  0.45593999997E+02  0.45594000000E+02  0.51100000000E-03 0.  1.
         11   -1    0    0    0    0 -0.00000000000E+00 -0.00000000000E+00 -0.45593999997E+02  0.45594000000E+02  0.51100000000E-03 0. -1.
    9900012    2    1    2    0    0 -0.36059803872E+01 -0.19749275004E+02 -0.24772634227E+02  0.59301947183E+02  0.50000005754E+02 0.  0.
        -12    1    1    2    0    0  0.36059803872E+01  0.19749275004E+02  0.24772634227E+02  0.31886052817E+02  0.00000000000E+00 0.  1.
         11    1    3    3    0    0 -0.25180841253E+01  0.89328714618E+01 -0.61336956674E+00  0.93012452232E+01  0.51100000000E-03 0. -1.
        -11    1    3    3    0    0 -0.12178455619E+02 -0.26967691176E+02 -0.25013532693E+02  0.38745941293E+02  0.51100000000E-03 0.  1.
         12    1    3    3    0    0  0.11090559357E+02 -0.17144552897E+01  0.85426803299E+00  0.11254760667E+02  0.00000000000E+00 0. -1.
</event>
<event>
 7    1  0.1113211E-011  0.5930193E+02  0.7816164E-02  0.1266605E+00
        -11   -1    0    0    0    0  0.00000000000E+00  0.00000000000E+00  0.45593999997E+02  0.45594000000E+02  0.51100000000E-03 0.  1.
         11   -1    0    0    0    0 -0.00000000000E+00 -0.00000000000E+00 -0.45593999997E+02  0.45594000000E+02  0.51100000000E-03 0. -1.
    9900012    2    1    2    0    0  0.15331575532E+02 -0.27713392055E+02 -0.36921620252E+01  0.59301931445E+02  0.49999977051E+02 0.  0.
        -12    1    1    2    0    0 -0.15331575532E+02  0.27713392055E+02  0.36921620252E+01  0.31886068555E+02  0.00000000000E+00 0.  1.
         11    1    3    3    0    0  0.19505771314E+02 -0.70673602428E+00  0.29289653636E+01  0.19737107912E+02  0.51100000000E-03 0.  1.
        -11    1    3    3    0    0 -0.92287113873E+01 -0.13106758947E+01 -0.93893622636E+01  0.13230536994E+02  0.51100000000E-03 0. -1.
         12    1    3    3    0    0  0.50545156049E+01 -0.25695980136E+02  0.27682348748E+01  0.26334286538E+02  0.00000000000E+00 0. -1.
</event>
<event>
 7    1  0.1113211E-011  0.5930196E+02  0.7816164E-02  0.1266605E+00
        -11   -1    0    0    0    0  0.00000000000E+00  0.00000000000E+00  0.45593999997E+02  0.45594000000E+02  0.51100000000E-03 0.  1.
         11   -1    0    0    0    0 -0.00000000000E+00 -0.00000000000E+00 -0.45593999997E+02  0.45594000000E+02  0.51100000000E-03 0. -1.
    9900012    2    1    2    0    0  0.55306261775E+01  0.25198914869E+02 -0.18738894890E+02  0.59301963586E+02  0.50000035670E+02 0.  0.
        -12    1    1    2    0    0 -0.55306261775E+01 -0.25198914869E+02  0.18738894890E+02  0.31886036414E+02  0.00000000000E+00 0.  1.
         11    1    3    3    0    0 -0.19889278691E+02  0.12403930409E+02 -0.19766395379E+02  0.30661886488E+02  0.51100000000E-03 0. -1.
        -11    1    3    3    0    0  0.13330495951E+02  0.51563031005E+01  0.11489710189E+01  0.14339097552E+02  0.51100000000E-03 0.  1.
         12    1    3    3    0    0  0.12089408918E+02  0.76386813590E+01 -0.12147052992E+00  0.14300979546E+02  0.00000000000E+00 0. -1.
</event>
<event>
 7    1  0.1113211E-011  0.5930193E+02  0.7816164E-02  0.1266605E+00
        -11   -1    0    0    0    0  0.00000000000E+00  0.00000000000E+00  0.45593999997E+02  0.45594000000E+02  0.51100000000E-03 0. -1.
         11   -1    0    0    0    0 -0.00000000000E+00 -0.00000000000E+00 -0.45593999997E+02  0.45594000000E+02  0.51100000000E-03 0.  1.
    9900012    2    1    2    0    0 -0.22127103451E+02  0.59344776203E+01  0.22178693196E+02  0.59301934648E+02  0.49999982893E+02 0.  0.
        -12    1    1    2    0    0  0.22127103451E+02 -0.59344776203E+01 -0.22178693196E+02  0.31886065352E+02  0.00000000000E+00 0.  1.
         11    1    3    3    0    0 -0.21345421413E+02  0.22981366680E+02  0.23705235657E+02  0.39315498567E+02  0.51100000000E-03 0. -1.
        -11    1    3    3    0    0  0.70073293420E+00 -0.13963940049E+02 -0.52457986450E+01  0.14933219747E+02  0.51100000000E-03 0.  1.
         12    1    3    3    0    0 -0.14824149728E+01 -0.30829490102E+01  0.37192561841E+01  0.50532163336E+01  0.00000000000E+00 0. -1.
</event>
<event>
 7    1  0.1113211E-011  0.5930198E+02  0.7816164E-02  0.1266605E+00
        -11   -1    0    0    0    0  0.00000000000E+00  0.00000000000E+00  0.45593999997E+02  0.45594000000E+02  0.51100000000E-03 0.  1.
         11   -1    0    0    0    0 -0.00000000000E+00 -0.00000000000E+00 -0.45593999997E+02  0.45594000000E+02  0.51100000000E-03 0. -1.
    9900012    2    1    2    0    0  0.10302504388E+02 -0.51492366475E+01 -0.29733176746E+02  0.59301983722E+02  0.50000072392E+02 0.  0.
        -12    1    1    2    0    0 -0.10302504388E+02  0.51492366475E+01  0.29733176746E+02  0.31886016278E+02  0.00000000000E+00 0.  1.
         11    1    3    3    0    0 -0.10895386616E+02 -0.53359137619E+01 -0.15264357861E+02  0.19498257521E+02  0.51100000000E-03 0. -1.
        -11    1    3    3    0    0  0.36260107969E+01  0.13995857602E+02 -0.80668726484E+01  0.16556159546E+02  0.51100000000E-03 0.  1.
        -12    1    3    3    0    0  0.17571880207E+02 -0.13809180488E+02 -0.64019462359E+01  0.23247566655E+02  0.00000000000E+00 0.  1.
</event>
<event>
 7    1  0.1113211E-011  0.5930193E+02  0.7816164E-02  0.1266605E+00
        -11   -1    0    0    0    0  0.00000000000E+00  0.00000000000E+00  0.45593999997E+02  0.45594000000E+02  0.51100000000E-03 0. -1.
         11   -1    0    0    0    0 -0.00000000000E+00 -0.00000000000E+00 -0.45593999997E+02  0.45594000000E+02  0.51100000000E-03 0.  1.
    9900012    2    1    2    0    0  0.88009119431E+01  0.11364445116E+02  0.28462510416E+02  0.59301934658E+02  0.49999982912E+02 0.  0.
        -12    1    1    2    0    0 -0.88009119431E+01 -0.11364445116E+02 -0.28462510416E+02  0.31886065342E+02  0.00000000000E+00 0.  1.
         11    1    3    3    0    0  0.36590807803E+01  0.10714711043E+02  0.30595019833E+02  0.32622831632E+02  0.51100000000E-03 0. -1.
        -11    1    3    3    0    0  0.78572638022E+00  0.89653544567E+01 -0.10691786010E+02  0.13975308040E+02  0.51100000000E-03 0.  1.
        -12    1    3    3    0    0  0.43561047826E+01 -0.83156203835E+01  0.85592765929E+01  0.12703794985E+02  0.00000000000E+00 0.  1.
</event>
<event>
 7    1  0.1113211E-011  0.5930195E+02  0.7816164E-02  0.1266605E+00
        -11   -1    0    0    0    0  0.00000000000E+00  0.00000000000E+00  0.45593999997E+02  0.45594000000E+02  0.51100000000E-03 0.  1.
         11   -1    0    0    0    0 -0.00000000000E+00 -0.00000000000E+00 -0.45593999997E+02  0.45594000000E+02  0.51100000000E-03 0. -1.
    9900012    2    1    2    0    0 -0.26233334719E+02 -0.15408374699E+02  0.95453800064E+01  0.59301950687E+02  0.50000012144E+02 0.  0.
        -12    1    1    2    0    0  0.26233334719E+02  0.15408374699E+02 -0.95453800064E+01  0.31886049313E+02  0.00000000000E+00 0.  1.
         11    1    3    3    0    0 -0.23447665030E+02 -0.16930066668E+02 -0.29341035316E+01  0.29069384522E+02  0.51100000000E-03 0. -1.
        -11    1    3    3    0    0  0.63596783011E+01  0.58457294009E+01 -0.50409013692E+01  0.10001437257E+02  0.51100000000E-03 0.  1.
        -12    1    3    3    0    0 -0.91453479903E+01 -0.43240374326E+01  0.17520384907E+02  0.20231128908E+02  0.00000000000E+00 0.  1.
</event>
<event>
 7    1  0.1113211E-011  0.5930204E+02  0.7816164E-02  0.1266604E+00
        -11   -1    0    0    0    0  0.00000000000E+00  0.00000000000E+00  0.45593999997E+02  0.45594000000E+02  0.51100000000E-03 0.  1.
         11   -1    0    0    0    0 -0.00000000000E+00 -0.00000000000E+00 -0.45593999997E+02  0.45594000000E+02  0.51100000000E-03 0. -1.
    9900012    2    1    2    0    0  0.39594278069E+01 -0.20221596630E+02 -0.24333610101E+02  0.59302037267E+02  0.50000170046E+02 0.  0.
        -12    1    1    2    0    0 -0.39594278069E+01  0.20221596630E+02  0.24333610101E+02  0.31885962733E+02  0.00000000000E+00 0.  1.
         11    1    3    3    0    0 -0.16666132161E+01  0.87844639504E+01 -0.13629469295E+02  0.16300516557E+02  0.51100000000E-03 0. -1.
        -11    1    3    3    0    0  0.82023193168E+01 -0.67932513957E+01  0.84206695117E+01  0.13576965124E+02  0.51100000000E-03 0.  1.
         12    1    3    3    0    0 -0.25762782938E+01 -0.22212809185E+02 -0.19124810318E+02  0.29424555586E+02  0.00000000000E+00 0. -1.
</event>
<event>
 7    1  0.1113211E-011  0.5930195E+02  0.7816164E-02  0.1266605E+00
        -11   -1    0    0    0    0  0.00000000000E+00  0.00000000000E+00  0.45593999997E+02  0.45594000000E+02  0.51100000000E-03 0. -1.
         11   -1    0    0    0    0 -0.00000000000E+00 -0.00000000000E+00 -0.45593999997E+02  0.45594000000E+02  0.51100000000E-03 0.  1.
    9900012    2    1    2    0    0 -0.18020223226E+02  0.18092804683E+02  0.19095603797E+02  0.59301951157E+02  0.50000013002E+02 0.  0.
        -12    1    1    2    0    0  0.18020223226E+02 -0.18092804683E+02 -0.19095603797E+02  0.31886048843E+02  0.00000000000E+00 0.  1.
         11    1    3    3    0    0 -0.24839829385E+02  0.11427047786E+02 -0.29140468827E+01  0.27497021920E+02  0.51100000000E-03 0. -1.
        -11    1    3    3    0    0  0.11634874556E+02  0.11245189674E+02  0.13993395175E+02  0.21392515175E+02  0.51100000000E-03 0.  1.
         12    1    3    3    0    0 -0.48152683973E+01 -0.45794327766E+01  0.80162555049E+01  0.10412414063E+02  0.00000000000E+00 0. -1.
</event>
<event>
 7    1  0.1113211E-011  0.5930195E+02  0.7816164E-02  0.1266605E+00
        -11   -1    0    0    0    0  0.00000000000E+00  0.00000000000E+00  0.45593999997E+02  0.45594000000E+02  0.51100000000E-03 0.  1.
         11   -1    0    0    0    0 -0.00000000000E+00 -0.00000000000E+00 -0.45593999997E+02  0.45594000000E+02  0.51100000000E-03 0. -1.
    9900012    2    1    2    0    0 -0.21218151102E+02  0.98388390580E+01 -0.21672741487E+02  0.59301946406E+02  0.50000004338E+02 0.  0.
        -12    1    1    2    0    0  0.21218151102E+02 -0.98388390580E+01  0.21672741487E+02  0.31886053594E+02  0.00000000000E+00 0.  1.
         11    1    3    3    0    0 -0.13218699428E+01  0.35309320923E+01  0.89295050892E+01  0.96928263673E+01  0.51100000000E-03 0. -1.
        -11    1    3    3    0    0 -0.43101033861E+01 -0.22762565185E+01 -0.31420755147E+02  0.31796575117E+02  0.51100000000E-03 0.  1.
        -12    1    3    3    0    0 -0.15586177774E+02  0.85841634841E+01  0.81850857013E+00  0.17812544922E+02  0.00000000000E+00 0.  1.
</event>
<event>
 7    1  0.1113211E-011  0.5930193E+02  0.7816164E-02  0.1266605E+00
        -11   -1    0    0    0    0  0.00000000000E+00  0.00000000000E+00  0.45593999997E+02  0.45594000000E+02  0.51100000000E-03 0. -1.
         11   -1    0    0    0    0 -0.00000000000E+00 -0.00000000000E+00 -0.45593999997E+02  0.45594000000E+02  0.51100000000E-03 0.  1.
    9900012    2    1    2    0    0 -0.29972641624E+02 -0.10836059799E+02  0.97065240815E+00  0.59301927743E+02  0.49999970301E+02 0.  0.
        -12    1    1    2    0    0  0.29972641624E+02  0.10836059799E+02 -0.97065240815E+00  0.31886072257E+02  0.00000000000E+00 0.  1.
         11    1    3    3    0    0 -0.14685485452E+02  0.14016186406E+02 -0.11051812413E+01  0.20330725274E+02  0.51100000000E-03 0. -1.
        -11    1    3    3    0    0 -0.22441583965E+01 -0.65229327048E+01  0.12422752893E+02  0.14209492872E+02  0.51100000000E-03 0.  1.
         12    1    3    3    0    0 -0.13042997776E+02 -0.18329313500E+02 -0.10346919243E+02  0.24761709597E+02  0.00000000000E+00 0. -1.
</event>
<event>
 7    1  0.1113211E-011  0.5930193E+02  0.7816164E-02  0.1266605E+00
        -11   -1    0    0    0    0  0.00000000000E+00  0.00000000000E+00  0.45593999997E+02  0.45594000000E+02  0.51100000000E-03 0.  1.
         11   -1    0    0    0    0 -0.00000000000E+00 -0.00000000000E+00 -0.45593999997E+02  0.45594000000E+02  0.51100000000E-03 0. -1.
    9900012    2    1    2    0    0  0.12454819919E+02  0.16543893732E+02 -0.24246613649E+02  0.59301933568E+02  0.49999980924E+02 0.  0.
        -12    1    1    2    0    0 -0.12454819919E+02 -0.16543893732E+02  0.24246613649E+02  0.31886066432E+02  0.00000000000E+00 0.  1.
         11    1    3    3    0    0  0.24615334073E+02  0.17035712548E+02 -0.26987637936E+02  0.40304624736E+02  0.51100000000E-03 0. -1.
        -11    1    3    3    0    0  0.18556939756E+00  0.13368095041E+01  0.59577219691E+01  0.61086780054E+01  0.51100000000E-03 0.  1.
         12    1    3    3    0    0 -0.12346083551E+02 -0.18286283195E+01 -0.32166976828E+01  0.12888630826E+02  0.00000000000E+00 0. -1.
</event>
<event>
 7    1  0.1113211E-011  0.5930190E+02  0.7816164E-02  0.1266605E+00
        -11   -1    0    0    0    0  0.00000000000E+00  0.00000000000E+00  0.45593999997E+02  0.45594000000E+02  0.51100000000E-03 0. -1.
         11   -1    0    0    0    0 -0.00000000000E+00 -0.00000000000E+00 -0.45593999997E+02  0.45594000000E+02  0.51100000000E-03 0.  1.
    9900012    2    1    2    0    0 -0.31036208993E+02 -0.70540963376E+01  0.19278826308E+01  0.59301901536E+02  0.49999922505E+02 0.  0.
        -12    1    1    2    0    0  0.31036208993E+02  0.70540963376E+01 -0.19278826308E+01  0.31886098464E+02  0.00000000000E+00 0.  1.
         11    1    3    3    0    0  0.30125160548E+01 -0.17742637834E+01  0.16240919828E+02  0.16612969093E+02  0.51100000000E-03 0. -1.
        -11    1    3    3    0    0 -0.95334792232E+01 -0.88680103980E+01 -0.12165949230E+02  0.17819628375E+02  0.51100000000E-03 0.  1.
         12    1    3    3    0    0 -0.24515245825E+02  0.35881778437E+01 -0.21470879674E+01  0.24869304068E+02  0.00000000000E+00 0. -1.
</event>
<event>
 7    1  0.1113211E-011  0.5930194E+02  0.7816164E-02  0.1266605E+00
        -11   -1    0    0    0    0  0.00000000000E+00  0.00000000000E+00  0.45593999997E+02  0.45594000000E+02  0.51100000000E-03 0.  1.
         11   -1    0    0    0    0 -0.00000000000E+00 -0.00000000000E+00 -0.45593999997E+02  0.45594000000E+02  0.51100000000E-03 0. -1.
    9900012    2    1    2    0    0  0.64359444629E+01  0.10916461799E+02 -0.29259707081E+02  0.59301937562E+02  0.49999988209E+02 0.  0.
        -12    1    1    2    0    0 -0.64359444629E+01 -0.10916461799E+02  0.29259707081E+02  0.31886062438E+02  0.00000000000E+00 0.  1.
         11    1    3    3    0    0  0.16939240423E+02  0.10852744996E+01  0.33002303668E+01  0.17291824877E+02  0.51100000000E-03 0. -1.
        -11    1    3    3    0    0 -0.96738548173E+01  0.13849573649E+02 -0.33746539525E+02  0.37738880316E+02  0.51100000000E-03 0.  1.
        -12    1    3    3    0    0 -0.82944114258E+00 -0.40183863497E+01  0.11866020778E+01  0.42712323697E+01  0.00000000000E+00 0.  1.
</event>
<event>
 7    1  0.1113211E-011  0.5930197E+02  0.7816164E-02  0.1266605E+00
        -11   -1    0    0    0    0  0.00000000000E+00  0.00000000000E+00  0.45593999997E+02  0.45594000000E+02  0.51100000000E-03 0.  1.
         11   -1    0    0    0    0 -0.00000000000E+00 -0.00000000000E+00 -0.45593999997E+02  0.45594000000E+02  0.51100000000E-03 0. -1.
    9900012    2    1    2    0    0 -0.23470060299E+02  0.21303360567E+02 -0.34701579006E+01  0.59301970179E+02  0.50000047694E+02 0.  0.
        -12    1    1    2    0    0  0.23470060299E+02 -0.21303360567E+02  0.34701579006E+01  0.31886029821E+02  0.00000000000E+00 0.  1.
         11    1    3    3    0    0 -0.35214592827E+01 -0.49493973083E+01 -0.19505884264E+02  0.20429800058E+02  0.51100000000E-03 0. -1.
        -11    1    3    3    0    0 -0.18030684728E+02  0.27500366717E+02  0.13766113387E+02  0.35649426915E+02  0.51100000000E-03 0.  1.
        -12    1    3    3    0    0 -0.19179162882E+01 -0.12476088416E+01  0.22696129765E+01  0.32227432062E+01  0.00000000000E+00 0.  1.
</event>
<event>
 7    1  0.1113211E-011  0.5930193E+02  0.7816164E-02  0.1266605E+00
        -11   -1    0    0    0    0  0.00000000000E+00  0.00000000000E+00  0.45593999997E+02  0.45594000000E+02  0.51100000000E-03 0.  1.
         11   -1    0    0    0    0 -0.00000000000E+00 -0.00000000000E+00 -0.45593999997E+02  0.45594000000E+02  0.51100000000E-03 0. -1.
    9900012    2    1    2    0    0 -0.30117013616E+02 -0.33917189102E+01  0.99087299664E+01  0.59301934142E+02  0.49999981971E+02 0.  0.
        -12    1    1    2    0    0  0.30117013616E+02  0.33917189102E+01 -0.99087299664E+01  0.31886065858E+02  0.00000000000E+00 0.  1.
         11    1    3    3    0    0 -0.19251263505E+02 -0.21229692784E+01  0.43891124999E+01  0.19859064779E+02  0.51100000000E-03 0. -1.
        -11    1    3    3    0    0  0.68919454432E+01 -0.14263379688E+02 -0.24704837671E+01  0.16032660491E+02  0.51100000000E-03 0.  1.
        -12    1    3    3    0    0 -0.17757695555E+02  0.12994630057E+02  0.79901012336E+01  0.23410208872E+02  0.00000000000E+00 0.  1.
</event>
<event>
 7    1  0.1113211E-011  0.5930196E+02  0.7816164E-02  0.1266605E+00
        -11   -1    0    0    0    0  0.00000000000E+00  0.00000000000E+00  0.45593999997E+02  0.45594000000E+02  0.51100000000E-03 0. -1.
         11   -1    0    0    0    0 -0.00000000000E+00 -0.00000000000E+00 -0.45593999997E+02  0.45594000000E+02  0.51100000000E-03 0.  1.
    9900012    2    1    2    0    0 -0.16885918799E+02 -0.44004783025E+01  0.26687473972E+02  0.59301957129E+02  0.50000023893E+02 0.  0.
        -12    1    1    2    0    0  0.16885918799E+02  0.44004783025E+01 -0.26687473972E+02  0.31886042871E+02  0.00000000000E+00 0.  1.
         11    1    3    3    0    0 -0.14035867165E+02 -0.10380402877E+01  0.39363989398E+02  0.41804386807E+02  0.51100000000E-03 0. -1.
        -11    1    3    3    0    0 -0.10140693560E+00 -0.72769826716E+01 -0.75913916856E+01  0.10516367631E+02  0.51100000000E-03 0.  1.
         12    1    3    3    0    0 -0.27486446982E+01  0.39145446569E+01 -0.50851237403E+01  0.69812026902E+01  0.00000000000E+00 0. -1.
</event>
<event>
 7    1  0.1113211E-011  0.5930202E+02  0.7816164E-02  0.1266605E+00
        -11   -1    0    0    0    0  0.00000000000E+00  0.00000000000E+00  0.45593999997E+02  0.45594000000E+02  0.51100000000E-03 0.  1.
         11   -1    0    0    0    0 -0.00000000000E+00 -0.00000000000E+00 -0.45593999997E+02  0.45594000000E+02  0.51100000000E-03 0. -1.
    9900012    2    1    2    0    0 -0.53521283104E+01  0.31295749928E+02 -0.29405095992E+01  0.59302018163E+02  0.50000135205E+02 0.  0.
        -12    1    1    2    0    0  0.53521283104E+01 -0.31295749928E+02  0.29405095992E+01  0.31885981837E+02  0.00000000000E+00 0.  1.
         11    1    3    3    0    0  0.87111980930E+01  0.18063069351E+02  0.25152996339E+01  0.20211041020E+02  0.51100000000E-03 0. -1.
        -11    1    3    3    0    0 -0.20367776135E+02  0.11670912471E+02 -0.14770891360E+02  0.27735099323E+02  0.51100000000E-03 0.  1.
        -12    1    3    3    0    0  0.63044497319E+01  0.15617681060E+01  0.93150821272E+01  0.11355877821E+02  0.00000000000E+00 0.  1.
</event>
<event>
 7    1  0.1113211E-011  0.5930193E+02  0.7816164E-02  0.1266605E+00
        -11   -1    0    0    0    0  0.00000000000E+00  0.00000000000E+00  0.45593999997E+02  0.45594000000E+02  0.51100000000E-03 0.  1.
         11   -1    0    0    0    0 -0.00000000000E+00 -0.00000000000E+00 -0.45593999997E+02  0.45594000000E+02  0.51100000000E-03 0. -1.
    9900012    2    1    2    0    0 -0.28948440603E+01 -0.19946192953E+02 -0.24708107488E+02  0.59301932335E+02  0.49999978676E+02 0.  0.
        -12    1    1    2    0    0  0.28948440603E+01  0.19946192953E+02  0.24708107488E+02  0.31886067665E+02  0.00000000000E+00 0.  1.
         11    1    3    3    0    0 -0.19836901298E+02  0.23107883935E+01 -0.19367276485E+01  0.20064728016E+02  0.51100000000E-03 0. -1.
        -11    1    3    3    0    0  0.10580568431E+01 -0.98008297317E+01 -0.16029462260E+01  0.99872511021E+01  0.51100000000E-03 0.  1.
         12    1    3    3    0    0  0.15884000394E+02 -0.12456151615E+02 -0.21168433614E+02  0.29249953218E+02  0.00000000000E+00 0. -1.
</event>
<event>
 7    1  0.1113211E-011  0.5930192E+02  0.7816164E-02  0.1266605E+00
        -11   -1    0    0    0    0  0.00000000000E+00  0.00000000000E+00  0.45593999997E+02  0.45594000000E+02  0.51100000000E-03 0.  1.
         11   -1    0    0    0    0 -0.00000000000E+00 -0.00000000000E+00 -0.45593999997E+02  0.45594000000E+02  0.51100000000E-03 0. -1.
    9900012    2    1    2    0    0  0.24802335689E+01  0.16451405257E+02 -0.27201500196E+02  0.59301923000E+02  0.49999961651E+02 0.  0.
        -12    1    1    2    0    0 -0.24802335689E+01 -0.16451405257E+02  0.27201500196E+02  0.31886077000E+02  0.00000000000E+00 0.  1.
         11    1    3    3    0    0  0.22539826091E+01 -0.99006582194E+01 -0.15312771771E+02  0.18373471374E+02  0.51100000000E-03 0. -1.
        -11    1    3    3    0    0 -0.36133414155E+01  0.30066753684E+02 -0.15941496041E+02  0.34222758650E+02  0.51100000000E-03 0.  1.
        -12    1    3    3    0    0  0.38395923753E+01 -0.37146902080E+01  0.40527676154E+01  0.67056929764E+01  0.00000000000E+00 0.  1.
</event>
<event>
 7    1  0.1113211E-011  0.5930197E+02  0.7816164E-02  0.1266605E+00
        -11   -1    0    0    0    0  0.00000000000E+00  0.00000000000E+00  0.45593999997E+02  0.45594000000E+02  0.51100000000E-03 0. -1.
         11   -1    0    0    0    0 -0.00000000000E+00 -0.00000000000E+00 -0.45593999997E+02  0.45594000000E+02  0.51100000000E-03 0.  1.
    9900012    2    1    2    0    0 -0.26893434976E+02 -0.22872918342E+01  0.16977356961E+02  0.59301965469E+02  0.50000039104E+02 0.  0.
        -12    1    1    2    0    0  0.26893434976E+02  0.22872918342E+01 -0.16977356961E+02  0.31886034531E+02  0.00000000000E+00 0.  1.
         11    1    3    3    0    0  0.23363456366E+01  0.59975595699E+01  0.17668197322E+02  0.18804106695E+02  0.51100000000E-03 0.  1.
        -11    1    3    3    0    0 -0.29587920630E+02 -0.14044807117E+02  0.40863645976E+01  0.33006060505E+02  0.51100000000E-03 0. -1.
        -12    1    3    3    0    0  0.35814001804E+00  0.57599557131E+01 -0.47772049583E+01  0.74917982690E+01  0.00000000000E+00 0.  1.
</event>
<event>
 7    1  0.1113211E-011  0.5930194E+02  0.7816164E-02  0.1266605E+00
        -11   -1    0    0    0    0  0.00000000000E+00  0.00000000000E+00  0.45593999997E+02  0.45594000000E+02  0.51100000000E-03 0.  1.
         11   -1    0    0    0    0 -0.00000000000E+00 -0.00000000000E+00 -0.45593999997E+02  0.45594000000E+02  0.51100000000E-03 0. -1.
    9900012    2    1    2    0    0 -0.26605106804E+01  0.86042087635E+00 -0.31763218471E+02  0.59301942094E+02  0.49999996473E+02 0.  0.
        -12    1    1    2    0    0  0.26605106804E+01 -0.86042087635E+00  0.31763218471E+02  0.31886057906E+02  0.00000000000E+00 0.  1.
         11    1    3    3    0    0  0.14232039137E+02  0.73732153113E+01 -0.21520940191E+02  0.26834047570E+02  0.51100000000E-03 0. -1.
        -11    1    3    3    0    0 -0.11423714122E+02  0.93761193516E+00  0.66217679220E+01  0.13237377806E+02  0.51100000000E-03 0.  1.
        -12    1    3    3    0    0 -0.54688356953E+01 -0.74504063701E+01 -0.16864046202E+02  0.19230516718E+02  0.00000000000E+00 0.  1.
</event>
<event>
 7    1  0.1113211E-011  0.5930195E+02  0.7816164E-02  0.1266605E+00
        -11   -1    0    0    0    0  0.00000000000E+00  0.00000000000E+00  0.45593999997E+02  0.45594000000E+02  0.51100000000E-03 0.  1.
         11   -1    0    0    0    0 -0.00000000000E+00 -0.00000000000E+00 -0.45593999997E+02  0.45594000000E+02  0.51100000000E-03 0. -1.
    9900012    2    1    2    0    0  0.15508356797E+01  0.55397408506E+01 -0.31362822130E+02  0.59301946122E+02  0.50000003819E+02 0.  0.
        -12    1    1    2    0    0 -0.15508356797E+01 -0.55397408506E+01  0.31362822130E+02  0.31886053878E+02  0.00000000000E+00 0.  1.
         11    1    3    3    0    0  0.34233718509E+01 -0.14413047328E+02 -0.21918218449E+02  0.26454937315E+02  0.51100000000E-03 0. -1.
        -11    1    3    3    0    0  0.10329119679E+02  0.14526541586E+02 -0.32169816964E+01  0.18112429304E+02  0.51100000000E-03 0.  1.
         12    1    3    3    0    0 -0.12201655850E+02  0.54262465925E+01 -0.62276219847E+01  0.14734579503E+02  0.00000000000E+00 0. -1.
</event>
<event>
 7    1  0.1113211E-011  0.5930193E+02  0.7816164E-02  0.1266605E+00
        -11   -1    0    0    0    0  0.00000000000E+00  0.00000000000E+00  0.45593999997E+02  0.45594000000E+02  0.51100000000E-03 0.  1.
         11   -1    0    0    0    0 -0.00000000000E+00 -0.00000000000E+00 -0.45593999997E+02  0.45594000000E+02  0.51100000000E-03 0. -1.
    9900012    2    1    2    0    0 -0.30482626292E+02 -0.57577045750E+01 -0.73742681535E+01  0.59301929398E+02  0.49999973318E+02 0.  0.
        -12    1    1    2    0    0  0.30482626292E+02  0.57577045750E+01  0.73742681535E+01  0.31886070602E+02  0.00000000000E+00 0.  1.
         11    1    3    3    0    0 -0.28713064765E+02 -0.80597737116E+01 -0.21472688958E+01  0.29900013453E+02  0.51100000000E-03 0. -1.
        -11    1    3    3    0    0  0.45183672323E+01  0.46559112620E+01 -0.15685178689E+02  0.16974038497E+02  0.51100000000E-03 0.  1.
        -12    1    3    3    0    0 -0.62879287593E+01 -0.23538421255E+01  0.10458179432E+02  0.12427877448E+02  0.00000000000E+00 0.  1.
</event>
<event>
 7    1  0.1113211E-011  0.5930187E+02  0.7816164E-02  0.1266605E+00
        -11   -1    0    0    0    0  0.00000000000E+00  0.00000000000E+00  0.45593999997E+02  0.45594000000E+02  0.51100000000E-03 0.  1.
         11   -1    0    0    0    0 -0.00000000000E+00 -0.00000000000E+00 -0.45593999997E+02  0.45594000000E+02  0.51100000000E-03 0. -1.
    9900012    2    1    2    0    0  0.19559854575E+02 -0.71552689721E+00 -0.25171921919E+02  0.59301865979E+02  0.49999857657E+02 0.  0.
        -12    1    1    2    0    0 -0.19559854575E+02  0.71552689721E+00  0.25171921919E+02  0.31886134021E+02  0.00000000000E+00 0.  1.
         11    1    3    3    0    0  0.68832261992E+01  0.12818628459E+02 -0.17000565887E+02  0.22376668188E+02  0.51100000000E-03 0. -1.
        -11    1    3    3    0    0  0.21381154876E+02 -0.16135982267E+02 -0.46800871236E+01  0.27192405618E+02  0.51100000000E-03 0.  1.
         12    1    3    3    0    0 -0.87045265005E+01  0.26018269112E+01 -0.34912689084E+01  0.97327921721E+01  0.00000000000E+00 0. -1.
</event>
<event>
 7    1  0.1113211E-011  0.5930195E+02  0.7816164E-02  0.1266605E+00
        -11   -1    0    0    0    0  0.00000000000E+00  0.00000000000E+00  0.45593999997E+02  0.45594000000E+02  0.51100000000E-03 0.  1.
         11   -1    0    0    0    0 -0.00000000000E+00 -0.00000000000E+00 -0.45593999997E+02  0.45594000000E+02  0.51100000000E-03 0. -1.
    9900012    2    1    2    0    0  0.20240672244E+02 -0.20003476084E+02 -0.14383889275E+02  0.59301950715E+02  0.50000012196E+02 0.  0.
        -12    1    1    2    0    0 -0.20240672244E+02  0.20003476084E+02  0.14383889275E+02  0.31886049285E+02  0.00000000000E+00 0.  1.
         11    1    3    3    0    0  0.32899782708E+01  0.45466477862E+01  0.90418255622E+01  0.10641925243E+02  0.51100000000E-03 0. -1.
        -11    1    3    3    0    0 -0.86598039193E+01 -0.47104944155E+01 -0.27726651695E+01  0.10240538754E+02  0.51100000000E-03 0.  1.
         12    1    3    3    0    0  0.25610497893E+02 -0.19839629454E+02 -0.20653049667E+02  0.38419486719E+02  0.00000000000E+00 0. -1.
</event>
<event>
 7    1  0.1113211E-011  0.5930199E+02  0.7816164E-02  0.1266605E+00
        -11   -1    0    0    0    0  0.00000000000E+00  0.00000000000E+00  0.45593999997E+02  0.45594000000E+02  0.51100000000E-03 0. -1.
         11   -1    0    0    0    0 -0.00000000000E+00 -0.00000000000E+00 -0.45593999997E+02  0.45594000000E+02  0.51100000000E-03 0.  1.
    9900012    2    1    2    0    0  0.29220737451E+02  0.11813710696E+02 -0.48272438816E+01  0.59301991453E+02  0.50000086492E+02 0.  0.
        -12    1    1    2    0    0 -0.29220737451E+02 -0.11813710696E+02  0.48272438816E+01  0.31886008547E+02  0.00000000000E+00 0.  1.
         11    1    3    3    0    0  0.22504689735E+02  0.11126284309E+02 -0.94243277816E-01  0.25105062132E+02  0.51100000000E-03 0. -1.
        -11    1    3    3    0    0  0.14305162431E+02 -0.12196047666E+02 -0.40441236646E+01  0.19228525355E+02  0.51100000000E-03 0.  1.
        -12    1    3    3    0    0 -0.75891147157E+01  0.12883474053E+02 -0.68887693916E+00  0.14968403966E+02  0.00000000000E+00 0.  1.
</event>
<event>
 7    1  0.1113211E-011  0.5930199E+02  0.7816164E-02  0.1266605E+00
        -11   -1    0    0    0    0  0.00000000000E+00  0.00000000000E+00  0.45593999997E+02  0.45594000000E+02  0.51100000000E-03 0. -1.
         11   -1    0    0    0    0 -0.00000000000E+00 -0.00000000000E+00 -0.45593999997E+02  0.45594000000E+02  0.51100000000E-03 0.  1.
    9900012    2    1    2    0    0  0.68461979780E+01 -0.24114016677E+02  0.19706881489E+02  0.59301993585E+02  0.50000090381E+02 0.  0.
        -12    1    1    2    0    0 -0.68461979780E+01  0.24114016677E+02 -0.19706881489E+02  0.31886006415E+02  0.00000000000E+00 0.  1.
         11    1    3    3    0    0 -0.35719545086E+01 -0.11644655578E+01  0.30022904319E+02  0.30257059061E+02  0.51100000000E-03 0. -1.
        -11    1    3    3    0    0  0.53425394574E+01 -0.51054166703E+01 -0.70392235386E+01  0.10205815769E+02  0.51100000000E-03 0.  1.
         12    1    3    3    0    0  0.50756130291E+01 -0.17844134449E+02 -0.32767992912E+01  0.18839118755E+02  0.00000000000E+00 0. -1.
</event>
<event>
 7    1  0.1113211E-011  0.5930193E+02  0.7816164E-02  0.1266605E+00
        -11   -1    0    0    0    0  0.00000000000E+00  0.00000000000E+00  0.45593999997E+02  0.45594000000E+02  0.51100000000E-03 0.  1.
         11   -1    0    0    0    0 -0.00000000000E+00 -0.00000000000E+00 -0.45593999997E+02  0.45594000000E+02  0.51100000000E-03 0. -1.
    9900012    2    1    2    0    0  0.17251999085E+02  0.12115292751E+02 -0.23922997743E+02  0.59301927619E+02  0.49999970075E+02 0.  0.
        -12    1    1    2    0    0 -0.17251999085E+02 -0.12115292751E+02  0.23922997743E+02  0.31886072381E+02  0.00000000000E+00 0.  1.
         11    1    3    3    0    0 -0.59675562420E+01  0.71491328489E+00 -0.18333040087E+02  0.19293086523E+02  0.51100000000E-03 0. -1.
        -11    1    3    3    0    0  0.10218083389E+02  0.18913397840E+02  0.44402769222E+01  0.21950897599E+02  0.51100000000E-03 0.  1.
        -12    1    3    3    0    0  0.13001471939E+02 -0.75130183737E+01 -0.10030234578E+02  0.18057943497E+02  0.00000000000E+00 0.  1.
</event>
<event>
 7    1  0.1113211E-011  0.5930194E+02  0.7816164E-02  0.1266605E+00
        -11   -1    0    0    0    0  0.00000000000E+00  0.00000000000E+00  0.45593999997E+02  0.45594000000E+02  0.51100000000E-03 0.  1.
         11   -1    0    0    0    0 -0.00000000000E+00 -0.00000000000E+00 -0.45593999997E+02  0.45594000000E+02  0.51100000000E-03 0. -1.
    9900012    2    1    2    0    0 -0.11046779008E+02 -0.36808389094E+00 -0.29909098961E+02  0.59301937012E+02  0.49999987205E+02 0.  0.
        -12    1    1    2    0    0  0.11046779008E+02  0.36808389094E+00  0.29909098961E+02  0.31886062988E+02  0.00000000000E+00 0.  1.
         11    1    3    3    0    0 -0.61303298467E+01 -0.20006947363E+02 -0.97855759595E+01  0.23100138180E+02  0.51100000000E-03 0.  1.
        -11    1    3    3    0    0  0.53808037999E+01  0.18103255248E+02 -0.16789377047E+02  0.25269825524E+02  0.51100000000E-03 0. -1.
         12    1    3    3    0    0 -0.10297252961E+02  0.15356082240E+01 -0.33341459542E+01  0.10931973308E+02  0.00000000000E+00 0. -1.
</event>
<event>
 7    1  0.1113211E-011  0.5930188E+02  0.7816164E-02  0.1266605E+00
        -11   -1    0    0    0    0  0.00000000000E+00  0.00000000000E+00  0.45593999997E+02  0.45594000000E+02  0.51100000000E-03 0.  1.
         11   -1    0    0    0    0 -0.00000000000E+00 -0.00000000000E+00 -0.45593999997E+02  0.45594000000E+02  0.51100000000E-03 0. -1.
    9900012    2    1    2    0    0  0.18232252125E+02 -0.21918045607E+02 -0.14279657492E+02  0.59301884544E+02  0.49999891517E+02 0.  0.
        -12    1    1    2    0    0 -0.18232252125E+02  0.21918045607E+02  0.14279657492E+02  0.31886115456E+02  0.00000000000E+00 0.  1.
         11    1    3    3    0    0 -0.22313055039E+01 -0.73841193167E+01 -0.10503557422E+02  0.13031832608E+02  0.51100000000E-03 0. -1.
        -11    1    3    3    0    0  0.11341617280E+02 -0.10133377634E+02  0.17210290017E+02  0.22967623027E+02  0.51100000000E-03 0.  1.
        -12    1    3    3    0    0  0.91219403483E+01 -0.44005486564E+01 -0.20986390087E+02  0.23302428909E+02  0.00000000000E+00 0.  1.
</event>
<event>
 7    1  0.1113211E-011  0.5930193E+02  0.7816164E-02  0.1266605E+00
        -11   -1    0    0    0    0  0.00000000000E+00  0.00000000000E+00  0.45593999997E+02  0.45594000000E+02  0.51100000000E-03 0. -1.
         11   -1    0    0    0    0 -0.00000000000E+00 -0.00000000000E+00 -0.45593999997E+02  0.45594000000E+02  0.51100000000E-03 0.  1.
    9900012    2    1    2    0    0  0.11703890877E+02  0.14373379079E+02  0.25945065097E+02  0.59301929520E+02  0.49999973540E+02 0.  0.
        -12    1    1    2    0    0 -0.11703890877E+02 -0.14373379079E+02 -0.25945065097E+02  0.31886070480E+02  0.00000000000E+00 0.  1.
         11    1    3    3    0    0  0.41825831908E+00 -0.14770261971E+02  0.23443664788E+01  0.14961003749E+02  0.51100000000E-03 0. -1.
        -11    1    3    3    0    0  0.14829026133E+02  0.11281134121E+02  0.76830802806E+01  0.20154248336E+02  0.51100000000E-03 0.  1.
         12    1    3    3    0    0 -0.35433935746E+01  0.17862506929E+02  0.15917618337E+02  0.24186677435E+02  0.00000000000E+00 0. -1.
</event>
<event>
 7    1  0.1113211E-011  0.5930194E+02  0.7816164E-02  0.1266605E+00
        -11   -1    0    0    0    0  0.00000000000E+00  0.00000000000E+00  0.45593999997E+02  0.45594000000E+02  0.51100000000E-03 0. -1.
         11   -1    0    0    0    0 -0.00000000000E+00 -0.00000000000E+00 -0.45593999997E+02  0.45594000000E+02  0.51100000000E-03 0.  1.
    9900012    2    1    2    0    0  0.20553748230E+01 -0.27325724477E+02  0.16303407883E+02  0.59301938901E+02  0.49999990650E+02 0.  0.
        -12    1    1    2    0    0 -0.20553748230E+01  0.27325724477E+02 -0.16303407883E+02  0.31886061099E+02  0.00000000000E+00 0.  1.
         11    1    3    3    0    0 -0.13496190188E+02 -0.29136056919E+02  0.10932306381E+02  0.33920086755E+02  0.51100000000E-03 0. -1.
        -11    1    3    3    0    0  0.31510495030E+01  0.27030426211E+01 -0.68104711538E+01  0.79760936541E+01  0.51100000000E-03 0.  1.
         12    1    3    3    0    0  0.12400515508E+02 -0.89271017846E+00  0.12181572655E+02  0.17405758492E+02  0.00000000000E+00 0. -1.
</event>
<event>
 7    1  0.1113211E-011  0.5930195E+02  0.7816164E-02  0.1266605E+00
        -11   -1    0    0    0    0  0.00000000000E+00  0.00000000000E+00  0.45593999997E+02  0.45594000000E+02  0.51100000000E-03 0. -1.
         11   -1    0    0    0    0 -0.00000000000E+00 -0.00000000000E+00 -0.45593999997E+02  0.45594000000E+02  0.51100000000E-03 0.  1.
    9900012    2    1    2    0    0 -0.20716071907E+02  0.19201329095E+02  0.14794382660E+02  0.59301946113E+02  0.50000003802E+02 0.  0.
        -12    1    1    2    0    0  0.20716071907E+02 -0.19201329095E+02 -0.14794382660E+02  0.31886053887E+02  0.00000000000E+00 0.  1.
         11    1    3    3    0    0  0.49343825272E+00  0.22889667877E+02  0.12370537997E+02  0.26023270114E+02  0.51100000000E-03 0. -1.
        -11    1    3    3    0    0 -0.21323858189E+02  0.60672128136E-01 -0.75514295135E+01  0.22621553818E+02  0.51100000000E-03 0.  1.
         12    1    3    3    0    0  0.11434803001E+00 -0.37490109109E+01  0.99752741756E+01  0.10657122180E+02  0.00000000000E+00 0. -1.
</event>
<event>
 7    1  0.1113211E-011  0.5930196E+02  0.7816164E-02  0.1266605E+00
        -11   -1    0    0    0    0  0.00000000000E+00  0.00000000000E+00  0.45593999997E+02  0.45594000000E+02  0.51100000000E-03 0.  1.
         11   -1    0    0    0    0 -0.00000000000E+00 -0.00000000000E+00 -0.45593999997E+02  0.45594000000E+02  0.51100000000E-03 0. -1.
    9900012    2    1    2    0    0  0.10719797508E+02  0.68660522287E+01 -0.29234622038E+02  0.59301955129E+02  0.50000020246E+02 0.  0.
        -12    1    1    2    0    0 -0.10719797508E+02 -0.68660522287E+01  0.29234622038E+02  0.31886044871E+02  0.00000000000E+00 0.  1.
         11    1    3    3    0    0 -0.11764587943E+01 -0.86975082780E+01  0.94631402424E+01  0.12906654448E+02  0.51100000000E-03 0.  1.
        -11    1    3    3    0    0  0.82898737864E+01  0.12170758488E+02 -0.38739217458E+02  0.41443652579E+02  0.51100000000E-03 0. -1.
         12    1    3    3    0    0  0.36063825158E+01  0.33928020187E+01  0.41455178093E-01  0.49516481014E+01  0.00000000000E+00 0. -1.
</event>
<event>
 7    1  0.1113211E-011  0.5930196E+02  0.7816164E-02  0.1266605E+00
        -11   -1    0    0    0    0  0.00000000000E+00  0.00000000000E+00  0.45593999997E+02  0.45594000000E+02  0.51100000000E-03 0.  1.
         11   -1    0    0    0    0 -0.00000000000E+00 -0.00000000000E+00 -0.45593999997E+02  0.45594000000E+02  0.51100000000E-03 0. -1.
    9900012    2    1    2    0    0 -0.10749124080E+02  0.16535377861E+02 -0.25055084328E+02  0.59301958537E+02  0.50000026461E+02 0.  0.
        -12    1    1    2    0    0  0.10749124080E+02 -0.16535377861E+02  0.25055084328E+02  0.31886041463E+02  0.00000000000E+00 0.  1.
         11    1    3    3    0    0  0.55773083037E+01  0.16787635792E+01  0.36563108054E+01  0.68770069097E+01  0.51100000000E-03 0. -1.
        -11    1    3    3    0    0 -0.28020951995E+02  0.13635313375E+02 -0.15720801003E+02  0.34903282166E+02  0.51100000000E-03 0.  1.
        -12    1    3    3    0    0  0.11694519611E+02  0.12213009064E+01 -0.12990594131E+02  0.17521669461E+02  0.00000000000E+00 0.  1.
</event>
<event>
 7    1  0.1113211E-011  0.5930197E+02  0.7816164E-02  0.1266605E+00
        -11   -1    0    0    0    0  0.00000000000E+00  0.00000000000E+00  0.45593999997E+02  0.45594000000E+02  0.51100000000E-03 0.  1.
         11   -1    0    0    0    0 -0.00000000000E+00 -0.00000000000E+00 -0.45593999997E+02  0.45594000000E+02  0.51100000000E-03 0. -1.
    9900012    2    1    2    0    0  0.83694982097E+01  0.26879026910E+02 -0.14972929000E+02  0.59301965585E+02  0.50000039314E+02 0.  0.
        -12    1    1    2    0    0 -0.83694982097E+01 -0.26879026910E+02  0.14972929000E+02  0.31886034415E+02  0.00000000000E+00 0.  1.
         11    1    3    3    0    0 -0.47284860027E+01  0.25916244699E+02 -0.24162405064E+02  0.35746778007E+02  0.51100000000E-03 0. -1.
        -11    1    3    3    0    0  0.98950153180E+01 -0.71794559259E+01  0.23486097724E+01  0.12448770367E+02  0.51100000000E-03 0.  1.
         12    1    3    3    0    0  0.32029688943E+01  0.81422381369E+01  0.68408662917E+01  0.11106417210E+02  0.00000000000E+00 0. -1.
</event>
<event>
 7    1  0.1113211E-011  0.5930208E+02  0.7816164E-02  0.1266604E+00
        -11   -1    0    0    0    0  0.00000000000E+00  0.00000000000E+00  0.45593999997E+02  0.45594000000E+02  0.51100000000E-03 0.  1.
         11   -1    0    0    0    0 -0.00000000000E+00 -0.00000000000E+00 -0.45593999997E+02  0.45594000000E+02  0.51100000000E-03 0. -1.
    9900012    2    1    2    0    0  0.12262777566E+02  0.26079792518E+02 -0.13644796638E+02  0.59302082000E+02  0.50000251628E+02 0.  0.
        -12    1    1    2    0    0 -0.12262777566E+02 -0.26079792518E+02  0.13644796638E+02  0.31885918000E+02  0.00000000000E+00 0.  1.
         11    1    3    3    0    0 -0.13547418074E+02  0.16680578482E+02 -0.19403837534E+02  0.28953119802E+02  0.51100000000E-03 0. -1.
        -11    1    3    3    0    0  0.79534145426E+01 -0.11544685777E+01 -0.18641685332E+01  0.82501348573E+01  0.51100000000E-03 0.  1.
         12    1    3    3    0    0  0.17856781097E+02  0.10553682614E+02  0.76232094285E+01  0.22098827341E+02  0.00000000000E+00 0. -1.
</event>
<event>
 7    1  0.1113211E-011  0.5930222E+02  0.7816164E-02  0.1266604E+00
        -11   -1    0    0    0    0  0.00000000000E+00  0.00000000000E+00  0.45593999997E+02  0.45594000000E+02  0.51100000000E-03 0.  1.
         11   -1    0    0    0    0 -0.00000000000E+00 -0.00000000000E+00 -0.45593999997E+02  0.45594000000E+02  0.51100000000E-03 0. -1.
    9900012    2    1    2    0    0  0.80614131381E+00  0.12628745635E+02 -0.29267182679E+02  0.59302218496E+02  0.50000500563E+02 0.  0.
        -12    1    1    2    0    0 -0.80614131381E+00 -0.12628745635E+02  0.29267182679E+02  0.31885781504E+02  0.00000000000E+00 0.  1.
         11    1    3    3    0    0 -0.16490211745E+02 -0.42542409844E+01 -0.16918581486E+02  0.24005500401E+02  0.51100000000E-03 0.  1.
        -11    1    3    3    0    0  0.16561520684E+02  0.12130373865E+02 -0.18399449722E+02  0.27567547729E+02  0.51100000000E-03 0. -1.
        -12    1    3    3    0    0  0.73483237397E+00  0.47526127551E+01  0.60508485297E+01  0.77291703660E+01  0.00000000000E+00 0.  1.
</event>
<event>
 7    1  0.1113211E-011  0.5930195E+02  0.7816164E-02  0.1266605E+00
        -11   -1    0    0    0    0  0.00000000000E+00  0.00000000000E+00  0.45593999997E+02  0.45594000000E+02  0.51100000000E-03 0. -1.
         11   -1    0    0    0    0 -0.00000000000E+00 -0.00000000000E+00 -0.45593999997E+02  0.45594000000E+02  0.51100000000E-03 0.  1.
    9900012    2    1    2    0    0  0.72614619047E+01  0.30921488456E+02  0.28023393866E+01  0.59301946883E+02  0.50000005207E+02 0.  0.
        -12    1    1    2    0    0 -0.72614619047E+01 -0.30921488456E+02 -0.28023393866E+01  0.31886053117E+02  0.00000000000E+00 0.  1.
         11    1    3    3    0    0  0.75345962566E+01  0.27329340640E+02  0.23654865062E+02  0.36921750255E+02  0.51100000000E-03 0. -1.
        -11    1    3    3    0    0  0.28866617874E+01  0.39323834091E+01 -0.14027752677E+02  0.14851744038E+02  0.51100000000E-03 0.  1.
         12    1    3    3    0    0 -0.31597961393E+01 -0.34023559220E+00 -0.68247729987E+01  0.75284525890E+01  0.00000000000E+00 0. -1.
</event>
<event>
 7    1  0.1113211E-011  0.5930191E+02  0.7816164E-02  0.1266605E+00
        -11   -1    0    0    0    0  0.00000000000E+00  0.00000000000E+00  0.45593999997E+02  0.45594000000E+02  0.51100000000E-03 0.  1.
         11   -1    0    0    0    0 -0.00000000000E+00 -0.00000000000E+00 -0.45593999997E+02  0.45594000000E+02  0.51100000000E-03 0. -1.
    9900012    2    1    2    0    0 -0.12906368718E+02 -0.25050179527E+02 -0.14921016306E+02  0.59301912509E+02  0.49999942518E+02 0.  0.
        -12    1    1    2    0    0  0.12906368718E+02  0.25050179527E+02  0.14921016306E+02  0.31886087491E+02  0.00000000000E+00 0.  1.
         11    1    3    3    0    0 -0.45316849785E+01 -0.20262370933E+02 -0.16586807157E+02  0.26574838033E+02  0.51100000000E-03 0. -1.
        -11    1    3    3    0    0  0.98907102366E+01  0.57299613599E+01 -0.10358574912E+01  0.11477439051E+02  0.51100000000E-03 0.  1.
        -12    1    3    3    0    0 -0.18265393976E+02 -0.10517769955E+02  0.27016483423E+01  0.21249635425E+02  0.00000000000E+00 0.  1.
</event>
<event>
 7    1  0.1113211E-011  0.5930195E+02  0.7816164E-02  0.1266605E+00
        -11   -1    0    0    0    0  0.00000000000E+00  0.00000000000E+00  0.45593999997E+02  0.45594000000E+02  0.51100000000E-03 0.  1.
         11   -1    0    0    0    0 -0.00000000000E+00 -0.00000000000E+00 -0.45593999997E+02  0.45594000000E+02  0.51100000000E-03 0. -1.
    9900012    2    1    2    0    0 -0.15500804436E+02 -0.16293287073E+02 -0.22604739532E+02  0.59301946762E+02  0.50000004986E+02 0.  0.
        -12    1    1    2    0    0  0.15500804436E+02  0.16293287073E+02  0.22604739532E+02  0.31886053238E+02  0.00000000000E+00 0.  1.
         11    1    3    3    0    0 -0.33643253578E+01 -0.77639782358E+01  0.37319993078E+01  0.92480193692E+01  0.51100000000E-03 0. -1.
        -11    1    3    3    0    0  0.75638440329E+01  0.42391347229E+01 -0.25088388899E+02  0.26544476969E+02  0.51100000000E-03 0.  1.
        -12    1    3    3    0    0 -0.19700323111E+02 -0.12768443560E+02 -0.12483499408E+01  0.23509450423E+02  0.00000000000E+00 0.  1.
</event>
<event>
 7    1  0.1113211E-011  0.5930194E+02  0.7816164E-02  0.1266605E+00
        -11   -1    0    0    0    0  0.00000000000E+00  0.00000000000E+00  0.45593999997E+02  0.45594000000E+02  0.51100000000E-03 0.  1.
         11   -1    0    0    0    0 -0.00000000000E+00 -0.00000000000E+00 -0.45593999997E+02  0.45594000000E+02  0.51100000000E-03 0. -1.
    9900012    2    1    2    0    0  0.73844835973E+01 -0.49531907818E+01 -0.30621176009E+02  0.59301935378E+02  0.49999984225E+02 0.  0.
        -12    1    1    2    0    0 -0.73844835973E+01  0.49531907818E+01  0.30621176009E+02  0.31886064622E+02  0.00000000000E+00 0.  1.
         11    1    3    3    0    0 -0.15283141443E+02 -0.62595173251E+01 -0.92207322790E+01  0.18915017143E+02  0.51100000000E-03 0. -1.
        -11    1    3    3    0    0  0.27729834709E+02  0.28662143540E+01 -0.21309190771E+02  0.35089037167E+02  0.51100000000E-03 0.  1.
        -12    1    3    3    0    0 -0.50622096690E+01 -0.15598878108E+01 -0.91252958822E-01  0.52978810686E+01  0.00000000000E+00 0.  1.
</event>
<event>
 7    1  0.1113211E-011  0.5930195E+02  0.7816164E-02  0.1266605E+00
        -11   -1    0    0    0    0  0.00000000000E+00  0.00000000000E+00  0.45593999997E+02  0.45594000000E+02  0.51100000000E-03 0.  1.
         11   -1    0    0    0    0 -0.00000000000E+00 -0.00000000000E+00 -0.45593999997E+02  0.45594000000E+02  0.51100000000E-03 0. -1.
    9900012    2    1    2    0    0  0.20041957857E+02  0.97862995014E+01 -0.22787467077E+02  0.59301946803E+02  0.50000005062E+02 0.  0.
        -12    1    1    2    0    0 -0.20041957857E+02 -0.97862995014E+01  0.22787467077E+02  0.31886053197E+02  0.00000000000E+00 0.  1.
         11    1    3    3    0    0  0.12051706368E+02 -0.15374505844E+02 -0.45325011536E+00  0.19540329891E+02  0.51100000000E-03 0. -1.
        -11    1    3    3    0    0 -0.20048037785E+01  0.83057313812E+01 -0.17656577573E+02  0.19615278327E+02  0.51100000000E-03 0.  1.
         12    1    3    3    0    0  0.99950552678E+01  0.16855073964E+02 -0.46776393880E+01  0.20146338585E+02  0.00000000000E+00 0. -1.
</event>
<event>
 7    1  0.1113211E-011  0.5930190E+02  0.7816164E-02  0.1266605E+00
        -11   -1    0    0    0    0  0.00000000000E+00  0.00000000000E+00  0.45593999997E+02  0.45594000000E+02  0.51100000000E-03 0. -1.
         11   -1    0    0    0    0 -0.00000000000E+00 -0.00000000000E+00 -0.45593999997E+02  0.45594000000E+02  0.51100000000E-03 0.  1.
    9900012    2    1    2    0    0  0.42724605930E+01 -0.12405167493E+02  0.29061680171E+02  0.59301900294E+02  0.49999920241E+02 0.  0.
        -12    1    1    2    0    0 -0.42724605930E+01  0.12405167493E+02 -0.29061680171E+02  0.31886099706E+02  0.00000000000E+00 0.  1.
         11    1    3    3    0    0 -0.12024701821E+00  0.12165965992E+02  0.35596082164E+00  0.12171766356E+02  0.51100000000E-03 0.  1.
        -11    1    3    3    0    0  0.15545460227E+02 -0.12568647812E+02  0.21101477035E+02  0.29067242297E+02  0.51100000000E-03 0. -1.
         12    1    3    3    0    0 -0.11152752615E+02 -0.12002485673E+02  0.76042423152E+01  0.18062891641E+02  0.00000000000E+00 0. -1.
</event>
<event>
 7    1  0.1113211E-011  0.5930196E+02  0.7816164E-02  0.1266605E+00
        -11   -1    0    0    0    0  0.00000000000E+00  0.00000000000E+00  0.45593999997E+02  0.45594000000E+02  0.51100000000E-03 0.  1.
         11   -1    0    0    0    0 -0.00000000000E+00 -0.00000000000E+00 -0.45593999997E+02  0.45594000000E+02  0.51100000000E-03 0. -1.
    9900012    2    1    2    0    0 -0.14587522639E+02  0.82471217883E+01 -0.27127632510E+02  0.59301964183E+02  0.50000036758E+02 0.  0.
        -12    1    1    2    0    0  0.14587522639E+02 -0.82471217883E+01  0.27127632510E+02  0.31886035817E+02  0.00000000000E+00 0.  1.
         11    1    3    3    0    0  0.13099011700E+02  0.70597126644E+01  0.34152677657E+01  0.15267210111E+02  0.51100000000E-03 0.  1.
        -11    1    3    3    0    0 -0.18439139629E+02 -0.44680967723E+01 -0.11681927047E+02  0.22280780480E+02  0.51100000000E-03 0. -1.
        -12    1    3    3    0    0 -0.92473947103E+01  0.56555058962E+01 -0.18860973229E+02  0.21753973591E+02  0.00000000000E+00 0.  1.
</event>
<event>
 7    1  0.1113211E-011  0.5930194E+02  0.7816164E-02  0.1266605E+00
        -11   -1    0    0    0    0  0.00000000000E+00  0.00000000000E+00  0.45593999997E+02  0.45594000000E+02  0.51100000000E-03 0.  1.
         11   -1    0    0    0    0 -0.00000000000E+00 -0.00000000000E+00 -0.45593999997E+02  0.45594000000E+02  0.51100000000E-03 0. -1.
    9900012    2    1    2    0    0  0.26452928188E+02  0.18440547338E+01 -0.17707706199E+02  0.59301940249E+02  0.49999993109E+02 0.  0.
        -12    1    1    2    0    0 -0.26452928188E+02 -0.18440547338E+01  0.17707706199E+02  0.31886059751E+02  0.00000000000E+00 0.  1.
         11    1    3    3    0    0  0.28753513438E+00 -0.59169191307E+01 -0.18350411712E+02  0.19282899645E+02  0.51100000000E-03 0. -1.
        -11    1    3    3    0    0  0.29193014906E+02 -0.51928104175E+00 -0.48987566361E+01  0.29605735744E+02  0.51100000000E-03 0.  1.
         12    1    3    3    0    0 -0.30276218523E+01  0.82802549063E+01  0.55414621483E+01  0.10413304861E+02  0.00000000000E+00 0. -1.
</event>
<event>
 7    1  0.1113211E-011  0.5930192E+02  0.7816164E-02  0.1266605E+00
        -11   -1    0    0    0    0  0.00000000000E+00  0.00000000000E+00  0.45593999997E+02  0.45594000000E+02  0.51100000000E-03 0.  1.
         11   -1    0    0    0    0 -0.00000000000E+00 -0.00000000000E+00 -0.45593999997E+02  0.45594000000E+02  0.51100000000E-03 0. -1.
    9900012    2    1    2    0    0  0.23239369914E+02  0.11210774687E+02 -0.18734256781E+02  0.59301919021E+02  0.49999954393E+02 0.  0.
        -12    1    1    2    0    0 -0.23239369914E+02 -0.11210774687E+02  0.18734256781E+02  0.31886080979E+02  0.00000000000E+00 0.  1.
         11    1    3    3    0    0  0.19323218595E+02 -0.10638009762E+02 -0.17185544324E+02  0.27962420542E+02  0.51100000000E-03 0. -1.
        -11    1    3    3    0    0 -0.88043909971E+01  0.13116529240E+02  0.29610556073E+00  0.15800263254E+02  0.51100000000E-03 0.  1.
         12    1    3    3    0    0  0.12720542316E+02  0.87322552093E+01 -0.18448180170E+01  0.15539235225E+02  0.00000000000E+00 0. -1.
</event>
<event>
 7    1  0.1113211E-011  0.5930194E+02  0.7816164E-02  0.1266605E+00
        -11   -1    0    0    0    0  0.00000000000E+00  0.00000000000E+00  0.45593999997E+02  0.45594000000E+02  0.51100000000E-03 0. -1.
         11   -1    0    0    0    0 -0.00000000000E+00 -0.00000000000E+00 -0.45593999997E+02  0.45594000000E+02  0.51100000000E-03 0.  1.
    9900012    2    1    2    0    0 -0.14661386131E+02 -0.28270915829E+02  0.15873181643E+01  0.59301944991E+02  0.50000001757E+02 0.  0.
        -12    1    1    2    0    0  0.14661386131E+02  0.28270915829E+02 -0.15873181643E+01  0.31886055009E+02  0.00000000000E+00 0.  1.
         11    1    3    3    0    0 -0.16194585255E+02 -0.15036463793E+02  0.67646048556E+01  0.23111030139E+02  0.51100000000E-03 0. -1.
        -11    1    3    3    0    0  0.17117175463E+02 -0.90349018792E+01 -0.40223536947E+00  0.19359466453E+02  0.51100000000E-03 0.  1.
         12    1    3    3    0    0 -0.15583976339E+02 -0.41995501565E+01 -0.47750513219E+01  0.16831448398E+02  0.00000000000E+00 0. -1.
</event>
<event>
 7    1  0.1113211E-011  0.5930195E+02  0.7816164E-02  0.1266605E+00
        -11   -1    0    0    0    0  0.00000000000E+00  0.00000000000E+00  0.45593999997E+02  0.45594000000E+02  0.51100000000E-03 0.  1.
         11   -1    0    0    0    0 -0.00000000000E+00 -0.00000000000E+00 -0.45593999997E+02  0.45594000000E+02  0.51100000000E-03 0. -1.
    9900012    2    1    2    0    0 -0.15258410274E+02  0.16369483739E+02 -0.22714342275E+02  0.59301946200E+02  0.50000003961E+02 0.  0.
        -12    1    1    2    0    0  0.15258410274E+02 -0.16369483739E+02  0.22714342275E+02  0.31886053800E+02  0.00000000000E+00 0.  1.
         11    1    3    3    0    0 -0.99115277318E+01  0.15727805532E+02  0.42681648340E+01  0.19074052536E+02  0.51100000000E-03 0. -1.
        -11    1    3    3    0    0 -0.11667574204E+02 -0.11352365136E+02 -0.14702186269E+02  0.21935422570E+02  0.51100000000E-03 0.  1.
        -12    1    3    3    0    0  0.63206916616E+01  0.11994043342E+02 -0.12280320840E+02  0.18292471094E+02  0.00000000000E+00 0.  1.
</event>
<event>
 7    1  0.1113211E-011  0.5930194E+02  0.7816164E-02  0.1266605E+00
        -11   -1    0    0    0    0  0.00000000000E+00  0.00000000000E+00  0.45593999997E+02  0.45594000000E+02  0.51100000000E-03 0.  1.
         11   -1    0    0    0    0 -0.00000000000E+00 -0.00000000000E+00 -0.45593999997E+02  0.45594000000E+02  0.51100000000E-03 0. -1.
    9900012    2    1    2    0    0  0.94726570463E+00  0.96401578965E+01 -0.30379119618E+02  0.59301939325E+02  0.49999991424E+02 0.  0.
        -12    1    1    2    0    0 -0.94726570463E+00 -0.96401578965E+01  0.30379119618E+02  0.31886060675E+02  0.00000000000E+00 0.  1.
         11    1    3    3    0    0 -0.48245555036E+01  0.15905051350E+02 -0.39127151464E+02  0.42510951250E+02  0.51100000000E-03 0. -1.
        -11    1    3    3    0    0  0.30542375228E+01  0.27167996017E+01  0.55173116252E+01  0.68665926595E+01  0.51100000000E-03 0.  1.
         12    1    3    3    0    0  0.27175836854E+01 -0.89816930549E+01  0.32307202207E+01  0.99243954155E+01  0.00000000000E+00 0. -1.
</event>
<event>
 7    1  0.1242239E-011  0.5930195E+02  0.7816164E-02  0.1266605E+00
        -11   -1    0    0    0    0  0.00000000000E+00  0.00000000000E+00  0.45593999997E+02  0.45594000000E+02  0.51100000000E-03 0.  1.
         11   -1    0    0    0    0 -0.00000000000E+00 -0.00000000000E+00 -0.45593999997E+02  0.45594000000E+02  0.51100000000E-03 0. -1.
    9900012    2    1    2    0    0 -0.34040059637E+01  0.25728735796E+02  0.18524708435E+02  0.59301954073E+02  0.50000018321E+02 0.  0.
        -12    1    1    2    0    0  0.34040059637E+01 -0.25728735796E+02 -0.18524708435E+02  0.31886045927E+02  0.00000000000E+00 0.  1.
         11    1    3    3    0    0  0.23783370697E+01  0.28579778935E+02  0.58371914165E+01  0.29266585983E+02  0.51100000000E-03 0. -1.
        -11    1    3    3    0    0  0.54298471940E+01 -0.85827186734E+01 -0.23473412252E+01  0.10423833818E+02  0.51100000000E-03 0.  1.
         12    1    3    3    0    0 -0.11212190227E+02  0.57316755343E+01  0.15034858243E+02  0.19611534273E+02  0.00000000000E+00 0. -1.
</event>
<event>
 7    1  0.1113211E-011  0.5930196E+02  0.7816164E-02  0.1266605E+00
        -11   -1    0    0    0    0  0.00000000000E+00  0.00000000000E+00  0.45593999997E+02  0.45594000000E+02  0.51100000000E-03 0.  1.
         11   -1    0    0    0    0 -0.00000000000E+00 -0.00000000000E+00 -0.45593999997E+02  0.45594000000E+02  0.51100000000E-03 0. -1.
    9900012    2    1    2    0    0  0.21043208127E+01 -0.23470280971E+01 -0.31729843916E+02  0.59301957569E+02  0.50000024697E+02 0.  0.
        -12    1    1    2    0    0 -0.21043208127E+01  0.23470280971E+01  0.31729843916E+02  0.31886042431E+02  0.00000000000E+00 0.  1.
         11    1    3    3    0    0  0.61272988685E+01 -0.19945533010E+02 -0.22135509659E+02  0.30419547442E+02  0.51100000000E-03 0. -1.
        -11    1    3    3    0    0 -0.83619959874E+01  0.17620900767E+02 -0.12937244904E+02  0.23404944492E+02  0.51100000000E-03 0.  1.
        -12    1    3    3    0    0  0.43390179315E+01 -0.22395854408E-01  0.33429106472E+01  0.54774656347E+01  0.00000000000E+00 0.  1.
</event>
<event>
 7    1  0.1113211E-011  0.5930194E+02  0.7816164E-02  0.1266605E+00
        -11   -1    0    0    0    0  0.00000000000E+00  0.00000000000E+00  0.45593999997E+02  0.45594000000E+02  0.51100000000E-03 0. -1.
         11   -1    0    0    0    0 -0.00000000000E+00 -0.00000000000E+00 -0.45593999997E+02  0.45594000000E+02  0.51100000000E-03 0.  1.
    9900012    2    1    2    0    0 -0.27245389503E+01  0.20900732341E+01  0.31700620381E+02  0.59301939548E+02  0.49999991830E+02 0.  0.
        -12    1    1    2    0    0  0.27245389503E+01 -0.20900732341E+01 -0.31700620381E+02  0.31886060452E+02  0.00000000000E+00 0.  1.
         11    1    3    3    0    0 -0.19595223554E+02 -0.10550702272E+02  0.10902708911E+02  0.24782234895E+02  0.51100000000E-03 0. -1.
        -11    1    3    3    0    0  0.89172918049E+01  0.77706781193E+01  0.11179833503E+00  0.11828526142E+02  0.51100000000E-03 0.  1.
         12    1    3    3    0    0  0.79533927983E+01  0.48700973870E+01  0.20686113135E+02  0.22691178511E+02  0.00000000000E+00 0. -1.
</event>
<event>
 7    1  0.1113211E-011  0.5930193E+02  0.7816164E-02  0.1266605E+00
        -11   -1    0    0    0    0  0.00000000000E+00  0.00000000000E+00  0.45593999997E+02  0.45594000000E+02  0.51100000000E-03 0.  1.
         11   -1    0    0    0    0 -0.00000000000E+00 -0.00000000000E+00 -0.45593999997E+02  0.45594000000E+02  0.51100000000E-03 0. -1.
    9900012    2    1    2    0    0  0.21148513924E+02 -0.63501749432E+00 -0.23854949854E+02  0.59301929045E+02  0.49999972676E+02 0.  0.
        -12    1    1    2    0    0 -0.21148513924E+02  0.63501749432E+00  0.23854949854E+02  0.31886070955E+02  0.00000000000E+00 0.  1.
         11    1    3    3    0    0 -0.12903880990E+02  0.59806746496E+01 -0.80294860112E+01  0.16332521536E+02  0.51100000000E-03 0. -1.
        -11    1    3    3    0    0  0.11897710755E+02  0.61010462292E+01 -0.93989940516E+00  0.13403794144E+02  0.51100000000E-03 0.  1.
         12    1    3    3    0    0  0.22154684159E+02 -0.12716738373E+02 -0.14885564437E+02  0.29565613365E+02  0.00000000000E+00 0. -1.
</event>
<event>
 7    1  0.1113211E-011  0.5930195E+02  0.7816164E-02  0.1266605E+00
        -11   -1    0    0    0    0  0.00000000000E+00  0.00000000000E+00  0.45593999997E+02  0.45594000000E+02  0.51100000000E-03 0.  1.
         11   -1    0    0    0    0 -0.00000000000E+00 -0.00000000000E+00 -0.45593999997E+02  0.45594000000E+02  0.51100000000E-03 0. -1.
    9900012    2    1    2    0    0  0.25905784289E+02  0.52493142850E+00 -0.18583189051E+02  0.59301950889E+02  0.50000012513E+02 0.  0.
        -12    1    1    2    0    0 -0.25905784289E+02 -0.52493142850E+00  0.18583189051E+02  0.31886049111E+02  0.00000000000E+00 0.  1.
         11    1    3    3    0    0  0.28765600647E+02  0.53139437610E+01 -0.27454825217E+02  0.40118140620E+02  0.51100000000E-03 0. -1.
        -11    1    3    3    0    0  0.10627818513E+01 -0.93714216596E+01  0.13271903743E+01  0.95244151388E+01  0.51100000000E-03 0.  1.
         12    1    3    3    0    0 -0.39225982092E+01  0.45824093272E+01  0.75444457922E+01  0.96593951293E+01  0.00000000000E+00 0. -1.
</event>
<event>
 7    1  0.1113211E-011  0.5930194E+02  0.7816164E-02  0.1266605E+00
        -11   -1    0    0    0    0  0.00000000000E+00  0.00000000000E+00  0.45593999997E+02  0.45594000000E+02  0.51100000000E-03 0. -1.
         11   -1    0    0    0    0 -0.00000000000E+00 -0.00000000000E+00 -0.45593999997E+02  0.45594000000E+02  0.51100000000E-03 0.  1.
    9900012    2    1    2    0    0 -0.81987996310E+01  0.30673408924E+02 -0.29398311738E+01  0.59301938190E+02  0.49999989354E+02 0.  0.
        -12    1    1    2    0    0  0.81987996310E+01 -0.30673408924E+02  0.29398311738E+01  0.31886061810E+02  0.00000000000E+00 0.  1.
         11    1    3    3    0    0 -0.11911618657E+02  0.31943148635E+02 -0.21300659905E+02  0.40199123329E+02  0.51100000000E-03 0. -1.
        -11    1    3    3    0    0  0.86800710752E+00 -0.19573376383E+01  0.10470147528E+02  0.10686842214E+02  0.51100000000E-03 0.  1.
         12    1    3    3    0    0  0.28448119183E+01  0.68759792700E+00  0.78906812027E+01  0.84159726475E+01  0.00000000000E+00 0. -1.
</event>
<event>
 7    1  0.1113211E-011  0.5930194E+02  0.7816164E-02  0.1266605E+00
        -11   -1    0    0    0    0  0.00000000000E+00  0.00000000000E+00  0.45593999997E+02  0.45594000000E+02  0.51100000000E-03 0. -1.
         11   -1    0    0    0    0 -0.00000000000E+00 -0.00000000000E+00 -0.45593999997E+02  0.45594000000E+02  0.51100000000E-03 0.  1.
    9900012    2    1    2    0    0 -0.20205130003E+02  0.11149161281E+02 -0.22003855630E+02  0.59301941317E+02  0.49999995057E+02 0.  0.
        -12    1    1    2    0    0  0.20205130003E+02 -0.11149161281E+02  0.22003855630E+02  0.31886058683E+02  0.00000000000E+00 0.  1.
         11    1    3    3    0    0 -0.20567315905E+02  0.91412586721E+01  0.89255058704E+01  0.24212429638E+02  0.51100000000E-03 0. -1.
        -11    1    3    3    0    0 -0.47035075716E+01 -0.43020325783E+01 -0.22580007171E+02  0.23462463465E+02  0.51100000000E-03 0.  1.
        -12    1    3    3    0    0  0.50656934738E+01  0.63099351877E+01 -0.83493543302E+01  0.11627048214E+02  0.00000000000E+00 0.  1.
</event>
<event>
 7    1  0.1113211E-011  0.5930189E+02  0.7816164E-02  0.1266605E+00
        -11   -1    0    0    0    0  0.00000000000E+00  0.00000000000E+00  0.45593999997E+02  0.45594000000E+02  0.51100000000E-03 0.  1.
         11   -1    0    0    0    0 -0.00000000000E+00 -0.00000000000E+00 -0.45593999997E+02  0.45594000000E+02  0.51100000000E-03 0. -1.
    9900012    2    1    2    0    0  0.11631736209E+02  0.20497896983E+02 -0.21477027419E+02  0.59301893704E+02  0.49999908222E+02 0.  0.
        -12    1    1    2    0    0 -0.11631736209E+02 -0.20497896983E+02  0.21477027419E+02  0.31886106296E+02  0.00000000000E+00 0.  1.
         11    1    3    3    0    0 -0.23843569056E+01  0.13681130955E+02  0.19462605643E+01  0.14023067871E+02  0.51100000000E-03 0. -1.
        -11    1    3    3    0    0  0.12142682043E+01 -0.59994875660E+01 -0.26241709667E+02  0.26946161597E+02  0.51100000000E-03 0.  1.
        -12    1    3    3    0    0  0.12801824911E+02  0.12816253593E+02  0.28184216836E+01  0.18332664236E+02  0.00000000000E+00 0.  1.
</event>
<event>
 7    1  0.1113211E-011  0.5930194E+02  0.7816164E-02  0.1266605E+00
        -11   -1    0    0    0    0  0.00000000000E+00  0.00000000000E+00  0.45593999997E+02  0.45594000000E+02  0.51100000000E-03 0.  1.
         11   -1    0    0    0    0 -0.00000000000E+00 -0.00000000000E+00 -0.45593999997E+02  0.45594000000E+02  0.51100000000E-03 0. -1.
    9900012    2    1    2    0    0  0.21227526156E+02 -0.13594241759E+02 -0.19527143426E+02  0.59301943390E+02  0.49999998838E+02 0.  0.
        -12    1    1    2    0    0 -0.21227526156E+02  0.13594241759E+02  0.19527143426E+02  0.31886056610E+02  0.00000000000E+00 0.  1.
         11    1    3    3    0    0 -0.11792709994E+02 -0.82012818081E+01 -0.15217964673E+01  0.14444545581E+02  0.51100000000E-03 0. -1.
        -11    1    3    3    0    0  0.16512379126E+02 -0.76013437872E+01  0.25997426959E+01  0.18362945138E+02  0.51100000000E-03 0.  1.
         12    1    3    3    0    0  0.16507857024E+02  0.22083838361E+01 -0.20605089655E+02  0.26494452672E+02  0.00000000000E+00 0. -1.
</event>
<event>
 7    1  0.1113211E-011  0.5930193E+02  0.7816164E-02  0.1266605E+00
        -11   -1    0    0    0    0  0.00000000000E+00  0.00000000000E+00  0.45593999997E+02  0.45594000000E+02  0.51100000000E-03 0.  1.
         11   -1    0    0    0    0 -0.00000000000E+00 -0.00000000000E+00 -0.45593999997E+02  0.45594000000E+02  0.51100000000E-03 0. -1.
    9900012    2    1    2    0    0 -0.23524892867E+02 -0.55531645304E+01 -0.20795743357E+02  0.59301934666E+02  0.49999982926E+02 0.  0.
        -12    1    1    2    0    0  0.23524892867E+02  0.55531645304E+01  0.20795743357E+02  0.31886065334E+02  0.00000000000E+00 0.  1.
         11    1    3    3    0    0 -0.12570773823E+02  0.16088762908E+01  0.68332810158E+01  0.14398144572E+02  0.51100000000E-03 0. -1.
        -11    1    3    3    0    0  0.40816098175E+01 -0.16964531658E+02 -0.13579538612E+02  0.22110150209E+02  0.51100000000E-03 0.  1.
         12    1    3    3    0    0 -0.15035728862E+02  0.98024908369E+01 -0.14049485761E+02  0.22793639884E+02  0.00000000000E+00 0. -1.
</event>
<event>
 7    1  0.1113211E-011  0.5930194E+02  0.7816164E-02  0.1266605E+00
        -11   -1    0    0    0    0  0.00000000000E+00  0.00000000000E+00  0.45593999997E+02  0.45594000000E+02  0.51100000000E-03 0.  1.
         11   -1    0    0    0    0 -0.00000000000E+00 -0.00000000000E+00 -0.45593999997E+02  0.45594000000E+02  0.51100000000E-03 0. -1.
    9900012    2    1    2    0    0  0.28674841114E+02 -0.12233747204E+02 -0.66940136327E+01  0.59301938749E+02  0.49999990373E+02 0.  0.
        -12    1    1    2    0    0 -0.28674841114E+02  0.12233747204E+02  0.66940136327E+01  0.31886061251E+02  0.00000000000E+00 0.  1.
         11    1    3    3    0    0  0.29832015475E+01  0.61694565325E+00  0.97515241987E+01  0.10216278083E+02  0.51100000000E-03 0.  1.
        -11    1    3    3    0    0  0.32915972571E+02 -0.19337219814E+01 -0.97627403483E+01  0.34387666835E+02  0.51100000000E-03 0. -1.
        -12    1    3    3    0    0 -0.72243330042E+01 -0.10916970876E+02 -0.66827974830E+01  0.14697993831E+02  0.00000000000E+00 0.  1.
</event>
<event>
 7    1  0.1113211E-011  0.5930189E+02  0.7816164E-02  0.1266605E+00
        -11   -1    0    0    0    0  0.00000000000E+00  0.00000000000E+00  0.45593999997E+02  0.45594000000E+02  0.51100000000E-03 0.  1.
         11   -1    0    0    0    0 -0.00000000000E+00 -0.00000000000E+00 -0.45593999997E+02  0.45594000000E+02  0.51100000000E-03 0. -1.
    9900012    2    1    2    0    0  0.45004169194E+01 -0.27757877235E+02 -0.15032312723E+02  0.59301891318E+02  0.49999903871E+02 0.  0.
        -12    1    1    2    0    0 -0.45004169194E+01  0.27757877235E+02  0.15032312723E+02  0.31886108682E+02  0.00000000000E+00 0.  1.
         11    1    3    3    0    0 -0.75845651642E+01 -0.70093194182E+01 -0.27507742943E+02  0.29382513669E+02  0.51100000000E-03 0. -1.
        -11    1    3    3    0    0  0.50884624913E+01 -0.36296896030E+01  0.92241044059E+01  0.11142315715E+02  0.51100000000E-03 0.  1.
         12    1    3    3    0    0  0.69965195923E+01 -0.17118868214E+02  0.32513258141E+01  0.18777061934E+02  0.00000000000E+00 0. -1.
</event>
<event>
 7    1  0.1113211E-011  0.5930198E+02  0.7816164E-02  0.1266605E+00
        -11   -1    0    0    0    0  0.00000000000E+00  0.00000000000E+00  0.45593999997E+02  0.45594000000E+02  0.51100000000E-03 0.  1.
         11   -1    0    0    0    0 -0.00000000000E+00 -0.00000000000E+00 -0.45593999997E+02  0.45594000000E+02  0.51100000000E-03 0. -1.
    9900012    2    1    2    0    0  0.20652306364E+02  0.24125083910E+02 -0.28602541470E+01  0.59301976642E+02  0.50000059480E+02 0.  0.
        -12    1    1    2    0    0 -0.20652306364E+02 -0.24125083910E+02  0.28602541470E+01  0.31886023358E+02  0.00000000000E+00 0.  1.
         11    1    3    3    0    0  0.12822220317E+02  0.60424078869E+01 -0.22770403441E+02  0.26821843711E+02  0.51100000000E-03 0. -1.
        -11    1    3    3    0    0  0.76979272799E+01  0.21044482909E+02  0.18999361869E+02  0.29378633342E+02  0.51100000000E-03 0.  1.
        -12    1    3    3    0    0  0.13215876758E+00 -0.29618068862E+01  0.91078742427E+00  0.31014995894E+01  0.00000000000E+00 0.  1.
</event>
<event>
 7    1  0.1113211E-011  0.5930208E+02  0.7816164E-02  0.1266604E+00
        -11   -1    0    0    0    0  0.00000000000E+00  0.00000000000E+00  0.45593999997E+02  0.45594000000E+02  0.51100000000E-03 0.  1.
         11   -1    0    0    0    0 -0.00000000000E+00 -0.00000000000E+00 -0.45593999997E+02  0.45594000000E+02  0.51100000000E-03 0. -1.
    9900012    2    1    2    0    0 -0.61201278860E+01 -0.20402239315E+02 -0.23727713617E+02  0.59302082609E+02  0.50000252738E+02 0.  0.
        -12    1    1    2    0    0  0.61201278860E+01  0.20402239315E+02  0.23727713617E+02  0.31885917391E+02  0.00000000000E+00 0.  1.
         11    1    3    3    0    0 -0.71952772297E+01 -0.19767573062E+02 -0.31726649459E+02  0.38067167550E+02  0.51100000000E-03 0. -1.
        -11    1    3    3    0    0 -0.81387252890E+00  0.25470837264E+01  0.13962725163E+02  0.14216459413E+02  0.51100000000E-03 0.  1.
        -12    1    3    3    0    0  0.18890218726E+01 -0.31817499791E+01 -0.59637893218E+01  0.70184556449E+01  0.00000000000E+00 0.  1.
</event>
<event>
 7    1  0.1113211E-011  0.5930194E+02  0.7816164E-02  0.1266605E+00
        -11   -1    0    0    0    0  0.00000000000E+00  0.00000000000E+00  0.45593999997E+02  0.45594000000E+02  0.51100000000E-03 0. -1.
         11   -1    0    0    0    0 -0.00000000000E+00 -0.00000000000E+00 -0.45593999997E+02  0.45594000000E+02  0.51100000000E-03 0.  1.
    9900012    2    1    2    0    0 -0.30321310464E+02 -0.34760712904E+00 -0.98599378378E+01  0.59301936067E+02  0.49999985482E+02 0.  0.
        -12    1    1    2    0    0  0.30321310464E+02  0.34760712904E+00  0.98599378378E+01  0.31886063933E+02  0.00000000000E+00 0.  1.
         11    1    3    3    0    0  0.55667305475E+01  0.80775637433E+01 -0.69805979539E+01  0.12040111007E+02  0.51100000000E-03 0. -1.
        -11    1    3    3    0    0 -0.35626224081E+02 -0.11281132347E+02 -0.10749826228E+02  0.38885094233E+02  0.51100000000E-03 0.  1.
        -12    1    3    3    0    0 -0.26181693021E+00  0.28559614747E+01  0.78704863443E+01  0.83767308268E+01  0.00000000000E+00 0.  1.
</event>
<event>
 7    1  0.1113211E-011  0.5930201E+02  0.7816164E-02  0.1266605E+00
        -11   -1    0    0    0    0  0.00000000000E+00  0.00000000000E+00  0.45593999997E+02  0.45594000000E+02  0.51100000000E-03 0. -1.
         11   -1    0    0    0    0 -0.00000000000E+00 -0.00000000000E+00 -0.45593999997E+02  0.45594000000E+02  0.51100000000E-03 0.  1.
    9900012    2    1    2    0    0  0.30272183719E+02 -0.49129378447E+01 -0.87277705773E+01  0.59302014918E+02  0.50000129286E+02 0.  0.
        -12    1    1    2    0    0 -0.30272183719E+02  0.49129378447E+01  0.87277705773E+01  0.31885985082E+02  0.00000000000E+00 0.  1.
         11    1    3    3    0    0  0.30681532508E+02  0.18627691009E-01 -0.21408629371E+02  0.37412380249E+02  0.51100000000E-03 0. -1.
        -11    1    3    3    0    0 -0.26820443378E+01  0.60391155548E+01  0.53323591062E+01  0.84910736903E+01  0.51100000000E-03 0.  1.
         12    1    3    3    0    0  0.22726955491E+01 -0.10970681091E+02  0.73484996877E+01  0.13398560979E+02  0.00000000000E+00 0. -1.
</event>
<event>
 7    1  0.1113211E-011  0.5930194E+02  0.7816164E-02  0.1266605E+00
        -11   -1    0    0    0    0  0.00000000000E+00  0.00000000000E+00  0.45593999997E+02  0.45594000000E+02  0.51100000000E-03 0. -1.
         11   -1    0    0    0    0 -0.00000000000E+00 -0.00000000000E+00 -0.45593999997E+02  0.45594000000E+02  0.51100000000E-03 0.  1.
    9900012    2    1    2    0    0  0.13977383553E+02  0.75966631972E+01  0.27634111423E+02  0.59301942595E+02  0.49999997386E+02 0.  0.
        -12    1    1    2    0    0 -0.13977383553E+02 -0.75966631972E+01 -0.27634111423E+02  0.31886057405E+02  0.00000000000E+00 0.  1.
         11    1    3    3    0    0 -0.37086827710E+01  0.37390521222E+01  0.16177224203E+02  0.17012860484E+02  0.51100000000E-03 0. -1.
        -11    1    3    3    0    0  0.12664270589E+02  0.19221737600E+02  0.10056485631E+01  0.23040622283E+02  0.51100000000E-03 0.  1.
        -12    1    3    3    0    0  0.50217957357E+01 -0.15364126525E+02  0.10451238657E+02  0.19248459828E+02  0.00000000000E+00 0.  1.
</event>
<event>
 7    1  0.1113211E-011  0.5930200E+02  0.7816164E-02  0.1266605E+00
        -11   -1    0    0    0    0  0.00000000000E+00  0.00000000000E+00  0.45593999997E+02  0.45594000000E+02  0.51100000000E-03 0.  1.
         11   -1    0    0    0    0 -0.00000000000E+00 -0.00000000000E+00 -0.45593999997E+02  0.45594000000E+02  0.51100000000E-03 0. -1.
    9900012    2    1    2    0    0 -0.66009015371E+01  0.41902577268E+01 -0.30912564319E+02  0.59302003173E+02  0.50000107866E+02 0.  0.
        -12    1    1    2    0    0  0.66009015371E+01 -0.41902577268E+01  0.30912564319E+02  0.31885996827E+02  0.00000000000E+00 0.  1.
         11    1    3    3    0    0 -0.48950922104E+00  0.24538078190E+02 -0.24583484276E+02  0.34737653921E+02  0.51100000000E-03 0. -1.
        -11    1    3    3    0    0 -0.47070508243E+01 -0.11792876351E+02 -0.89182215479E+01  0.15516537498E+02  0.51100000000E-03 0.  1.
         12    1    3    3    0    0 -0.14043414918E+01 -0.85549441117E+01  0.25891415058E+01  0.90478117530E+01  0.00000000000E+00 0. -1.
</event>
<event>
 7    1  0.1113211E-011  0.5930194E+02  0.7816164E-02  0.1266605E+00
        -11   -1    0    0    0    0  0.00000000000E+00  0.00000000000E+00  0.45593999997E+02  0.45594000000E+02  0.51100000000E-03 0. -1.
         11   -1    0    0    0    0 -0.00000000000E+00 -0.00000000000E+00 -0.45593999997E+02  0.45594000000E+02  0.51100000000E-03 0.  1.
    9900012    2    1    2    0    0  0.23491431842E+02 -0.19491125368E+02  0.92178887463E+01  0.59301940177E+02  0.49999992977E+02 0.  0.
        -12    1    1    2    0    0 -0.23491431842E+02  0.19491125368E+02 -0.92178887463E+01  0.31886059823E+02  0.00000000000E+00 0.  1.
         11    1    3    3    0    0  0.21016455209E+02 -0.32220732358E+02  0.64508272394E+01  0.39006155355E+02  0.51100000000E-03 0. -1.
        -11    1    3    3    0    0 -0.49524482776E+01  0.29337226200E+01 -0.32484960538E+01  0.66095536329E+01  0.51100000000E-03 0.  1.
         12    1    3    3    0    0  0.74274249109E+01  0.97958843697E+01  0.60155575607E+01  0.13686231189E+02  0.00000000000E+00 0. -1.
</event>
<event>
 7    1  0.1113211E-011  0.5930196E+02  0.7816164E-02  0.1266605E+00
        -11   -1    0    0    0    0  0.00000000000E+00  0.00000000000E+00  0.45593999997E+02  0.45594000000E+02  0.51100000000E-03 0.  1.
         11   -1    0    0    0    0 -0.00000000000E+00 -0.00000000000E+00 -0.45593999997E+02  0.45594000000E+02  0.51100000000E-03 0. -1.
    9900012    2    1    2    0    0  0.29401349086E+02 -0.11573770298E+02 -0.42811591200E+01  0.59301955868E+02  0.50000021593E+02 0.  0.
        -12    1    1    2    0    0 -0.29401349086E+02  0.11573770298E+02  0.42811591200E+01  0.31886044132E+02  0.00000000000E+00 0.  1.
         11    1    3    3    0    0  0.45348977188E+01  0.13156164867E+02  0.43705758601E+01  0.14586017446E+02  0.51100000000E-03 0. -1.
        -11    1    3    3    0    0  0.18354596782E+02 -0.29292210443E+02 -0.11248207793E+02  0.36351712401E+02  0.51100000000E-03 0.  1.
        -12    1    3    3    0    0  0.65118545856E+01  0.45622752779E+01  0.25964728132E+01  0.83642260207E+01  0.00000000000E+00 0.  1.
</event>
<event>
 7    1  0.1113211E-011  0.5930187E+02  0.7816164E-02  0.1266605E+00
        -11   -1    0    0    0    0  0.00000000000E+00  0.00000000000E+00  0.45593999997E+02  0.45594000000E+02  0.51100000000E-03 0.  1.
         11   -1    0    0    0    0 -0.00000000000E+00 -0.00000000000E+00 -0.45593999997E+02  0.45594000000E+02  0.51100000000E-03 0. -1.
    9900012    2    1    2    0    0 -0.94477190019E+01  0.19046479482E+02 -0.23763360805E+02  0.59301873052E+02  0.49999870557E+02 0.  0.
        -12    1    1    2    0    0  0.94477190019E+01 -0.19046479482E+02  0.23763360805E+02  0.31886126948E+02  0.00000000000E+00 0.  1.
         11    1    3    3    0    0  0.28342818187E+01 -0.51897956273E+01 -0.20546344555E+02  0.21380350954E+02  0.51100000000E-03 0. -1.
        -11    1    3    3    0    0  0.65056284091E+01  0.15911232031E+02 -0.53914635327E+00  0.17198290170E+02  0.51100000000E-03 0.  1.
        -12    1    3    3    0    0 -0.18787629230E+02  0.83250430791E+01 -0.26778698970E+01  0.20723231928E+02  0.00000000000E+00 0.  1.
</event>
<event>
 7    1  0.1113211E-011  0.5930194E+02  0.7816164E-02  0.1266605E+00
        -11   -1    0    0    0    0  0.00000000000E+00  0.00000000000E+00  0.45593999997E+02  0.45594000000E+02  0.51100000000E-03 0.  1.
         11   -1    0    0    0    0 -0.00000000000E+00 -0.00000000000E+00 -0.45593999997E+02  0.45594000000E+02  0.51100000000E-03 0. -1.
    9900012    2    1    2    0    0  0.68987300521E+01  0.30413644917E+02  0.66436683149E+01  0.59301943452E+02  0.49999998950E+02 0.  0.
        -12    1    1    2    0    0 -0.68987300521E+01 -0.30413644917E+02 -0.66436683149E+01  0.31886056548E+02  0.00000000000E+00 0.  1.
         11    1    3    3    0    0  0.11013003464E+02 -0.19673424689E+01  0.34290022261E+01  0.11701057141E+02  0.51100000000E-03 0. -1.
        -11    1    3    3    0    0 -0.13787322324E+02  0.19670713866E+02 -0.10813170859E+02  0.26342966901E+02  0.51100000000E-03 0.  1.
        -12    1    3    3    0    0  0.96730489116E+01  0.12710273520E+02  0.14027836948E+02  0.21257919410E+02  0.00000000000E+00 0.  1.
</event>
<event>
 7    1  0.1113211E-011  0.5930197E+02  0.7816164E-02  0.1266605E+00
        -11   -1    0    0    0    0  0.00000000000E+00  0.00000000000E+00  0.45593999997E+02  0.45594000000E+02  0.51100000000E-03 0. -1.
         11   -1    0    0    0    0 -0.00000000000E+00 -0.00000000000E+00 -0.45593999997E+02  0.45594000000E+02  0.51100000000E-03 0.  1.
    9900012    2    1    2    0    0  0.98128177177E+01 -0.27514891984E+02  0.12781155460E+02  0.59301974733E+02  0.50000055998E+02 0.  0.
        -12    1    1    2    0    0 -0.98128177177E+01  0.27514891984E+02 -0.12781155460E+02  0.31886025267E+02  0.00000000000E+00 0.  1.
         11    1    3    3    0    0  0.28486871678E+01 -0.21722276748E+02  0.25420356616E+02  0.33558409623E+02  0.51100000000E-03 0. -1.
        -11    1    3    3    0    0  0.12821838586E+02 -0.90656537102E+01 -0.92701692830E+01  0.18235176465E+02  0.51100000000E-03 0.  1.
        -12    1    3    3    0    0 -0.58577080358E+01  0.32730384739E+01 -0.33690318723E+01  0.75083886448E+01  0.00000000000E+00 0.  1.
</event>
<event>
 7    1  0.1113211E-011  0.5930194E+02  0.7816164E-02  0.1266605E+00
        -11   -1    0    0    0    0  0.00000000000E+00  0.00000000000E+00  0.45593999997E+02  0.45594000000E+02  0.51100000000E-03 0. -1.
         11   -1    0    0    0    0 -0.00000000000E+00 -0.00000000000E+00 -0.45593999997E+02  0.45594000000E+02  0.51100000000E-03 0.  1.
    9900012    2    1    2    0    0  0.15634656197E+02  0.37878448923E+01  0.27530536479E+02  0.59301942198E+02  0.49999996662E+02 0.  0.
        -12    1    1    2    0    0 -0.15634656197E+02 -0.37878448923E+01 -0.27530536479E+02  0.31886057802E+02  0.00000000000E+00 0.  1.
         11    1    3    3    0    0  0.14619056090E+02  0.11047316805E+02  0.17434300278E+02  0.25292584605E+02  0.51100000000E-03 0. -1.
        -11    1    3    3    0    0  0.72571618020E+01  0.22270655911E+00 -0.95990207470E+01  0.12035663471E+02  0.51100000000E-03 0.  1.
        -12    1    3    3    0    0 -0.62415616950E+01 -0.74821784715E+01  0.19695256948E+02  0.21973694121E+02  0.00000000000E+00 0.  1.
</event>
<event>
 7    1  0.1113211E-011  0.5930192E+02  0.7816164E-02  0.1266605E+00
        -11   -1    0    0    0    0  0.00000000000E+00  0.00000000000E+00  0.45593999997E+02  0.45594000000E+02  0.51100000000E-03 0.  1.
         11   -1    0    0    0    0 -0.00000000000E+00 -0.00000000000E+00 -0.45593999997E+02  0.45594000000E+02  0.51100000000E-03 0. -1.
    9900012    2    1    2    0    0  0.87116652274E+01  0.13820466758E+02 -0.27382903028E+02  0.59301924816E+02  0.49999964962E+02 0.  0.
        -12    1    1    2    0    0 -0.87116652274E+01 -0.13820466758E+02  0.27382903028E+02  0.31886075184E+02  0.00000000000E+00 0.  1.
         11    1    3    3    0    0 -0.10454642589E+01 -0.11601874519E+00 -0.32578060506E+02  0.32595037697E+02  0.51100000000E-03 0. -1.
        -11    1    3    3    0    0  0.11131860831E+02 -0.10088133922E+00  0.58721452453E+01  0.12586126991E+02  0.51100000000E-03 0.  1.
         12    1    3    3    0    0 -0.13747313445E+01  0.14037366843E+02 -0.67698776704E+00  0.14120760127E+02  0.00000000000E+00 0. -1.
</event>
<event>
 7    1  0.1113211E-011  0.5930195E+02  0.7816164E-02  0.1266605E+00
        -11   -1    0    0    0    0  0.00000000000E+00  0.00000000000E+00  0.45593999997E+02  0.45594000000E+02  0.51100000000E-03 0.  1.
         11   -1    0    0    0    0 -0.00000000000E+00 -0.00000000000E+00 -0.45593999997E+02  0.45594000000E+02  0.51100000000E-03 0. -1.
    9900012    2    1    2    0    0  0.17041163907E+02  0.76231817136E+01 -0.25849680080E+02  0.59301950904E+02  0.50000012540E+02 0.  0.
        -12    1    1    2    0    0 -0.17041163907E+02 -0.76231817136E+01  0.25849680080E+02  0.31886049096E+02  0.00000000000E+00 0.  1.
         11    1    3    3    0    0 -0.63363074815E+01  0.76287419940E+01 -0.80974456183E+01  0.12802934145E+02  0.51100000000E-03 0. -1.
        -11    1    3    3    0    0  0.19700962138E+02 -0.29472677792E+01 -0.28496253096E+02  0.34768530848E+02  0.51100000000E-03 0.  1.
        -12    1    3    3    0    0  0.36765092505E+01  0.29417074989E+01  0.10744018635E+02  0.11730485911E+02  0.00000000000E+00 0.  1.
</event>
<event>
 7    1  0.1113211E-011  0.5930193E+02  0.7816164E-02  0.1266605E+00
        -11   -1    0    0    0    0  0.00000000000E+00  0.00000000000E+00  0.45593999997E+02  0.45594000000E+02  0.51100000000E-03 0.  1.
         11   -1    0    0    0    0 -0.00000000000E+00 -0.00000000000E+00 -0.45593999997E+02  0.45594000000E+02  0.51100000000E-03 0. -1.
    9900012    2    1    2    0    0 -0.35583011389E+01 -0.28730959834E+02 -0.13363819109E+02  0.59301933746E+02  0.49999981248E+02 0.  0.
        -12    1    1    2    0    0  0.35583011389E+01  0.28730959834E+02  0.13363819109E+02  0.31886066254E+02  0.00000000000E+00 0.  1.
         11    1    3    3    0    0  0.24566803220E+01 -0.73183613787E+01 -0.15520182175E+02  0.17334063184E+02  0.51100000000E-03 0. -1.
        -11    1    3    3    0    0 -0.56645493892E+01 -0.30690388118E+02  0.62376598014E+01  0.31826018329E+02  0.51100000000E-03 0.  1.
        -12    1    3    3    0    0 -0.35043207177E+00  0.92777896626E+01 -0.40812967357E+01  0.10141852232E+02  0.00000000000E+00 0.  1.
</event>
<event>
 7    1  0.1113211E-011  0.5930174E+02  0.7816164E-02  0.1266605E+00
        -11   -1    0    0    0    0  0.00000000000E+00  0.00000000000E+00  0.45593999997E+02  0.45594000000E+02  0.51100000000E-03 0.  1.
         11   -1    0    0    0    0 -0.00000000000E+00 -0.00000000000E+00 -0.45593999997E+02  0.45594000000E+02  0.51100000000E-03 0. -1.
    9900012    2    1    2    0    0  0.18854216466E+02 -0.62492513399E+01 -0.24943917787E+02  0.59301738767E+02  0.49999625652E+02 0.  0.
        -12    1    1    2    0    0 -0.18854216466E+02  0.62492513399E+01  0.24943917787E+02  0.31886261233E+02  0.00000000000E+00 0.  1.
         11    1    3    3    0    0 -0.53374763337E+01  0.17409335346E+02 -0.15956571417E+02  0.24211273871E+02  0.51100000000E-03 0. -1.
        -11    1    3    3    0    0  0.81463450055E+01 -0.76403264449E+01 -0.18471706144E+01  0.11320316456E+02  0.51100000000E-03 0.  1.
         12    1    3    3    0    0  0.16045347795E+02 -0.16018260241E+02 -0.71401757553E+01  0.23770148439E+02  0.00000000000E+00 0. -1.
</event>
<event>
 7    1  0.1113211E-011  0.5930175E+02  0.7816164E-02  0.1266605E+00
        -11   -1    0    0    0    0  0.00000000000E+00  0.00000000000E+00  0.45593999997E+02  0.45594000000E+02  0.51100000000E-03 0. -1.
         11   -1    0    0    0    0 -0.00000000000E+00 -0.00000000000E+00 -0.45593999997E+02  0.45594000000E+02  0.51100000000E-03 0.  1.
    9900012    2    1    2    0    0 -0.54762225989E+01  0.53120276528E+01  0.30960077970E+02  0.59301747796E+02  0.49999642119E+02 0.  0.
        -12    1    1    2    0    0  0.54762225989E+01 -0.53120276528E+01 -0.30960077970E+02  0.31886252204E+02  0.00000000000E+00 0.  1.
         11    1    3    3    0    0 -0.13049762349E+02 -0.23961476491E+01  0.17636763796E+02  0.22070189360E+02  0.51100000000E-03 0. -1.
        -11    1    3    3    0    0  0.67967080644E+01  0.60859059708E+01 -0.10174045940E+02  0.13665456562E+02  0.51100000000E-03 0.  1.
        -12    1    3    3    0    0  0.77683168532E+00  0.16222693311E+01  0.23497360113E+02  0.23566101874E+02  0.00000000000E+00 0.  1.
</event>
<event>
 7    1  0.1113211E-011  0.5930196E+02  0.7816164E-02  0.1266605E+00
        -11   -1    0    0    0    0  0.00000000000E+00  0.00000000000E+00  0.45593999997E+02  0.45594000000E+02  0.51100000000E-03 0.  1.
         11   -1    0    0    0    0 -0.00000000000E+00 -0.00000000000E+00 -0.45593999997E+02  0.45594000000E+02  0.51100000000E-03 0. -1.
    9900012    2    1    2    0    0 -0.14859154148E+02  0.26856171185E+02  0.86412509044E+01  0.59301959012E+02  0.50000027327E+02 0.  0.
        -12    1    1    2    0    0  0.14859154148E+02 -0.26856171185E+02 -0.86412509044E+01  0.31886040988E+02  0.00000000000E+00 0.  1.
         11    1    3    3    0    0 -0.16651564192E+02  0.19320502021E+02  0.86724123477E+01  0.26940065415E+02  0.51100000000E-03 0. -1.
        -11    1    3    3    0    0  0.10014527874E+02 -0.36508307503E+01  0.10480219716E+02  0.14948389187E+02  0.51100000000E-03 0.  1.
        -12    1    3    3    0    0 -0.82221178305E+01  0.11186499914E+02 -0.10511381160E+02  0.17413504410E+02  0.00000000000E+00 0.  1.
</event>
<event>
 7    1  0.1113211E-011  0.5930194E+02  0.7816164E-02  0.1266605E+00
        -11   -1    0    0    0    0  0.00000000000E+00  0.00000000000E+00  0.45593999997E+02  0.45594000000E+02  0.51100000000E-03 0.  1.
         11   -1    0    0    0    0 -0.00000000000E+00 -0.00000000000E+00 -0.45593999997E+02  0.45594000000E+02  0.51100000000E-03 0. -1.
    9900012    2    1    2    0    0 -0.25055522536E+02 -0.43257007961E+01 -0.19241352359E+02  0.59301944466E+02  0.50000000799E+02 0.  0.
        -12    1    1    2    0    0  0.25055522536E+02  0.43257007961E+01  0.19241352359E+02  0.31886055534E+02  0.00000000000E+00 0.  1.
         11    1    3    3    0    0 -0.92129007241E+01 -0.76428231249E+01 -0.13762374568E+02  0.18239880457E+02  0.51100000000E-03 0. -1.
        -11    1    3    3    0    0 -0.37139940558E+01  0.70647233994E+01  0.14986402884E+02  0.16979291511E+02  0.51100000000E-03 0.  1.
        -12    1    3    3    0    0 -0.12128627756E+02 -0.37476010706E+01 -0.20465380675E+02  0.24082772498E+02  0.00000000000E+00 0.  1.
</event>
<event>
 7    1  0.1113211E-011  0.5930196E+02  0.7816164E-02  0.1266605E+00
        -11   -1    0    0    0    0  0.00000000000E+00  0.00000000000E+00  0.45593999997E+02  0.45594000000E+02  0.51100000000E-03 0. -1.
         11   -1    0    0    0    0 -0.00000000000E+00 -0.00000000000E+00 -0.45593999997E+02  0.45594000000E+02  0.51100000000E-03 0.  1.
    9900012    2    1    2    0    0 -0.10948095422E+02 -0.10092103756E+02  0.28195886921E+02  0.59301962446E+02  0.50000033591E+02 0.  0.
        -12    1    1    2    0    0  0.10948095422E+02  0.10092103756E+02 -0.28195886921E+02  0.31886037554E+02  0.00000000000E+00 0.  1.
         11    1    3    3    0    0  0.95076952862E+01 -0.38562530633E+01  0.19629796070E+02  0.22149398443E+02  0.51100000000E-03 0. -1.
        -11    1    3    3    0    0 -0.10613637550E+02  0.82369026719E+01 -0.56791209432E+01  0.14585893274E+02  0.51100000000E-03 0.  1.
         12    1    3    3    0    0 -0.98421531582E+01 -0.14472753365E+02  0.14245211794E+02  0.22566670729E+02  0.00000000000E+00 0. -1.
</event>
<event>
 7    1  0.1113211E-011  0.5930195E+02  0.7816164E-02  0.1266605E+00
        -11   -1    0    0    0    0  0.00000000000E+00  0.00000000000E+00  0.45593999997E+02  0.45594000000E+02  0.51100000000E-03 0.  1.
         11   -1    0    0    0    0 -0.00000000000E+00 -0.00000000000E+00 -0.45593999997E+02  0.45594000000E+02  0.51100000000E-03 0. -1.
    9900012    2    1    2    0    0 -0.18133225882E+02  0.25938187972E+02  0.38879828438E+01  0.59301954671E+02  0.50000019410E+02 0.  0.
        -12    1    1    2    0    0  0.18133225882E+02 -0.25938187972E+02 -0.38879828438E+01  0.31886045329E+02  0.00000000000E+00 0.  1.
         11    1    3    3    0    0  0.89474798861E+00  0.16412774422E+02 -0.16653334762E+02  0.23399002054E+02  0.51100000000E-03 0. -1.
        -11    1    3    3    0    0 -0.51777213279E+01  0.64355460110E+01  0.20071317664E+02  0.21704442947E+02  0.51100000000E-03 0.  1.
        -12    1    3    3    0    0 -0.13850252542E+02  0.30898675393E+01  0.46999994213E+00  0.14198509670E+02  0.00000000000E+00 0.  1.
</event>
<event>
 7    1  0.1113211E-011  0.5930196E+02  0.7816164E-02  0.1266605E+00
        -11   -1    0    0    0    0  0.00000000000E+00  0.00000000000E+00  0.45593999997E+02  0.45594000000E+02  0.51100000000E-03 0.  1.
         11   -1    0    0    0    0 -0.00000000000E+00 -0.00000000000E+00 -0.45593999997E+02  0.45594000000E+02  0.51100000000E-03 0. -1.
    9900012    2    1    2    0    0 -0.14711393621E+02  0.25513603347E+02 -0.12220891084E+02  0.59301964861E+02  0.50000037994E+02 0.  0.
        -12    1    1    2    0    0  0.14711393621E+02 -0.25513603347E+02  0.12220891084E+02  0.31886035139E+02  0.00000000000E+00 0.  1.
         11    1    3    3    0    0  0.40672542303E+01 -0.42729858852E+01 -0.49721950774E+01  0.77151597195E+01  0.51100000000E-03 0. -1.
        -11    1    3    3    0    0 -0.28354713794E+02  0.29227365180E+02 -0.93178209587E+01  0.41773801088E+02  0.51100000000E-03 0.  1.
        -12    1    3    3    0    0  0.95760659423E+01  0.55922405223E+00  0.20691249524E+01  0.98130040528E+01  0.00000000000E+00 0.  1.
</event>
<event>
 7    1  0.1113211E-011  0.5930194E+02  0.7816164E-02  0.1266605E+00
        -11   -1    0    0    0    0  0.00000000000E+00  0.00000000000E+00  0.45593999997E+02  0.45594000000E+02  0.51100000000E-03 0. -1.
         11   -1    0    0    0    0 -0.00000000000E+00 -0.00000000000E+00 -0.45593999997E+02  0.45594000000E+02  0.51100000000E-03 0.  1.
    9900012    2    1    2    0    0  0.11584329510E+02  0.24453099455E+02 -0.16869201827E+02  0.59301941394E+02  0.49999995196E+02 0.  0.
        -12    1    1    2    0    0 -0.11584329510E+02 -0.24453099455E+02  0.16869201827E+02  0.31886058606E+02  0.00000000000E+00 0.  1.
         11    1    3    3    0    0  0.43814245241E+01 -0.17612975217E+01 -0.31687415568E+01  0.56868245212E+01  0.51100000000E-03 0. -1.
        -11    1    3    3    0    0 -0.10350372528E+02  0.30291558757E+02 -0.15384422667E+02  0.35516041509E+02  0.51100000000E-03 0.  1.
        -12    1    3    3    0    0  0.17553277514E+02 -0.40771617803E+01  0.16839623964E+01  0.18099075363E+02  0.00000000000E+00 0.  1.
</event>
<event>
 7    1  0.1113211E-011  0.5930198E+02  0.7816164E-02  0.1266605E+00
        -11   -1    0    0    0    0  0.00000000000E+00  0.00000000000E+00  0.45593999997E+02  0.45594000000E+02  0.51100000000E-03 0.  1.
         11   -1    0    0    0    0 -0.00000000000E+00 -0.00000000000E+00 -0.45593999997E+02  0.45594000000E+02  0.51100000000E-03 0. -1.
    9900012    2    1    2    0    0 -0.22227688617E+02  0.22377447137E+02  0.46795418851E+01  0.59301978080E+02  0.50000062104E+02 0.  0.
        -12    1    1    2    0    0  0.22227688617E+02 -0.22377447137E+02 -0.46795418851E+01  0.31886021920E+02  0.00000000000E+00 0.  1.
         11    1    3    3    0    0 -0.22202608647E+02  0.59910546228E+01 -0.22286515007E+01  0.23104446629E+02  0.51100000000E-03 0. -1.
        -11    1    3    3    0    0  0.68614332364E+01 -0.71393353243E+01  0.61830375989E+01  0.11673873785E+02  0.51100000000E-03 0.  1.
        -12    1    3    3    0    0 -0.68865132062E+01  0.23525727838E+02  0.72515578687E+00  0.24523657667E+02  0.00000000000E+00 0.  1.
</event>
<event>
 7    1  0.1113211E-011  0.5930193E+02  0.7816164E-02  0.1266605E+00
        -11   -1    0    0    0    0  0.00000000000E+00  0.00000000000E+00  0.45593999997E+02  0.45594000000E+02  0.51100000000E-03 0.  1.
         11   -1    0    0    0    0 -0.00000000000E+00 -0.00000000000E+00 -0.45593999997E+02  0.45594000000E+02  0.51100000000E-03 0. -1.
    9900012    2    1    2    0    0  0.25011930981E+01  0.26040889401E+02  0.18230129543E+02  0.59301929204E+02  0.49999972964E+02 0.  0.
        -12    1    1    2    0    0 -0.25011930981E+01 -0.26040889401E+02 -0.18230129543E+02  0.31886070796E+02  0.00000000000E+00 0.  1.
         11    1    3    3    0    0  0.21790358737E+02  0.28583236933E+02  0.75302967272E+01  0.36722289369E+02  0.51100000000E-03 0. -1.
        -11    1    3    3    0    0 -0.13710400717E+02 -0.44004993721E-01  0.65754510433E+01  0.15205708828E+02  0.51100000000E-03 0.  1.
         12    1    3    3    0    0 -0.55787649212E+01 -0.24983425388E+01  0.41243817724E+01  0.73739310068E+01  0.00000000000E+00 0. -1.
</event>
<event>
 7    1  0.1113211E-011  0.5930197E+02  0.7816164E-02  0.1266605E+00
        -11   -1    0    0    0    0  0.00000000000E+00  0.00000000000E+00  0.45593999997E+02  0.45594000000E+02  0.51100000000E-03 0. -1.
         11   -1    0    0    0    0 -0.00000000000E+00 -0.00000000000E+00 -0.45593999997E+02  0.45594000000E+02  0.51100000000E-03 0.  1.
    9900012    2    1    2    0    0  0.42094491382E+01 -0.26421509126E+02  0.17346560597E+02  0.59301972165E+02  0.50000051316E+02 0.  0.
        -12    1    1    2    0    0 -0.42094491382E+01  0.26421509126E+02 -0.17346560597E+02  0.31886027835E+02  0.00000000000E+00 0.  1.
         11    1    3    3    0    0  0.12457564324E+02 -0.27817329081E+02 -0.37897179013E+01  0.30714111873E+02  0.51100000000E-03 0. -1.
        -11    1    3    3    0    0  0.18519814009E+01 -0.21745597164E+01  0.16783337602E+02  0.17024657600E+02  0.51100000000E-03 0.  1.
        -12    1    3    3    0    0 -0.10100096587E+02  0.35703796710E+01  0.43529408959E+01  0.11563202692E+02  0.00000000000E+00 0.  1.
</event>
<event>
 7    1  0.1113211E-011  0.5930194E+02  0.7816164E-02  0.1266605E+00
        -11   -1    0    0    0    0  0.00000000000E+00  0.00000000000E+00  0.45593999997E+02  0.45594000000E+02  0.51100000000E-03 0.  1.
         11   -1    0    0    0    0 -0.00000000000E+00 -0.00000000000E+00 -0.45593999997E+02  0.45594000000E+02  0.51100000000E-03 0. -1.
    9900012    2    1    2    0    0  0.24548376788E+02  0.19238677681E+02 -0.66310743473E+01  0.59301942406E+02  0.49999997043E+02 0.  0.
        -12    1    1    2    0    0 -0.24548376788E+02 -0.19238677681E+02  0.66310743473E+01  0.31886057594E+02  0.00000000000E+00 0.  1.
         11    1    3    3    0    0 -0.84722070770E+01  0.65740489019E+01  0.95131325634E+01  0.14335135268E+02  0.51100000000E-03 0.  1.
        -11    1    3    3    0    0  0.22482345140E+02  0.16075297540E+02 -0.30344990481E+01  0.27804302162E+02  0.51100000000E-03 0. -1.
        -12    1    3    3    0    0  0.10538238725E+02 -0.34106687599E+01 -0.13109707863E+02  0.17162504976E+02  0.00000000000E+00 0.  1.
</event>
<event>
 7    1  0.1113211E-011  0.5930195E+02  0.7816164E-02  0.1266605E+00
        -11   -1    0    0    0    0  0.00000000000E+00  0.00000000000E+00  0.45593999997E+02  0.45594000000E+02  0.51100000000E-03 0. -1.
         11   -1    0    0    0    0 -0.00000000000E+00 -0.00000000000E+00 -0.45593999997E+02  0.45594000000E+02  0.51100000000E-03 0.  1.
    9900012    2    1    2    0    0 -0.14788914815E+02 -0.66676225943E+01  0.27450888978E+02  0.59301945083E+02  0.50000001925E+02 0.  0.
        -12    1    1    2    0    0  0.14788914815E+02  0.66676225943E+01 -0.27450888978E+02  0.31886054917E+02  0.00000000000E+00 0.  1.
         11    1    3    3    0    0 -0.18428943930E+02 -0.14603282444E+02  0.26206797322E+02  0.35209062167E+02  0.51100000000E-03 0. -1.
        -11    1    3    3    0    0  0.10972019264E+02  0.22262333107E+01 -0.56323635918E+01  0.12532551272E+02  0.51100000000E-03 0.  1.
        -12    1    3    3    0    0 -0.73319901495E+01  0.57094265389E+01  0.68764552477E+01  0.11560331644E+02  0.00000000000E+00 0.  1.
</event>
<event>
 7    1  0.1113211E-011  0.5930194E+02  0.7816164E-02  0.1266605E+00
        -11   -1    0    0    0    0  0.00000000000E+00  0.00000000000E+00  0.45593999997E+02  0.45594000000E+02  0.51100000000E-03 0.  1.
         11   -1    0    0    0    0 -0.00000000000E+00 -0.00000000000E+00 -0.45593999997E+02  0.45594000000E+02  0.51100000000E-03 0. -1.
    9900012    2    1    2    0    0  0.47110719331E-01  0.98454722921E+01 -0.30327964552E+02  0.59301937559E+02  0.49999988203E+02 0.  0.
        -12    1    1    2    0    0 -0.47110719331E-01 -0.98454722921E+01  0.30327964552E+02  0.31886062441E+02  0.00000000000E+00 0.  1.
         11    1    3    3    0    0 -0.17186511815E+02  0.16345108609E+02 -0.24753502293E+02  0.34282278802E+02  0.51100000000E-03 0. -1.
        -11    1    3    3    0    0  0.17001167324E+02 -0.86799836140E+01 -0.88798451830E+01  0.21053110379E+02  0.51100000000E-03 0.  1.
         12    1    3    3    0    0  0.23245521106E+00  0.21803472973E+01  0.33053829241E+01  0.39665483783E+01  0.00000000000E+00 0. -1.
</event>
<event>
 7    1  0.1113211E-011  0.5930188E+02  0.7816164E-02  0.1266605E+00
        -11   -1    0    0    0    0  0.00000000000E+00  0.00000000000E+00  0.45593999997E+02  0.45594000000E+02  0.51100000000E-03 0. -1.
         11   -1    0    0    0    0 -0.00000000000E+00 -0.00000000000E+00 -0.45593999997E+02  0.45594000000E+02  0.51100000000E-03 0.  1.
    9900012    2    1    2    0    0 -0.28234584136E+02 -0.14750778659E+02 -0.13954502867E+01  0.59301882426E+02  0.49999887654E+02 0.  0.
        -12    1    1    2    0    0  0.28234584136E+02  0.14750778659E+02  0.13954502867E+01  0.31886117574E+02  0.00000000000E+00 0.  1.
         11    1    3    3    0    0 -0.76442062089E+01 -0.25730254101E+02  0.74413862155E+01  0.27854157567E+02  0.51100000000E-03 0. -1.
        -11    1    3    3    0    0 -0.48172963230E+01  0.11425786385E+02  0.16387708871E+01  0.12507618025E+02  0.51100000000E-03 0.  1.
         12    1    3    3    0    0 -0.15773081604E+02 -0.44631094284E+00 -0.10475607389E+02  0.18940106835E+02  0.00000000000E+00 0. -1.
</event>
<event>
 7    1  0.1113211E-011  0.5930199E+02  0.7816164E-02  0.1266605E+00
        -11   -1    0    0    0    0  0.00000000000E+00  0.00000000000E+00  0.45593999997E+02  0.45594000000E+02  0.51100000000E-03 0. -1.
         11   -1    0    0    0    0 -0.00000000000E+00 -0.00000000000E+00 -0.45593999997E+02  0.45594000000E+02  0.51100000000E-03 0.  1.
    9900012    2    1    2    0    0  0.23506852985E+02 -0.34543727733E+00  0.21541273867E+02  0.59301985135E+02  0.50000074969E+02 0.  0.
        -12    1    1    2    0    0 -0.23506852985E+02  0.34543727733E+00 -0.21541273867E+02  0.31886014865E+02  0.00000000000E+00 0.  1.
         11    1    3    3    0    0  0.83824950080E+01 -0.19644497046E+01  0.61418618872E+01  0.10575809799E+02  0.51100000000E-03 0. -1.
        -11    1    3    3    0    0 -0.42960869301E+01 -0.12518539623E+02  0.20277444291E+02  0.24214560587E+02  0.51100000000E-03 0.  1.
        -12    1    3    3    0    0  0.19420444907E+02  0.14137552050E+02 -0.48780323115E+01  0.24511614749E+02  0.00000000000E+00 0.  1.
</event>
<event>
 7    1  0.1113211E-011  0.5930198E+02  0.7816164E-02  0.1266605E+00
        -11   -1    0    0    0    0  0.00000000000E+00  0.00000000000E+00  0.45593999997E+02  0.45594000000E+02  0.51100000000E-03 0. -1.
         11   -1    0    0    0    0 -0.00000000000E+00 -0.00000000000E+00 -0.45593999997E+02  0.45594000000E+02  0.51100000000E-03 0.  1.
    9900012    2    1    2    0    0 -0.58442833340E+01  0.30583516919E+02  0.68710555513E+01  0.59301975487E+02  0.50000057375E+02 0.  0.
        -12    1    1    2    0    0  0.58442833340E+01 -0.30583516919E+02 -0.68710555513E+01  0.31886024513E+02  0.00000000000E+00 0.  1.
         11    1    3    3    0    0 -0.51300856253E+01  0.32305243407E+02  0.20272670172E+02  0.38482823263E+02  0.51100000000E-03 0. -1.
        -11    1    3    3    0    0  0.56915756020E+01 -0.14467914255E+01  0.98958336765E-01  0.58734173422E+01  0.51100000000E-03 0.  1.
         12    1    3    3    0    0 -0.64057733106E+01 -0.27493506280E+00 -0.13500572957E+02  0.14945734882E+02  0.00000000000E+00 0. -1.
</event>
<event>
 7    1  0.1113211E-011  0.5930188E+02  0.7816164E-02  0.1266605E+00
        -11   -1    0    0    0    0  0.00000000000E+00  0.00000000000E+00  0.45593999997E+02  0.45594000000E+02  0.51100000000E-03 0.  1.
         11   -1    0    0    0    0 -0.00000000000E+00 -0.00000000000E+00 -0.45593999997E+02  0.45594000000E+02  0.51100000000E-03 0. -1.
    9900012    2    1    2    0    0  0.44577228364E+01 -0.12992310739E+02 -0.28775919229E+02  0.59301875138E+02  0.49999874362E+02 0.  0.
        -12    1    1    2    0    0 -0.44577228364E+01  0.12992310739E+02  0.28775919229E+02  0.31886124862E+02  0.00000000000E+00 0.  1.
         11    1    3    3    0    0 -0.35035772183E+01  0.59777233700E+01 -0.36044918715E+02  0.36704827958E+02  0.51100000000E-03 0. -1.
        -11    1    3    3    0    0  0.75047414434E+01 -0.13009049619E+02  0.31730421999E+01  0.15350072090E+02  0.51100000000E-03 0.  1.
         12    1    3    3    0    0  0.45655861134E+00 -0.59609844903E+01  0.40959572861E+01  0.72469750896E+01  0.00000000000E+00 0. -1.
</event>
<event>
 7    1  0.1113211E-011  0.5930194E+02  0.7816164E-02  0.1266605E+00
        -11   -1    0    0    0    0  0.00000000000E+00  0.00000000000E+00  0.45593999997E+02  0.45594000000E+02  0.51100000000E-03 0. -1.
         11   -1    0    0    0    0 -0.00000000000E+00 -0.00000000000E+00 -0.45593999997E+02  0.45594000000E+02  0.51100000000E-03 0.  1.
    9900012    2    1    2    0    0  0.17182446259E+02  0.10739338924E+02  0.24620133043E+02  0.59301940177E+02  0.49999992977E+02 0.  0.
        -12    1    1    2    0    0 -0.17182446259E+02 -0.10739338924E+02 -0.24620133043E+02  0.31886059823E+02  0.00000000000E+00 0.  1.
         11    1    3    3    0    0  0.26008255790E+02  0.21941862924E+02  0.28439343731E+02  0.44347164396E+02  0.51100000000E-03 0. -1.
        -11    1    3    3    0    0 -0.27136318950E+01 -0.41350426300E+01 -0.24216084484E+01  0.55069559061E+01  0.51100000000E-03 0.  1.
         12    1    3    3    0    0 -0.61121776360E+01 -0.70674813702E+01 -0.13976022394E+01  0.94478198751E+01  0.00000000000E+00 0. -1.
</event>
<event>
 7    1  0.1113211E-011  0.5930199E+02  0.7816164E-02  0.1266605E+00
        -11   -1    0    0    0    0  0.00000000000E+00  0.00000000000E+00  0.45593999997E+02  0.45594000000E+02  0.51100000000E-03 0.  1.
         11   -1    0    0    0    0 -0.00000000000E+00 -0.00000000000E+00 -0.45593999997E+02  0.45594000000E+02  0.51100000000E-03 0. -1.
    9900012    2    1    2    0    0  0.27507876121E+02 -0.82736205334E+00 -0.16104340785E+02  0.59301991018E+02  0.50000085699E+02 0.  0.
        -12    1    1    2    0    0 -0.27507876121E+02  0.82736205334E+00  0.16104340785E+02  0.31886008982E+02  0.00000000000E+00 0.  1.
         11    1    3    3    0    0 -0.99886964555E+01 -0.47003850784E+01 -0.13913162876E+02  0.17760736985E+02  0.51100000000E-03 0. -1.
        -11    1    3    3    0    0  0.21197580425E+02  0.10442131028E+02  0.11308292572E+01  0.23657013577E+02  0.51100000000E-03 0.  1.
         12    1    3    3    0    0  0.16298992152E+02 -0.65691080025E+01 -0.33220071666E+01  0.17884240457E+02  0.00000000000E+00 0. -1.
</event>
<event>
 7    1  0.1113211E-011  0.5930193E+02  0.7816164E-02  0.1266605E+00
        -11   -1    0    0    0    0  0.00000000000E+00  0.00000000000E+00  0.45593999997E+02  0.45594000000E+02  0.51100000000E-03 0.  1.
         11   -1    0    0    0    0 -0.00000000000E+00 -0.00000000000E+00 -0.45593999997E+02  0.45594000000E+02  0.51100000000E-03 0. -1.
    9900012    2    1    2    0    0  0.29958364771E+02 -0.36071793297E+00 -0.10912746260E+02  0.59301925170E+02  0.49999965607E+02 0.  0.
        -12    1    1    2    0    0 -0.29958364771E+02  0.36071793297E+00  0.10912746260E+02  0.31886074830E+02  0.00000000000E+00 0.  1.
         11    1    3    3    0    0  0.92418921534E+01  0.20972462508E+02  0.14597247419E+01  0.22964920005E+02  0.51100000000E-03 0.  1.
        -11    1    3    3    0    0  0.23015914703E+02 -0.16597245520E+02 -0.12643472510E+02  0.31065387264E+02  0.51100000000E-03 0. -1.
        -12    1    3    3    0    0 -0.22994420857E+01 -0.47359349208E+01  0.27100150849E+00  0.52716179013E+01  0.00000000000E+00 0.  1.
</event>
<event>
 7    1  0.1113211E-011  0.5930194E+02  0.7816164E-02  0.1266605E+00
        -11   -1    0    0    0    0  0.00000000000E+00  0.00000000000E+00  0.45593999997E+02  0.45594000000E+02  0.51100000000E-03 0.  1.
         11   -1    0    0    0    0 -0.00000000000E+00 -0.00000000000E+00 -0.45593999997E+02  0.45594000000E+02  0.51100000000E-03 0. -1.
    9900012    2    1    2    0    0  0.15953984495E+02  0.18466876448E+02 -0.20522318853E+02  0.59301941634E+02  0.49999995635E+02 0.  0.
        -12    1    1    2    0    0 -0.15953984495E+02 -0.18466876448E+02  0.20522318853E+02  0.31886058366E+02  0.00000000000E+00 0.  1.
         11    1    3    3    0    0  0.21095697105E+02  0.26046288693E+02 -0.49976150086E+01  0.33888253822E+02  0.51100000000E-03 0. -1.
        -11    1    3    3    0    0  0.15228416724E+01 -0.25711804590E+01 -0.16726124372E+02  0.16990975619E+02  0.51100000000E-03 0.  1.
         12    1    3    3    0    0 -0.66645542829E+01 -0.50082317862E+01  0.12014205275E+01  0.84227121937E+01  0.00000000000E+00 0. -1.
</event>
<event>
 7    1  0.1113211E-011  0.5930189E+02  0.7816164E-02  0.1266605E+00
        -11   -1    0    0    0    0  0.00000000000E+00  0.00000000000E+00  0.45593999997E+02  0.45594000000E+02  0.51100000000E-03 0.  1.
         11   -1    0    0    0    0 -0.00000000000E+00 -0.00000000000E+00 -0.45593999997E+02  0.45594000000E+02  0.51100000000E-03 0. -1.
    9900012    2    1    2    0    0 -0.11034581670E+02  0.17959386952E+02 -0.23925345779E+02  0.59301894202E+02  0.49999909129E+02 0.  0.
        -12    1    1    2    0    0  0.11034581670E+02 -0.17959386952E+02  0.23925345779E+02  0.31886105798E+02  0.00000000000E+00 0.  1.
         11    1    3    3    0    0  0.68094678926E+01  0.12168362226E+02 -0.25400860599E+02  0.28976570047E+02  0.51100000000E-03 0. -1.
        -11    1    3    3    0    0  0.79445937864E+00 -0.71334321129E+01  0.25543406369E+01  0.76185087624E+01  0.51100000000E-03 0.  1.
         12    1    3    3    0    0 -0.18638508941E+02  0.12924456839E+02 -0.10788258175E+01  0.22706815392E+02  0.00000000000E+00 0. -1.
</event>
<event>
 7    1  0.1113211E-011  0.5930195E+02  0.7816164E-02  0.1266605E+00
        -11   -1    0    0    0    0  0.00000000000E+00  0.00000000000E+00  0.45593999997E+02  0.45594000000E+02  0.51100000000E-03 0.  1.
         11   -1    0    0    0    0 -0.00000000000E+00 -0.00000000000E+00 -0.45593999997E+02  0.45594000000E+02  0.51100000000E-03 0. -1.
    9900012    2    1    2    0    0  0.12863287770E+01 -0.27221985014E+02 -0.16553831382E+02  0.59301945944E+02  0.50000003496E+02 0.  0.
        -12    1    1    2    0    0 -0.12863287770E+01  0.27221985014E+02  0.16553831382E+02  0.31886054056E+02  0.00000000000E+00 0.  1.
         11    1    3    3    0    0 -0.23250084546E+01  0.51708014907E+01 -0.22196039961E+02  0.22908667412E+02  0.51100000000E-03 0. -1.
        -11    1    3    3    0    0  0.86605192174E+01 -0.16505380802E+02 -0.44875438109E+00  0.18644934145E+02  0.51100000000E-03 0.  1.
         12    1    3    3    0    0 -0.50491819859E+01 -0.15887405703E+02  0.60909629607E+01  0.17748344387E+02  0.00000000000E+00 0. -1.
</event>
<event>
 7    1  0.1113211E-011  0.5930203E+02  0.7816164E-02  0.1266604E+00
        -11   -1    0    0    0    0  0.00000000000E+00  0.00000000000E+00  0.45593999997E+02  0.45594000000E+02  0.51100000000E-03 0.  1.
         11   -1    0    0    0    0 -0.00000000000E+00 -0.00000000000E+00 -0.45593999997E+02  0.45594000000E+02  0.51100000000E-03 0. -1.
    9900012    2    1    2    0    0  0.26085148107E+02  0.99082633749E+01 -0.15430696095E+02  0.59302031035E+02  0.50000158680E+02 0.  0.
        -12    1    1    2    0    0 -0.26085148107E+02 -0.99082633749E+01  0.15430696095E+02  0.31885968965E+02  0.00000000000E+00 0.  1.
         11    1    3    3    0    0  0.27820032285E+02  0.25581139576E+02 -0.74596572307E+01  0.38522660664E+02  0.51100000000E-03 0. -1.
        -11    1    3    3    0    0 -0.15738687408E+01 -0.67536536461E+01  0.21765698851E+01  0.72681742625E+01  0.51100000000E-03 0.  1.
         12    1    3    3    0    0 -0.16101543789E+00 -0.89192225547E+01 -0.10147608750E+02  0.13511196109E+02  0.00000000000E+00 0. -1.
</event>
<event>
 7    1  0.1113211E-011  0.5930196E+02  0.7816164E-02  0.1266605E+00
        -11   -1    0    0    0    0  0.00000000000E+00  0.00000000000E+00  0.45593999997E+02  0.45594000000E+02  0.51100000000E-03 0.  1.
         11   -1    0    0    0    0 -0.00000000000E+00 -0.00000000000E+00 -0.45593999997E+02  0.45594000000E+02  0.51100000000E-03 0. -1.
    9900012    2    1    2    0    0  0.79723870226E+01  0.66774032068E+01 -0.30142541082E+02  0.59301961499E+02  0.50000031863E+02 0.  0.
        -12    1    1    2    0    0 -0.79723870226E+01 -0.66774032068E+01  0.30142541082E+02  0.31886038501E+02  0.00000000000E+00 0.  1.
         11    1    3    3    0    0  0.40729668019E+01  0.72088120284E+01 -0.99758101230E+01  0.12964290081E+02  0.51100000000E-03 0. -1.
        -11    1    3    3    0    0 -0.44392449006E+01 -0.10857627934E+02  0.86744041029E+01  0.14589046112E+02  0.51100000000E-03 0.  1.
        -12    1    3    3    0    0  0.83386651213E+01  0.10326219113E+02 -0.28841135062E+02  0.31748625306E+02  0.00000000000E+00 0.  1.
</event>
<event>
 7    1  0.1113211E-011  0.5930194E+02  0.7816164E-02  0.1266605E+00
        -11   -1    0    0    0    0  0.00000000000E+00  0.00000000000E+00  0.45593999997E+02  0.45594000000E+02  0.51100000000E-03 0.  1.
         11   -1    0    0    0    0 -0.00000000000E+00 -0.00000000000E+00 -0.45593999997E+02  0.45594000000E+02  0.51100000000E-03 0. -1.
    9900012    2    1    2    0    0  0.16349255047E+02  0.75323736477E+01 -0.26318926986E+02  0.59301941745E+02  0.49999995836E+02 0.  0.
        -12    1    1    2    0    0 -0.16349255047E+02 -0.75323736477E+01  0.26318926986E+02  0.31886058255E+02  0.00000000000E+00 0.  1.
         11    1    3    3    0    0 -0.11618344729E+02 -0.10566096792E+02 -0.14736865029E+02  0.21536098226E+02  0.51100000000E-03 0. -1.
        -11    1    3    3    0    0  0.12411438246E+02  0.15998027013E+02 -0.64078059669E+01  0.21237717514E+02  0.51100000000E-03 0.  1.
        -12    1    3    3    0    0  0.15556161530E+02  0.21004434266E+01 -0.51742559901E+01  0.16528126004E+02  0.00000000000E+00 0.  1.
</event>
<event>
 7    1  0.1113211E-011  0.5930205E+02  0.7816164E-02  0.1266604E+00
        -11   -1    0    0    0    0  0.00000000000E+00  0.00000000000E+00  0.45593999997E+02  0.45594000000E+02  0.51100000000E-03 0.  1.
         11   -1    0    0    0    0 -0.00000000000E+00 -0.00000000000E+00 -0.45593999997E+02  0.45594000000E+02  0.51100000000E-03 0. -1.
    9900012    2    1    2    0    0 -0.33186722270E+01 -0.88839265508E+01 -0.30443002271E+02  0.59302045042E+02  0.50000184225E+02 0.  0.
        -12    1    1    2    0    0  0.33186722270E+01  0.88839265508E+01  0.30443002271E+02  0.31885954958E+02  0.00000000000E+00 0.  1.
         11    1    3    3    0    0  0.10921386241E+02 -0.29928201789E+01 -0.26688453998E+02  0.28991502671E+02  0.51100000000E-03 0. -1.
        -11    1    3    3    0    0 -0.80958758664E+01  0.97103076291E+01  0.15182478671E+01  0.12733356083E+02  0.51100000000E-03 0.  1.
         12    1    3    3    0    0 -0.61441826013E+01 -0.15601414001E+02 -0.52727961402E+01  0.17577186288E+02  0.00000000000E+00 0. -1.
</event>
<event>
 7    1  0.1113211E-011  0.5930195E+02  0.7816164E-02  0.1266605E+00
        -11   -1    0    0    0    0  0.00000000000E+00  0.00000000000E+00  0.45593999997E+02  0.45594000000E+02  0.51100000000E-03 0. -1.
         11   -1    0    0    0    0 -0.00000000000E+00 -0.00000000000E+00 -0.45593999997E+02  0.45594000000E+02  0.51100000000E-03 0.  1.
    9900012    2    1    2    0    0  0.22741734009E+02  0.21477373458E+02 -0.61851610464E+01  0.59301948918E+02  0.50000008919E+02 0.  0.
        -12    1    1    2    0    0 -0.22741734009E+02 -0.21477373458E+02  0.61851610464E+01  0.31886051082E+02  0.00000000000E+00 0.  1.
         11    1    3    3    0    0 -0.55243940413E+01  0.36738111256E+01  0.53271324989E+01  0.85084756938E+01  0.51100000000E-03 0. -1.
        -11    1    3    3    0    0  0.29150430992E+02  0.55597767797E+01  0.51274751351E+01  0.30115606359E+02  0.51100000000E-03 0.  1.
        -12    1    3    3    0    0 -0.88430294127E+00  0.12243785553E+02 -0.16639768680E+02  0.20677866865E+02  0.00000000000E+00 0.  1.
</event>
<event>
 7    1  0.1113211E-011  0.5930196E+02  0.7816164E-02  0.1266605E+00
        -11   -1    0    0    0    0  0.00000000000E+00  0.00000000000E+00  0.45593999997E+02  0.45594000000E+02  0.51100000000E-03 0.  1.
         11   -1    0    0    0    0 -0.00000000000E+00 -0.00000000000E+00 -0.45593999997E+02  0.45594000000E+02  0.51100000000E-03 0. -1.
    9900012    2    1    2    0    0  0.22216634367E+02  0.11882455074E+02  0.19543496972E+02  0.59301955168E+02  0.50000020316E+02 0.  0.
        -12    1    1    2    0    0 -0.22216634367E+02 -0.11882455074E+02 -0.19543496972E+02  0.31886044832E+02  0.00000000000E+00 0.  1.
         11    1    3    3    0    0  0.35011420515E+01 -0.10314892094E+02  0.30805994059E+01  0.11320118707E+02  0.51100000000E-03 0. -1.
        -11    1    3    3    0    0 -0.88541849941E+01  0.13317414952E+02  0.42456732144E+01  0.16546174006E+02  0.51100000000E-03 0.  1.
        -12    1    3    3    0    0  0.27569677309E+02  0.88799322167E+01  0.12217224351E+02  0.31435662455E+02  0.00000000000E+00 0.  1.
</event>
<event>
 7    1  0.1113211E-011  0.5930192E+02  0.7816164E-02  0.1266605E+00
        -11   -1    0    0    0    0  0.00000000000E+00  0.00000000000E+00  0.45593999997E+02  0.45594000000E+02  0.51100000000E-03 0.  1.
         11   -1    0    0    0    0 -0.00000000000E+00 -0.00000000000E+00 -0.45593999997E+02  0.45594000000E+02  0.51100000000E-03 0. -1.
    9900012    2    1    2    0    0  0.26061019284E+02  0.16802199726E+02  0.74317862043E+01  0.59301920154E+02  0.49999956460E+02 0.  0.
        -12    1    1    2    0    0 -0.26061019284E+02 -0.16802199726E+02 -0.74317862043E+01  0.31886079846E+02  0.00000000000E+00 0.  1.
         11    1    3    3    0    0  0.96238081979E+00 -0.14351255032E+02  0.35317333203E+01  0.14810733889E+02  0.51100000000E-03 0. -1.
        -11    1    3    3    0    0  0.23141420825E+02  0.25472764953E+02  0.10091130527E+02  0.35863881939E+02  0.51100000000E-03 0.  1.
         12    1    3    3    0    0  0.19572176401E+01  0.56806898045E+01 -0.61910776428E+01  0.86273043256E+01  0.00000000000E+00 0. -1.
</event>
<event>
 7    1  0.1421255E-011  0.5930194E+02  0.7816164E-02  0.1266605E+00
        -11   -1    0    0    0    0  0.00000000000E+00  0.00000000000E+00  0.45593999997E+02  0.45594000000E+02  0.51100000000E-03 0.  1.
         11   -1    0    0    0    0 -0.00000000000E+00 -0.00000000000E+00 -0.45593999997E+02  0.45594000000E+02  0.51100000000E-03 0. -1.
    9900012    2    1    2    0    0 -0.19252093121E+02 -0.20369017891E+02 -0.15204635864E+02  0.59301938294E+02  0.49999989543E+02 0.  0.
        -12    1    1    2    0    0  0.19252093121E+02  0.20369017891E+02  0.15204635864E+02  0.31886061706E+02  0.00000000000E+00 0.  1.
         11    1    3    3    0    0 -0.99166800892E+00 -0.13929489230E+02 -0.20956724676E+02  0.25183295755E+02  0.51100000000E-03 0. -1.
        -11    1    3    3    0    0  0.11916151067E+01 -0.52712894074E+01  0.12401853039E+02  0.13528207480E+02  0.51100000000E-03 0.  1.
        -12    1    3    3    0    0 -0.19452040219E+02 -0.11682392532E+01 -0.66497642261E+01  0.20590435059E+02  0.00000000000E+00 0.  1.
</event>
<event>
 7    1  0.1113211E-011  0.5930197E+02  0.7816164E-02  0.1266605E+00
        -11   -1    0    0    0    0  0.00000000000E+00  0.00000000000E+00  0.45593999997E+02  0.45594000000E+02  0.51100000000E-03 0. -1.
         11   -1    0    0    0    0 -0.00000000000E+00 -0.00000000000E+00 -0.45593999997E+02  0.45594000000E+02  0.51100000000E-03 0.  1.
    9900012    2    1    2    0    0  0.75734127589E+01  0.30159928448E+02  0.70527199422E+01  0.59301972913E+02  0.50000052680E+02 0.  0.
        -12    1    1    2    0    0 -0.75734127589E+01 -0.30159928448E+02 -0.70527199422E+01  0.31886027087E+02  0.00000000000E+00 0.  1.
         11    1    3    3    0    0 -0.62724103090E+01  0.22683415693E+02  0.24261725233E+02  0.33801061968E+02  0.51100000000E-03 0. -1.
        -11    1    3    3    0    0  0.49996088607E+01  0.10050714552E+01 -0.21153353737E-02  0.50996335286E+01  0.51100000000E-03 0.  1.
         12    1    3    3    0    0  0.88462142071E+01  0.64714413000E+01 -0.17206889956E+02  0.20401277417E+02  0.00000000000E+00 0. -1.
</event>
<event>
 7    1  0.1113211E-011  0.5930196E+02  0.7816164E-02  0.1266605E+00
        -11   -1    0    0    0    0  0.00000000000E+00  0.00000000000E+00  0.45593999997E+02  0.45594000000E+02  0.51100000000E-03 0.  1.
         11   -1    0    0    0    0 -0.00000000000E+00 -0.00000000000E+00 -0.45593999997E+02  0.45594000000E+02  0.51100000000E-03 0. -1.
    9900012    2    1    2    0    0  0.30359206998E+02 -0.94791236485E+01  0.22769633444E+01  0.59301956082E+02  0.50000021984E+02 0.  0.
        -12    1    1    2    0    0 -0.30359206998E+02  0.94791236485E+01 -0.22769633444E+01  0.31886043918E+02  0.00000000000E+00 0.  1.
         11    1    3    3    0    0 -0.83841646945E+01  0.13690859456E+01  0.12004485839E+02  0.14706335181E+02  0.51100000000E-03 0.  1.
        -11    1    3    3    0    0  0.30898206612E+02 -0.12742511019E+02 -0.20961298148E+01  0.33488274356E+02  0.51100000000E-03 0. -1.
         12    1    3    3    0    0  0.78451650803E+01  0.18943014244E+01 -0.76313926797E+01  0.11107346544E+02  0.00000000000E+00 0. -1.
</event>
<event>
 7    1  0.1113211E-011  0.5930223E+02  0.7816164E-02  0.1266604E+00
        -11   -1    0    0    0    0  0.00000000000E+00  0.00000000000E+00  0.45593999997E+02  0.45594000000E+02  0.51100000000E-03 0. -1.
         11   -1    0    0    0    0 -0.00000000000E+00 -0.00000000000E+00 -0.45593999997E+02  0.45594000000E+02  0.51100000000E-03 0.  1.
    9900012    2    1    2    0    0  0.19840181428E+02  0.17631402968E+02  0.17669266455E+02  0.59302232849E+02  0.50000526739E+02 0.  0.
        -12    1    1    2    0    0 -0.19840181428E+02 -0.17631402968E+02 -0.17669266455E+02  0.31885767151E+02  0.00000000000E+00 0.  1.
         11    1    3    3    0    0  0.32640355831E+02  0.81446065947E+01  0.15118514889E+02  0.36882203541E+02  0.51100000000E-03 0. -1.
        -11    1    3    3    0    0 -0.20307118389E+01  0.47657191587E+00 -0.57443328515E+01  0.61113232228E+01  0.51100000000E-03 0.  1.
         12    1    3    3    0    0 -0.10769462564E+02  0.90102244578E+01  0.82950844171E+01  0.16308706085E+02  0.00000000000E+00 0. -1.
</event>
<event>
 7    1  0.1113211E-011  0.5930203E+02  0.7816164E-02  0.1266604E+00
        -11   -1    0    0    0    0  0.00000000000E+00  0.00000000000E+00  0.45593999997E+02  0.45594000000E+02  0.51100000000E-03 0. -1.
         11   -1    0    0    0    0 -0.00000000000E+00 -0.00000000000E+00 -0.45593999997E+02  0.45594000000E+02  0.51100000000E-03 0.  1.
    9900012    2    1    2    0    0 -0.14313717512E+01 -0.31741937111E+02 -0.26675107279E+01  0.59302031140E+02  0.50000158872E+02 0.  0.
        -12    1    1    2    0    0  0.14313717512E+01  0.31741937111E+02  0.26675107279E+01  0.31885968860E+02  0.00000000000E+00 0.  1.
         11    1    3    3    0    0  0.69162906107E+01 -0.22205185213E+02 -0.29910548935E+01  0.23448917582E+02  0.51100000000E-03 0. -1.
        -11    1    3    3    0    0  0.19614581940E+01  0.98899447427E+01  0.76673830779E+01  0.12666771048E+02  0.51100000000E-03 0.  1.
        -12    1    3    3    0    0 -0.10309120556E+02 -0.19426696641E+02 -0.73438389124E+01  0.23186342510E+02  0.00000000000E+00 0.  1.
</event>
<event>
 7    1  0.1113211E-011  0.5930193E+02  0.7816164E-02  0.1266605E+00
        -11   -1    0    0    0    0  0.00000000000E+00  0.00000000000E+00  0.45593999997E+02  0.45594000000E+02  0.51100000000E-03 0. -1.
         11   -1    0    0    0    0 -0.00000000000E+00 -0.00000000000E+00 -0.45593999997E+02  0.45594000000E+02  0.51100000000E-03 0.  1.
    9900012    2    1    2    0    0 -0.29245576070E+02 -0.12111103866E+02  0.38391551444E+01  0.59301926727E+02  0.49999968448E+02 0.  0.
        -12    1    1    2    0    0  0.29245576070E+02  0.12111103866E+02 -0.38391551444E+01  0.31886073273E+02  0.00000000000E+00 0.  1.
         11    1    3    3    0    0 -0.33291471654E+02 -0.27149407163E+00 -0.25398266477E+01  0.33389317358E+02  0.51100000000E-03 0. -1.
        -11    1    3    3    0    0  0.62266036354E+01 -0.28149108146E+01  0.12878623538E+02  0.14579206434E+02  0.51100000000E-03 0.  1.
        -12    1    3    3    0    0 -0.21807080512E+01 -0.90246989798E+01 -0.64996417463E+01  0.11333402936E+02  0.00000000000E+00 0.  1.
</event>
<event>
 7    1  0.1113211E-011  0.5930194E+02  0.7816164E-02  0.1266605E+00
        -11   -1    0    0    0    0  0.00000000000E+00  0.00000000000E+00  0.45593999997E+02  0.45594000000E+02  0.51100000000E-03 0.  1.
         11   -1    0    0    0    0 -0.00000000000E+00 -0.00000000000E+00 -0.45593999997E+02  0.45594000000E+02  0.51100000000E-03 0. -1.
    9900012    2    1    2    0    0 -0.13855638332E+02 -0.20712561619E+02 -0.19893009381E+02  0.59301941218E+02  0.49999994876E+02 0.  0.
        -12    1    1    2    0    0  0.13855638332E+02  0.20712561619E+02  0.19893009381E+02  0.31886058782E+02  0.00000000000E+00 0.  1.
         11    1    3    3    0    0 -0.84491971743E+01 -0.14525808829E+02 -0.29499946683E+02  0.33950477310E+02  0.51100000000E-03 0. -1.
        -11    1    3    3    0    0  0.62325322877E+01  0.44692729710E+01  0.35089949973E+01  0.84339733079E+01  0.51100000000E-03 0.  1.
         12    1    3    3    0    0 -0.11638973445E+02 -0.10656025760E+02  0.60979423041E+01  0.16917490600E+02  0.00000000000E+00 0. -1.
</event>
<event>
 7    1  0.1113211E-011  0.5930196E+02  0.7816164E-02  0.1266605E+00
        -11   -1    0    0    0    0  0.00000000000E+00  0.00000000000E+00  0.45593999997E+02  0.45594000000E+02  0.51100000000E-03 0.  1.
         11   -1    0    0    0    0 -0.00000000000E+00 -0.00000000000E+00 -0.45593999997E+02  0.45594000000E+02  0.51100000000E-03 0. -1.
    9900012    2    1    2    0    0  0.59812266223E+01 -0.14838855188E+02 -0.27581749386E+02  0.59301959255E+02  0.50000027771E+02 0.  0.
        -12    1    1    2    0    0 -0.59812266223E+01  0.14838855188E+02  0.27581749386E+02  0.31886040745E+02  0.00000000000E+00 0.  1.
         11    1    3    3    0    0 -0.11544881767E+02  0.73063745329E+01  0.15064760584E+01  0.13745431030E+02  0.51100000000E-03 0.  1.
        -11    1    3    3    0    0  0.14749544988E+02 -0.24633328236E+02 -0.30196056453E+02  0.41667154486E+02  0.51100000000E-03 0. -1.
         12    1    3    3    0    0  0.27765634008E+01  0.24880985158E+01  0.11078310089E+01  0.38893737397E+01  0.00000000000E+00 0. -1.
</event>
<event>
 7    1  0.1113211E-011  0.5930196E+02  0.7816164E-02  0.1266605E+00
        -11   -1    0    0    0    0  0.00000000000E+00  0.00000000000E+00  0.45593999997E+02  0.45594000000E+02  0.51100000000E-03 0. -1.
         11   -1    0    0    0    0 -0.00000000000E+00 -0.00000000000E+00 -0.45593999997E+02  0.45594000000E+02  0.51100000000E-03 0.  1.
    9900012    2    1    2    0    0  0.15646390475E+02 -0.22803552843E+02 -0.15871614459E+02  0.59301957557E+02  0.50000024674E+02 0.  0.
        -12    1    1    2    0    0 -0.15646390475E+02  0.22803552843E+02  0.15871614459E+02  0.31886042443E+02  0.00000000000E+00 0.  1.
         11    1    3    3    0    0  0.89097857090E+01 -0.23438847687E+02 -0.15159217228E+02  0.29301292284E+02  0.51100000000E-03 0. -1.
        -11    1    3    3    0    0 -0.72930713323E+01  0.83614061494E+01 -0.66310691432E+01  0.12925675243E+02  0.51100000000E-03 0.  1.
        -12    1    3    3    0    0  0.14029676098E+02 -0.77261113054E+01  0.59186719123E+01  0.17074990030E+02  0.00000000000E+00 0.  1.
</event>
<event>
 7    1  0.1113211E-011  0.5930194E+02  0.7816164E-02  0.1266605E+00
        -11   -1    0    0    0    0  0.00000000000E+00  0.00000000000E+00  0.45593999997E+02  0.45594000000E+02  0.51100000000E-03 0.  1.
         11   -1    0    0    0    0 -0.00000000000E+00 -0.00000000000E+00 -0.45593999997E+02  0.45594000000E+02  0.51100000000E-03 0. -1.
    9900012    2    1    2    0    0 -0.30097848917E+02 -0.90612909225E+01 -0.53603657352E+01  0.59301936847E+02  0.49999986903E+02 0.  0.
        -12    1    1    2    0    0  0.30097848917E+02  0.90612909225E+01  0.53603657352E+01  0.31886063153E+02  0.00000000000E+00 0.  1.
         11    1    3    3    0    0 -0.15366124639E+02 -0.13840539779E+02 -0.19865399011E+02  0.28675990060E+02  0.51100000000E-03 0. -1.
        -11    1    3    3    0    0 -0.47376322073E+01 -0.34623070218E+01  0.16506311861E+02  0.17518306435E+02  0.51100000000E-03 0.  1.
         12    1    3    3    0    0 -0.99940920704E+01  0.82415558780E+01 -0.20012785848E+01  0.13107640351E+02  0.00000000000E+00 0. -1.
</event>
<event>
 7    1  0.1113211E-011  0.5930196E+02  0.7816164E-02  0.1266605E+00
        -11   -1    0    0    0    0  0.00000000000E+00  0.00000000000E+00  0.45593999997E+02  0.45594000000E+02  0.51100000000E-03 0.  1.
         11   -1    0    0    0    0 -0.00000000000E+00 -0.00000000000E+00 -0.45593999997E+02  0.45594000000E+02  0.51100000000E-03 0. -1.
    9900012    2    1    2    0    0  0.15930145874E+02  0.24706251107E+02 -0.12351160987E+02  0.59301959653E+02  0.50000028496E+02 0.  0.
        -12    1    1    2    0    0 -0.15930145874E+02 -0.24706251107E+02  0.12351160987E+02  0.31886040347E+02  0.00000000000E+00 0.  1.
         11    1    3    3    0    0  0.27910134576E+01  0.13795692605E+02  0.64715624835E+01  0.15491675565E+02  0.51100000000E-03 0. -1.
        -11    1    3    3    0    0  0.14454069329E+02  0.38462257680E+01 -0.28244919642E+02  0.31960742461E+02  0.51100000000E-03 0.  1.
        -12    1    3    3    0    0 -0.13149369124E+01  0.70643327338E+01  0.94221961717E+01  0.11849541626E+02  0.00000000000E+00 0.  1.
</event>
<event>
 7    1  0.1113211E-011  0.5930194E+02  0.7816164E-02  0.1266605E+00
        -11   -1    0    0    0    0  0.00000000000E+00  0.00000000000E+00  0.45593999997E+02  0.45594000000E+02  0.51100000000E-03 0.  1.
         11   -1    0    0    0    0 -0.00000000000E+00 -0.00000000000E+00 -0.45593999997E+02  0.45594000000E+02  0.51100000000E-03 0. -1.
    9900012    2    1    2    0    0 -0.79936622931E+01 -0.28100112049E+02 -0.12775199106E+02  0.59301942761E+02  0.49999997691E+02 0.  0.
        -12    1    1    2    0    0  0.79936622931E+01  0.28100112049E+02  0.12775199106E+02  0.31886057239E+02  0.00000000000E+00 0.  1.
         11    1    3    3    0    0 -0.98883873523E+01 -0.26227984256E+02  0.14519370725E+02  0.31567380142E+02  0.51100000000E-03 0. -1.
        -11    1    3    3    0    0  0.35302485506E+00  0.21214589858E+00 -0.19799675704E+02  0.19803958965E+02  0.51100000000E-03 0.  1.
         12    1    3    3    0    0  0.15417002042E+01 -0.20842736920E+01 -0.74948941275E+01  0.79306036545E+01  0.00000000000E+00 0. -1.
</event>
<event>
 7    1  0.1113211E-011  0.5930167E+02  0.7816164E-02  0.1266606E+00
        -11   -1    0    0    0    0  0.00000000000E+00  0.00000000000E+00  0.45593999997E+02  0.45594000000E+02  0.51100000000E-03 0. -1.
         11   -1    0    0    0    0 -0.00000000000E+00 -0.00000000000E+00 -0.45593999997E+02  0.45594000000E+02  0.51100000000E-03 0.  1.
    9900012    2    1    2    0    0  0.24945466327E+02 -0.93378096223E+01 -0.17529037913E+02  0.59301668305E+02  0.49999497145E+02 0.  0.
        -12    1    1    2    0    0 -0.24945466327E+02  0.93378096223E+01  0.17529037913E+02  0.31886331695E+02  0.00000000000E+00 0.  1.
         11    1    3    3    0    0 -0.51526348136E+01  0.58918249003E+01  0.61646030674E+01  0.99632112001E+01  0.51100000000E-03 0. -1.
        -11    1    3    3    0    0  0.10816906651E+02 -0.20590100075E+02 -0.13144354684E+02  0.26715758475E+02  0.51100000000E-03 0.  1.
        -12    1    3    3    0    0  0.19281194490E+02  0.53604655522E+01 -0.10549286297E+02  0.22622698629E+02  0.00000000000E+00 0.  1.
</event>
<event>
 7    1  0.1113211E-011  0.5930195E+02  0.7816164E-02  0.1266605E+00
        -11   -1    0    0    0    0  0.00000000000E+00  0.00000000000E+00  0.45593999997E+02  0.45594000000E+02  0.51100000000E-03 0.  1.
         11   -1    0    0    0    0 -0.00000000000E+00 -0.00000000000E+00 -0.45593999997E+02  0.45594000000E+02  0.51100000000E-03 0. -1.
    9900012    2    1    2    0    0 -0.13641688425E+02  0.10153626433E+02 -0.26972734994E+02  0.59301949353E+02  0.50000009712E+02 0.  0.
        -12    1    1    2    0    0  0.13641688425E+02 -0.10153626433E+02  0.26972734994E+02  0.31886050647E+02  0.00000000000E+00 0.  1.
         11    1    3    3    0    0  0.48876357878E+01  0.17981566840E+02 -0.59188893245E+01  0.19551444466E+02  0.51100000000E-03 0.  1.
        -11    1    3    3    0    0 -0.11485499294E+02 -0.16053510895E+02 -0.49605969702E+01  0.20352872737E+02  0.51100000000E-03 0. -1.
        -12    1    3    3    0    0 -0.70438249188E+01  0.82255704877E+01 -0.16093248699E+02  0.19397632150E+02  0.00000000000E+00 0.  1.
</event>
<event>
 7    1  0.1113211E-011  0.5930200E+02  0.7816164E-02  0.1266605E+00
        -11   -1    0    0    0    0  0.00000000000E+00  0.00000000000E+00  0.45593999997E+02  0.45594000000E+02  0.51100000000E-03 0. -1.
         11   -1    0    0    0    0 -0.00000000000E+00 -0.00000000000E+00 -0.45593999997E+02  0.45594000000E+02  0.51100000000E-03 0.  1.
    9900012    2    1    2    0    0  0.31495878300E+02  0.23294234096E+01  0.43932464672E+01  0.59301997149E+02  0.50000096880E+02 0.  0.
        -12    1    1    2    0    0 -0.31495878300E+02 -0.23294234096E+01 -0.43932464672E+01  0.31886002851E+02  0.00000000000E+00 0.  1.
         11    1    3    3    0    0  0.18788280925E+02  0.65223563399E+01  0.63829037055E+01  0.20887366812E+02  0.51100000000E-03 0. -1.
        -11    1    3    3    0    0 -0.91077471283E+01 -0.94850739350E+01  0.61754712828E+01  0.14527702197E+02  0.51100000000E-03 0.  1.
        -12    1    3    3    0    0  0.21815344503E+02  0.52921410047E+01 -0.81651285210E+01  0.23886928140E+02  0.00000000000E+00 0.  1.
</event>
<event>
 7    1  0.1113211E-011  0.5930194E+02  0.7816164E-02  0.1266605E+00
        -11   -1    0    0    0    0  0.00000000000E+00  0.00000000000E+00  0.45593999997E+02  0.45594000000E+02  0.51100000000E-03 0.  1.
         11   -1    0    0    0    0 -0.00000000000E+00 -0.00000000000E+00 -0.45593999997E+02  0.45594000000E+02  0.51100000000E-03 0. -1.
    9900012    2    1    2    0    0 -0.70108263145E+01 -0.27100440488E+02 -0.15268772724E+02  0.59301937515E+02  0.49999988123E+02 0.  0.
        -12    1    1    2    0    0  0.70108263145E+01  0.27100440488E+02  0.15268772724E+02  0.31886062485E+02  0.00000000000E+00 0.  1.
         11    1    3    3    0    0 -0.46201398959E+01 -0.12327301914E+02 -0.17953890356E+02  0.22263203819E+02  0.51100000000E-03 0. -1.
        -11    1    3    3    0    0  0.29323730371E+01  0.95217429080E+01  0.64723963944E+01  0.11880838143E+02  0.51100000000E-03 0.  1.
        -12    1    3    3    0    0 -0.53230594558E+01 -0.24294881483E+02 -0.37872787627E+01  0.25157895553E+02  0.00000000000E+00 0.  1.
</event>
<event>
 7    1  0.1113211E-011  0.5930195E+02  0.7816164E-02  0.1266605E+00
        -11   -1    0    0    0    0  0.00000000000E+00  0.00000000000E+00  0.45593999997E+02  0.45594000000E+02  0.51100000000E-03 0.  1.
         11   -1    0    0    0    0 -0.00000000000E+00 -0.00000000000E+00 -0.45593999997E+02  0.45594000000E+02  0.51100000000E-03 0. -1.
    9900012    2    1    2    0    0 -0.26272353905E+02  0.14287596229E+02 -0.11061124915E+02  0.59301945523E+02  0.50000002727E+02 0.  0.
        -12    1    1    2    0    0  0.26272353905E+02 -0.14287596229E+02  0.11061124915E+02  0.31886054477E+02  0.00000000000E+00 0.  1.
         11    1    3    3    0    0 -0.54437355628E+01  0.18638844427E+02  0.11026169476E+02  0.22329737841E+02  0.51100000000E-03 0. -1.
        -11    1    3    3    0    0 -0.16370251587E+02 -0.42414309874E+01 -0.27569122807E+01  0.17134043289E+02  0.51100000000E-03 0.  1.
         12    1    3    3    0    0 -0.44583667549E+01 -0.10981721036E+00 -0.19330382111E+02  0.19838164393E+02  0.00000000000E+00 0. -1.
</event>
<event>
 7    1  0.1113211E-011  0.5930203E+02  0.7816164E-02  0.1266604E+00
        -11   -1    0    0    0    0  0.00000000000E+00  0.00000000000E+00  0.45593999997E+02  0.45594000000E+02  0.51100000000E-03 0.  1.
         11   -1    0    0    0    0 -0.00000000000E+00 -0.00000000000E+00 -0.45593999997E+02  0.45594000000E+02  0.51100000000E-03 0. -1.
    9900012    2    1    2    0    0 -0.97306156575E+01 -0.25261298112E+02 -0.16849234878E+02  0.59302034759E+02  0.50000165472E+02 0.  0.
        -12    1    1    2    0    0  0.97306156575E+01  0.25261298112E+02  0.16849234878E+02  0.31885965241E+02  0.00000000000E+00 0.  1.
         11    1    3    3    0    0 -0.31420446994E+01 -0.19692545824E+01 -0.29791563211E+02  0.30021453118E+02  0.51100000000E-03 0. -1.
        -11    1    3    3    0    0 -0.66586272071E+01 -0.11602925103E+02  0.25063527785E+01  0.13610547077E+02  0.51100000000E-03 0.  1.
         12    1    3    3    0    0  0.70056248963E-01 -0.11689118427E+02  0.10435975554E+02  0.15670034564E+02  0.00000000000E+00 0. -1.
</event>
<event>
 7    1  0.1113211E-011  0.5930191E+02  0.7816164E-02  0.1266605E+00
        -11   -1    0    0    0    0  0.00000000000E+00  0.00000000000E+00  0.45593999997E+02  0.45594000000E+02  0.51100000000E-03 0. -1.
         11   -1    0    0    0    0 -0.00000000000E+00 -0.00000000000E+00 -0.45593999997E+02  0.45594000000E+02  0.51100000000E-03 0.  1.
    9900012    2    1    2    0    0  0.21194821849E+02 -0.19935228113E+02 -0.13041810726E+02  0.59301911809E+02  0.49999941240E+02 0.  0.
        -12    1    1    2    0    0 -0.21194821849E+02  0.19935228113E+02  0.13041810726E+02  0.31886088191E+02  0.00000000000E+00 0.  1.
         11    1    3    3    0    0  0.21195272153E+02 -0.17022935511E+02  0.33139091762E+01  0.27386162370E+02  0.51100000000E-03 0. -1.
        -11    1    3    3    0    0  0.13726099164E+01  0.11579467832E+02 -0.11974700000E+02  0.16714113007E+02  0.51100000000E-03 0.  1.
        -12    1    3    3    0    0 -0.13730602203E+01 -0.14491760434E+02 -0.43810199022E+01  0.15201636433E+02  0.00000000000E+00 0.  1.
</event>
<event>
 7    1  0.1113211E-011  0.5930195E+02  0.7816164E-02  0.1266605E+00
        -11   -1    0    0    0    0  0.00000000000E+00  0.00000000000E+00  0.45593999997E+02  0.45594000000E+02  0.51100000000E-03 0.  1.
         11   -1    0    0    0    0 -0.00000000000E+00 -0.00000000000E+00 -0.45593999997E+02  0.45594000000E+02  0.51100000000E-03 0. -1.
    9900012    2    1    2    0    0  0.11385111430E+02 -0.10213318111E+02 -0.27978343299E+02  0.59301947832E+02  0.50000006938E+02 0.  0.
        -12    1    1    2    0    0 -0.11385111430E+02  0.10213318111E+02  0.27978343299E+02  0.31886052168E+02  0.00000000000E+00 0.  1.
         11    1    3    3    0    0  0.42361975008E+01  0.15998254538E+02 -0.14280250388E+02  0.21858981425E+02  0.51100000000E-03 0. -1.
        -11    1    3    3    0    0 -0.36177554302E+01 -0.21659126358E+02 -0.41463568309E+01  0.22347218713E+02  0.51100000000E-03 0.  1.
         12    1    3    3    0    0  0.10766669359E+02 -0.45524462910E+01 -0.95517360801E+01  0.15095747695E+02  0.00000000000E+00 0. -1.
</event>
<event>
 7    1  0.1113211E-011  0.5930195E+02  0.7816164E-02  0.1266605E+00
        -11   -1    0    0    0    0  0.00000000000E+00  0.00000000000E+00  0.45593999997E+02  0.45594000000E+02  0.51100000000E-03 0.  1.
         11   -1    0    0    0    0 -0.00000000000E+00 -0.00000000000E+00 -0.45593999997E+02  0.45594000000E+02  0.51100000000E-03 0. -1.
    9900012    2    1    2    0    0 -0.21414448183E+02  0.16879764597E+02 -0.16529228700E+02  0.59301945913E+02  0.50000003438E+02 0.  0.
        -12    1    1    2    0    0  0.21414448183E+02 -0.16879764597E+02  0.16529228700E+02  0.31886054087E+02  0.00000000000E+00 0.  1.
         11    1    3    3    0    0 -0.44733393819E+01  0.31069644555E+02 -0.45480078021E+00  0.31393318111E+02  0.51100000000E-03 0. -1.
        -11    1    3    3    0    0 -0.80802780062E+01 -0.60891779976E+01 -0.39952619013E+01  0.10878009895E+02  0.51100000000E-03 0.  1.
         12    1    3    3    0    0 -0.88608307945E+01 -0.81007019602E+01 -0.12079166019E+02  0.17030617908E+02  0.00000000000E+00 0. -1.
</event>
<event>
 7    1  0.1113211E-011  0.5930197E+02  0.7816164E-02  0.1266605E+00
        -11   -1    0    0    0    0  0.00000000000E+00  0.00000000000E+00  0.45593999997E+02  0.45594000000E+02  0.51100000000E-03 0.  1.
         11   -1    0    0    0    0 -0.00000000000E+00 -0.00000000000E+00 -0.45593999997E+02  0.45594000000E+02  0.51100000000E-03 0. -1.
    9900012    2    1    2    0    0 -0.54400487843E+01  0.84624559036E+01 -0.30257427769E+02  0.59301965033E+02  0.50000038309E+02 0.  0.
        -12    1    1    2    0    0  0.54400487843E+01 -0.84624559036E+01  0.30257427769E+02  0.31886034967E+02  0.00000000000E+00 0.  1.
         11    1    3    3    0    0 -0.14725844155E+02 -0.48830279307E+01 -0.33736897985E+02  0.37133175649E+02  0.51100000000E-03 0. -1.
        -11    1    3    3    0    0  0.24259764121E+01  0.13352397363E+02  0.60297507288E+01  0.14850244813E+02  0.51100000000E-03 0.  1.
         12    1    3    3    0    0  0.68598189590E+01 -0.69135289248E-02 -0.25502805134E+01  0.73185445714E+01  0.00000000000E+00 0. -1.
</event>
<event>
 7    1  0.1113211E-011  0.5930179E+02  0.7816164E-02  0.1266605E+00
        -11   -1    0    0    0    0  0.00000000000E+00  0.00000000000E+00  0.45593999997E+02  0.45594000000E+02  0.51100000000E-03 0.  1.
         11   -1    0    0    0    0 -0.00000000000E+00 -0.00000000000E+00 -0.45593999997E+02  0.45594000000E+02  0.51100000000E-03 0. -1.
    9900012    2    1    2    0    0  0.19831307252E+02 -0.93312253098E+01 -0.23159831269E+02  0.59301791422E+02  0.49999721683E+02 0.  0.
        -12    1    1    2    0    0 -0.19831307252E+02  0.93312253098E+01  0.23159831269E+02  0.31886208578E+02  0.00000000000E+00 0.  1.
         11    1    3    3    0    0  0.14690676662E+01 -0.15195556088E+02 -0.23607854794E+02  0.28113944811E+02  0.51100000000E-03 0. -1.
        -11    1    3    3    0    0  0.17686703367E+01  0.12841130816E+02  0.20196109580E+01  0.13118752382E+02  0.51100000000E-03 0.  1.
        -12    1    3    3    0    0  0.16593569249E+02 -0.69768000370E+01 -0.15715874330E+01  0.18069094228E+02  0.00000000000E+00 0.  1.
</event>
<event>
 7    1  0.1113211E-011  0.5930190E+02  0.7816164E-02  0.1266605E+00
        -11   -1    0    0    0    0  0.00000000000E+00  0.00000000000E+00  0.45593999997E+02  0.45594000000E+02  0.51100000000E-03 0.  1.
         11   -1    0    0    0    0 -0.00000000000E+00 -0.00000000000E+00 -0.45593999997E+02  0.45594000000E+02  0.51100000000E-03 0. -1.
    9900012    2    1    2    0    0  0.20938515114E+02  0.14489257497E+02 -0.19192788769E+02  0.59301903678E+02  0.49999926411E+02 0.  0.
        -12    1    1    2    0    0 -0.20938515114E+02 -0.14489257497E+02  0.19192788769E+02  0.31886096322E+02  0.00000000000E+00 0.  1.
         11    1    3    3    0    0  0.34106197199E+02  0.20414019862E+02 -0.14136303902E+02  0.42187675719E+02  0.51100000000E-03 0. -1.
        -11    1    3    3    0    0  0.11729339929E+00 -0.25656779131E+01 -0.20043766169E+00  0.25761670002E+01  0.51100000000E-03 0.  1.
         12    1    3    3    0    0 -0.13284975484E+02 -0.33590844521E+01 -0.48560472047E+01  0.14538060959E+02  0.00000000000E+00 0. -1.
</event>
<event>
 7    1  0.1113211E-011  0.5930192E+02  0.7816164E-02  0.1266605E+00
        -11   -1    0    0    0    0  0.00000000000E+00  0.00000000000E+00  0.45593999997E+02  0.45594000000E+02  0.51100000000E-03 0. -1.
         11   -1    0    0    0    0 -0.00000000000E+00 -0.00000000000E+00 -0.45593999997E+02  0.45594000000E+02  0.51100000000E-03 0.  1.
    9900012    2    1    2    0    0 -0.26222069184E+02 -0.15927957063E+02  0.86847960772E+01  0.59301915082E+02  0.49999947211E+02 0.  0.
        -12    1    1    2    0    0  0.26222069184E+02  0.15927957063E+02 -0.86847960772E+01  0.31886084918E+02  0.00000000000E+00 0.  1.
         11    1    3    3    0    0 -0.18330483889E+01  0.11387377244E+02  0.96177645883E+01  0.15017783552E+02  0.51100000000E-03 0. -1.
        -11    1    3    3    0    0 -0.16662261535E+02 -0.30986049855E+02 -0.34931267114E+01  0.35354889047E+02  0.51100000000E-03 0.  1.
        -12    1    3    3    0    0 -0.77267592602E+01  0.36707155488E+01  0.25601582003E+01  0.89292424827E+01  0.00000000000E+00 0.  1.
</event>
<event>
 7    1  0.1113211E-011  0.5930195E+02  0.7816164E-02  0.1266605E+00
        -11   -1    0    0    0    0  0.00000000000E+00  0.00000000000E+00  0.45593999997E+02  0.45594000000E+02  0.51100000000E-03 0.  1.
         11   -1    0    0    0    0 -0.00000000000E+00 -0.00000000000E+00 -0.45593999997E+02  0.45594000000E+02  0.51100000000E-03 0. -1.
    9900012    2    1    2    0    0  0.26610399380E+02 -0.17370921349E+02 -0.26187411585E+01  0.59301951814E+02  0.50000014200E+02 0.  0.
        -12    1    1    2    0    0 -0.26610399380E+02  0.17370921349E+02  0.26187411585E+01  0.31886048186E+02  0.00000000000E+00 0.  1.
         11    1    3    3    0    0  0.21263396435E+01 -0.25076680953E+01 -0.81484618204E+01  0.87867599179E+01  0.51100000000E-03 0. -1.
        -11    1    3    3    0    0  0.10859449490E+02 -0.34178686844E+01  0.22946828025E+02  0.25615744890E+02  0.51100000000E-03 0.  1.
        -12    1    3    3    0    0  0.13624610246E+02 -0.11445384570E+02 -0.17417107363E+02  0.24899447006E+02  0.00000000000E+00 0.  1.
</event>
<event>
 7    1  0.1113211E-011  0.5930194E+02  0.7816164E-02  0.1266605E+00
        -11   -1    0    0    0    0  0.00000000000E+00  0.00000000000E+00  0.45593999997E+02  0.45594000000E+02  0.51100000000E-03 0.  1.
         11   -1    0    0    0    0 -0.00000000000E+00 -0.00000000000E+00 -0.45593999997E+02  0.45594000000E+02  0.51100000000E-03 0. -1.
    9900012    2    1    2    0    0  0.11903053841E+02  0.17268695430E+02 -0.24017288317E+02  0.59301942378E+02  0.49999996991E+02 0.  0.
        -12    1    1    2    0    0 -0.11903053841E+02 -0.17268695430E+02  0.24017288317E+02  0.31886057622E+02  0.00000000000E+00 0.  1.
         11    1    3    3    0    0  0.73695449736E+00 -0.12018105479E+02  0.60252156962E+01  0.13464070175E+02  0.51100000000E-03 0. -1.
        -11    1    3    3    0    0  0.12637326412E+02  0.17962321999E+02 -0.13645982588E+02  0.25856524737E+02  0.51100000000E-03 0.  1.
         12    1    3    3    0    0 -0.14712270686E+01  0.11324478910E+02 -0.16396521426E+02  0.19981347466E+02  0.00000000000E+00 0. -1.
</event>
<event>
 7    1  0.1113211E-011  0.5930194E+02  0.7816164E-02  0.1266605E+00
        -11   -1    0    0    0    0  0.00000000000E+00  0.00000000000E+00  0.45593999997E+02  0.45594000000E+02  0.51100000000E-03 0.  1.
         11   -1    0    0    0    0 -0.00000000000E+00 -0.00000000000E+00 -0.45593999997E+02  0.45594000000E+02  0.51100000000E-03 0. -1.
    9900012    2    1    2    0    0 -0.39147596066E+01  0.30140074120E+02  0.96421717426E+01  0.59301938991E+02  0.49999990815E+02 0.  0.
        -12    1    1    2    0    0  0.39147596066E+01 -0.30140074120E+02 -0.96421717426E+01  0.31886061009E+02  0.00000000000E+00 0.  1.
         11    1    3    3    0    0  0.14211263002E+01  0.40962373779E+02  0.12751353308E+02  0.42924732696E+02  0.51100000000E-03 0. -1.
        -11    1    3    3    0    0  0.22797678356E+01 -0.69530811868E+01 -0.92128793053E-01  0.73178663113E+01  0.51100000000E-03 0.  1.
         12    1    3    3    0    0 -0.76156537425E+01 -0.38692184724E+01 -0.30170527724E+01  0.90593399839E+01  0.00000000000E+00 0. -1.
</event>
<event>
 7    1  0.1113211E-011  0.5930195E+02  0.7816164E-02  0.1266605E+00
        -11   -1    0    0    0    0  0.00000000000E+00  0.00000000000E+00  0.45593999997E+02  0.45594000000E+02  0.51100000000E-03 0.  1.
         11   -1    0    0    0    0 -0.00000000000E+00 -0.00000000000E+00 -0.45593999997E+02  0.45594000000E+02  0.51100000000E-03 0. -1.
    9900012    2    1    2    0    0 -0.12080481763E+01 -0.31672971556E+02 -0.34761156807E+01  0.59301954654E+02  0.50000019380E+02 0.  0.
        -12    1    1    2    0    0  0.12080481763E+01  0.31672971556E+02  0.34761156807E+01  0.31886045346E+02  0.00000000000E+00 0.  1.
         11    1    3    3    0    0  0.13624667355E+02 -0.78078552949E+01 -0.17485697321E+02  0.23501995147E+02  0.51100000000E-03 0. -1.
        -11    1    3    3    0    0 -0.15999838086E+02 -0.11749474575E+02  0.12682454186E+02  0.23556095093E+02  0.51100000000E-03 0.  1.
        -12    1    3    3    0    0  0.11671225542E+01 -0.12115641686E+02  0.13271274536E+01  0.12243864414E+02  0.00000000000E+00 0.  1.
</event>
<event>
 7    1  0.1113211E-011  0.5930195E+02  0.7816164E-02  0.1266605E+00
        -11   -1    0    0    0    0  0.00000000000E+00  0.00000000000E+00  0.45593999997E+02  0.45594000000E+02  0.51100000000E-03 0.  1.
         11   -1    0    0    0    0 -0.00000000000E+00 -0.00000000000E+00 -0.45593999997E+02  0.45594000000E+02  0.51100000000E-03 0. -1.
    9900012    2    1    2    0    0  0.11524596231E+02  0.12214358031E+02 -0.27105597627E+02  0.59301948456E+02  0.50000008075E+02 0.  0.
        -12    1    1    2    0    0 -0.11524596231E+02 -0.12214358031E+02  0.27105597627E+02  0.31886051544E+02  0.00000000000E+00 0.  1.
         11    1    3    3    0    0  0.18976210195E+02  0.73040311228E+01 -0.71978296717E+01  0.21569751418E+02  0.51100000000E-03 0. -1.
        -11    1    3    3    0    0 -0.80771309670E+01  0.12065834157E+02  0.20184806390E+01  0.14659422326E+02  0.51100000000E-03 0.  1.
        -12    1    3    3    0    0  0.62551700317E+00 -0.71555072487E+01 -0.21926248594E+02  0.23072774712E+02  0.00000000000E+00 0.  1.
</event>
<event>
 7    1  0.1113211E-011  0.5930193E+02  0.7816164E-02  0.1266605E+00
        -11   -1    0    0    0    0  0.00000000000E+00  0.00000000000E+00  0.45593999997E+02  0.45594000000E+02  0.51100000000E-03 0. -1.
         11   -1    0    0    0    0 -0.00000000000E+00 -0.00000000000E+00 -0.45593999997E+02  0.45594000000E+02  0.51100000000E-03 0.  1.
    9900012    2    1    2    0    0 -0.31642920291E+02 -0.11393819214E+01  0.37615393063E+01  0.59301925082E+02  0.49999965448E+02 0.  0.
        -12    1    1    2    0    0  0.31642920291E+02  0.11393819214E+01 -0.37615393063E+01  0.31886074918E+02  0.00000000000E+00 0.  1.
         11    1    3    3    0    0 -0.14360613238E+02  0.19499080066E+02 -0.40025079599E+01  0.24545089248E+02  0.51100000000E-03 0. -1.
        -11    1    3    3    0    0  0.13138857458E+01 -0.68572978324E+01 -0.47498776328E+01  0.84445347476E+01  0.51100000000E-03 0.  1.
         12    1    3    3    0    0 -0.18596192799E+02 -0.13781164155E+02  0.12513924899E+02  0.26312301086E+02  0.00000000000E+00 0. -1.
</event>
<event>
 7    1  0.1113211E-011  0.5930199E+02  0.7816164E-02  0.1266605E+00
        -11   -1    0    0    0    0  0.00000000000E+00  0.00000000000E+00  0.45593999997E+02  0.45594000000E+02  0.51100000000E-03 0.  1.
         11   -1    0    0    0    0 -0.00000000000E+00 -0.00000000000E+00 -0.45593999997E+02  0.45594000000E+02  0.51100000000E-03 0. -1.
    9900012    2    1    2    0    0  0.29568041546E+02  0.50216719838E+01  0.10827349938E+02  0.59301987752E+02  0.50000079743E+02 0.  0.
        -12    1    1    2    0    0 -0.29568041546E+02 -0.50216719838E+01 -0.10827349938E+02  0.31886012248E+02  0.00000000000E+00 0.  1.
         11    1    3    3    0    0  0.22312484324E+02 -0.31594827850E+00  0.18235176414E+02  0.28817849314E+02  0.51100000000E-03 0. -1.
        -11    1    3    3    0    0 -0.10344563271E+02 -0.17758978496E+01 -0.14985053254E+01  0.10602326202E+02  0.51100000000E-03 0.  1.
         12    1    3    3    0    0  0.17600120493E+02  0.71135181119E+01 -0.59093211502E+01  0.19881812235E+02  0.00000000000E+00 0. -1.
</event>
<event>
 7    1  0.1113211E-011  0.5930194E+02  0.7816164E-02  0.1266605E+00
        -11   -1    0    0    0    0  0.00000000000E+00  0.00000000000E+00  0.45593999997E+02  0.45594000000E+02  0.51100000000E-03 0.  1.
         11   -1    0    0    0    0 -0.00000000000E+00 -0.00000000000E+00 -0.45593999997E+02  0.45594000000E+02  0.51100000000E-03 0. -1.
    9900012    2    1    2    0    0  0.10882071265E+02 -0.28102041422E+02 -0.10419997127E+02  0.59301944314E+02  0.50000000522E+02 0.  0.
        -12    1    1    2    0    0 -0.10882071265E+02  0.28102041422E+02  0.10419997127E+02  0.31886055686E+02  0.00000000000E+00 0.  1.
         11    1    3    3    0    0 -0.73132980497E+01  0.44950789216E+01 -0.61976071031E-01  0.85845153719E+01  0.51100000000E-03 0. -1.
        -11    1    3    3    0    0  0.14299441276E+02 -0.11808154951E+02  0.10248348614E+02  0.21188090847E+02  0.51100000000E-03 0.  1.
         12    1    3    3    0    0  0.38959280379E+01 -0.20788965393E+02 -0.20606369670E+02  0.29529338095E+02  0.00000000000E+00 0. -1.
</event>
<event>
 7    1  0.1113211E-011  0.5930195E+02  0.7816164E-02  0.1266605E+00
        -11   -1    0    0    0    0  0.00000000000E+00  0.00000000000E+00  0.45593999997E+02  0.45594000000E+02  0.51100000000E-03 0. -1.
         11   -1    0    0    0    0 -0.00000000000E+00 -0.00000000000E+00 -0.45593999997E+02  0.45594000000E+02  0.51100000000E-03 0.  1.
    9900012    2    1    2    0    0  0.10411973053E+02 -0.64042262583E+01  0.29449910048E+02  0.59301945076E+02  0.50000001911E+02 0.  0.
        -12    1    1    2    0    0 -0.10411973053E+02  0.64042262583E+01 -0.29449910048E+02  0.31886054924E+02  0.00000000000E+00 0.  1.
         11    1    3    3    0    0 -0.20095490249E+01  0.12846088709E+01  0.33566325217E+02  0.33650953866E+02  0.51100000000E-03 0. -1.
        -11    1    3    3    0    0  0.13636038189E+02 -0.10297267763E+02  0.35589931673E+01  0.17453987897E+02  0.51100000000E-03 0.  1.
        -12    1    3    3    0    0 -0.12145161110E+01  0.26084326334E+01 -0.76754083366E+01  0.81970033134E+01  0.00000000000E+00 0.  1.
</event>
<event>
 7    1  0.1113211E-011  0.5930195E+02  0.7816164E-02  0.1266605E+00
        -11   -1    0    0    0    0  0.00000000000E+00  0.00000000000E+00  0.45593999997E+02  0.45594000000E+02  0.51100000000E-03 0.  1.
         11   -1    0    0    0    0 -0.00000000000E+00 -0.00000000000E+00 -0.45593999997E+02  0.45594000000E+02  0.51100000000E-03 0. -1.
    9900012    2    1    2    0    0 -0.14280305557E+02 -0.12805474775E+02 -0.25471806740E+02  0.59301948980E+02  0.50000009032E+02 0.  0.
        -12    1    1    2    0    0  0.14280305557E+02  0.12805474775E+02  0.25471806740E+02  0.31886051020E+02  0.00000000000E+00 0.  1.
         11    1    3    3    0    0 -0.93484591235E+01 -0.22790379806E+02 -0.26643477364E+02  0.36285947500E+02  0.51100000000E-03 0. -1.
        -11    1    3    3    0    0  0.48468357280E+01  0.99884845670E+01 -0.41866409706E+01  0.11865479484E+02  0.51100000000E-03 0.  1.
         12    1    3    3    0    0 -0.97786821620E+01 -0.35795351341E-02  0.53583115937E+01  0.11150521996E+02  0.00000000000E+00 0. -1.
</event>
<event>
 7    1  0.1113211E-011  0.5930196E+02  0.7816164E-02  0.1266605E+00
        -11   -1    0    0    0    0  0.00000000000E+00  0.00000000000E+00  0.45593999997E+02  0.45594000000E+02  0.51100000000E-03 0.  1.
         11   -1    0    0    0    0 -0.00000000000E+00 -0.00000000000E+00 -0.45593999997E+02  0.45594000000E+02  0.51100000000E-03 0. -1.
    9900012    2    1    2    0    0 -0.24464243998E+02 -0.19588469648E+02  0.58747030383E+01  0.59301960526E+02  0.50000030090E+02 0.  0.
        -12    1    1    2    0    0  0.24464243998E+02  0.19588469648E+02 -0.58747030383E+01  0.31886039474E+02  0.00000000000E+00 0.  1.
         11    1    3    3    0    0  0.37014799413E+01 -0.28850010308E+02  0.44842422586E+01  0.29430128736E+02  0.51100000000E-03 0. -1.
        -11    1    3    3    0    0 -0.93338604600E+01  0.22336512506E+01 -0.90838798944E+00  0.96402965720E+01  0.51100000000E-03 0.  1.
         12    1    3    3    0    0 -0.18831863479E+02  0.70278894093E+01  0.22988487691E+01  0.20231535219E+02  0.00000000000E+00 0. -1.
</event>
<event>
 7    1  0.1113211E-011  0.5930194E+02  0.7816164E-02  0.1266605E+00
        -11   -1    0    0    0    0  0.00000000000E+00  0.00000000000E+00  0.45593999997E+02  0.45594000000E+02  0.51100000000E-03 0. -1.
         11   -1    0    0    0    0 -0.00000000000E+00 -0.00000000000E+00 -0.45593999997E+02  0.45594000000E+02  0.51100000000E-03 0.  1.
    9900012    2    1    2    0    0  0.31327141052E+02  0.31628284506E+01  0.50326268812E+01  0.59301943743E+02  0.49999999481E+02 0.  0.
        -12    1    1    2    0    0 -0.31327141052E+02 -0.31628284506E+01 -0.50326268812E+01  0.31886056257E+02  0.00000000000E+00 0.  1.
         11    1    3    3    0    0  0.12800468205E+02  0.14839815709E+02  0.12518602090E+02  0.23254838531E+02  0.51100000000E-03 0. -1.
        -11    1    3    3    0    0  0.23341860385E+02 -0.90930160968E+01 -0.13052089322E+02  0.28246812633E+02  0.51100000000E-03 0.  1.
         12    1    3    3    0    0 -0.48151875381E+01 -0.25839711621E+01  0.55661141139E+01  0.78002925793E+01  0.00000000000E+00 0. -1.
</event>
<event>
 7    1  0.1113211E-011  0.5930209E+02  0.7816164E-02  0.1266604E+00
        -11   -1    0    0    0    0  0.00000000000E+00  0.00000000000E+00  0.45593999997E+02  0.45594000000E+02  0.51100000000E-03 0.  1.
         11   -1    0    0    0    0 -0.00000000000E+00 -0.00000000000E+00 -0.45593999997E+02  0.45594000000E+02  0.51100000000E-03 0. -1.
    9900012    2    1    2    0    0  0.23198849217E+02 -0.21835378719E+02  0.13194697955E+01  0.59302088231E+02  0.50000262991E+02 0.  0.
        -12    1    1    2    0    0 -0.23198849217E+02  0.21835378719E+02 -0.13194697955E+01  0.31885911769E+02  0.00000000000E+00 0.  1.
         11    1    3    3    0    0  0.13436841745E+02 -0.16202407379E+02 -0.20763759872E+02  0.29566880884E+02  0.51100000000E-03 0. -1.
        -11    1    3    3    0    0  0.12569387414E+02 -0.26634001865E+01  0.81505885512E+01  0.15215626655E+02  0.51100000000E-03 0.  1.
         12    1    3    3    0    0 -0.28073799419E+01 -0.29695711542E+01  0.13932641116E+02  0.14519580691E+02  0.00000000000E+00 0. -1.
</event>
<event>
 7    1  0.1113211E-011  0.5930194E+02  0.7816164E-02  0.1266605E+00
        -11   -1    0    0    0    0  0.00000000000E+00  0.00000000000E+00  0.45593999997E+02  0.45594000000E+02  0.51100000000E-03 0. -1.
         11   -1    0    0    0    0 -0.00000000000E+00 -0.00000000000E+00 -0.45593999997E+02  0.45594000000E+02  0.51100000000E-03 0.  1.
    9900012    2    1    2    0    0 -0.27068210029E+02  0.66842197489E+01  0.15471076087E+02  0.59301937478E+02  0.49999988056E+02 0.  0.
        -12    1    1    2    0    0  0.27068210029E+02 -0.66842197489E+01 -0.15471076087E+02  0.31886062522E+02  0.00000000000E+00 0.  1.
         11    1    3    3    0    0 -0.15785237233E+02 -0.60151745430E+01  0.92681654090E+00  0.16917890780E+02  0.51100000000E-03 0. -1.
        -11    1    3    3    0    0 -0.16406232851E+02  0.22977320188E+02  0.90108742079E+01  0.29636423091E+02  0.51100000000E-03 0.  1.
        -12    1    3    3    0    0  0.51232600547E+01 -0.10277925897E+02  0.55333853379E+01  0.12747623607E+02  0.00000000000E+00 0.  1.
</event>
<event>
 7    1  0.1113211E-011  0.5930194E+02  0.7816164E-02  0.1266605E+00
        -11   -1    0    0    0    0  0.00000000000E+00  0.00000000000E+00  0.45593999997E+02  0.45594000000E+02  0.51100000000E-03 0.  1.
         11   -1    0    0    0    0 -0.00000000000E+00 -0.00000000000E+00 -0.45593999997E+02  0.45594000000E+02  0.51100000000E-03 0. -1.
    9900012    2    1    2    0    0 -0.22917737102E+02  0.11866346665E+02 -0.18726661493E+02  0.59301941797E+02  0.49999995932E+02 0.  0.
        -12    1    1    2    0    0  0.22917737102E+02 -0.11866346665E+02  0.18726661493E+02  0.31886058203E+02  0.00000000000E+00 0.  1.
         11    1    3    3    0    0 -0.24056898680E+02 -0.67107140611E+01 -0.27421874738E+02  0.37090797669E+02  0.51100000000E-03 0. -1.
        -11    1    3    3    0    0 -0.35557078102E+01  0.62056975147E+01  0.22876940045E+01  0.75091466756E+01  0.51100000000E-03 0.  1.
         12    1    3    3    0    0  0.46948693880E+01  0.12371363211E+02  0.64075192409E+01  0.14701997453E+02  0.00000000000E+00 0. -1.
</event>
<event>
 7    1  0.1113211E-011  0.5930196E+02  0.7816164E-02  0.1266605E+00
        -11   -1    0    0    0    0  0.00000000000E+00  0.00000000000E+00  0.45593999997E+02  0.45594000000E+02  0.51100000000E-03 0.  1.
         11   -1    0    0    0    0 -0.00000000000E+00 -0.00000000000E+00 -0.45593999997E+02  0.45594000000E+02  0.51100000000E-03 0. -1.
    9900012    2    1    2    0    0  0.18534268925E+02  0.11607152204E+02 -0.23205057177E+02  0.59301956259E+02  0.50000022307E+02 0.  0.
        -12    1    1    2    0    0 -0.18534268925E+02 -0.11607152204E+02  0.23205057177E+02  0.31886043741E+02  0.00000000000E+00 0.  1.
         11    1    3    3    0    0  0.17309297464E+02  0.76519666785E+01 -0.76759325077E+01  0.20422642162E+02  0.51100000000E-03 0. -1.
        -11    1    3    3    0    0 -0.13987319345E+02  0.11892651182E+02 -0.96510195661E+01  0.20741804008E+02  0.51100000000E-03 0.  1.
        -12    1    3    3    0    0  0.15212290806E+02 -0.79374656569E+01 -0.58781051034E+01  0.18137510089E+02  0.00000000000E+00 0.  1.
</event>
<event>
 7    1  0.1113211E-011  0.5930192E+02  0.7816164E-02  0.1266605E+00
        -11   -1    0    0    0    0  0.00000000000E+00  0.00000000000E+00  0.45593999997E+02  0.45594000000E+02  0.51100000000E-03 0.  1.
         11   -1    0    0    0    0 -0.00000000000E+00 -0.00000000000E+00 -0.45593999997E+02  0.45594000000E+02  0.51100000000E-03 0. -1.
    9900012    2    1    2    0    0  0.27746439517E+02  0.12954049991E+02 -0.88909982952E+01  0.59301918903E+02  0.49999954179E+02 0.  0.
        -12    1    1    2    0    0 -0.27746439517E+02 -0.12954049991E+02  0.88909982952E+01  0.31886081097E+02  0.00000000000E+00 0.  1.
         11    1    3    3    0    0  0.37040947817E+01  0.52036366778E+01 -0.21243789047E+02  0.22183253282E+02  0.51100000000E-03 0. -1.
        -11    1    3    3    0    0  0.13305391814E+02 -0.79684875234E+01  0.85393440801E+01  0.17704537337E+02  0.51100000000E-03 0.  1.
         12    1    3    3    0    0  0.10736952920E+02  0.15718900837E+02  0.38134466718E+01  0.19414128284E+02  0.00000000000E+00 0. -1.
</event>
<event>
 7    1  0.1113211E-011  0.5930194E+02  0.7816164E-02  0.1266605E+00
        -11   -1    0    0    0    0  0.00000000000E+00  0.00000000000E+00  0.45593999997E+02  0.45594000000E+02  0.51100000000E-03 0.  1.
         11   -1    0    0    0    0 -0.00000000000E+00 -0.00000000000E+00 -0.45593999997E+02  0.45594000000E+02  0.51100000000E-03 0. -1.
    9900012    2    1    2    0    0  0.17512543919E+02 -0.15831610727E+02 -0.21433421730E+02  0.59301942549E+02  0.49999997302E+02 0.  0.
        -12    1    1    2    0    0 -0.17512543919E+02  0.15831610727E+02  0.21433421730E+02  0.31886057451E+02  0.00000000000E+00 0.  1.
         11    1    3    3    0    0  0.68661249531E+01  0.13711421238E+02 -0.15642607479E+02  0.21905202881E+02  0.51100000000E-03 0. -1.
        -11    1    3    3    0    0  0.13102565522E+02 -0.14094002087E+02  0.29637959389E+01  0.19470547109E+02  0.51100000000E-03 0.  1.
         12    1    3    3    0    0 -0.24561465555E+01 -0.15449029878E+02 -0.87546101895E+01  0.17926192559E+02  0.00000000000E+00 0. -1.
</event>
<event>
 7    1  0.1113211E-011  0.5930189E+02  0.7816164E-02  0.1266605E+00
        -11   -1    0    0    0    0  0.00000000000E+00  0.00000000000E+00  0.45593999997E+02  0.45594000000E+02  0.51100000000E-03 0. -1.
         11   -1    0    0    0    0 -0.00000000000E+00 -0.00000000000E+00 -0.45593999997E+02  0.45594000000E+02  0.51100000000E-03 0.  1.
    9900012    2    1    2    0    0 -0.21293508185E+02 -0.14078473521E+02  0.19107769241E+02  0.59301894047E+02  0.49999908846E+02 0.  0.
        -12    1    1    2    0    0  0.21293508185E+02  0.14078473521E+02 -0.19107769241E+02  0.31886105953E+02  0.00000000000E+00 0.  1.
         11    1    3    3    0    0 -0.15733182451E+01  0.54983427214E+00 -0.10928857394E+00  0.16702072568E+01  0.51100000000E-03 0. -1.
        -11    1    3    3    0    0 -0.16853396034E+02 -0.10607759590E+02  0.35452168267E+02  0.40662239935E+02  0.51100000000E-03 0.  1.
        -12    1    3    3    0    0 -0.28667939059E+01 -0.40205482031E+01 -0.16235110453E+02  0.16969446855E+02  0.00000000000E+00 0.  1.
</event>
<event>
 7    1  0.1113211E-011  0.5930194E+02  0.7816164E-02  0.1266605E+00
        -11   -1    0    0    0    0  0.00000000000E+00  0.00000000000E+00  0.45593999997E+02  0.45594000000E+02  0.51100000000E-03 0.  1.
         11   -1    0    0    0    0 -0.00000000000E+00 -0.00000000000E+00 -0.45593999997E+02  0.45594000000E+02  0.51100000000E-03 0. -1.
    9900012    2    1    2    0    0 -0.56533376942E+01 -0.14895865263E+02 -0.27620169647E+02  0.59301940345E+02  0.49999993283E+02 0.  0.
        -12    1    1    2    0    0  0.56533376942E+01  0.14895865263E+02  0.27620169647E+02  0.31886059655E+02  0.00000000000E+00 0.  1.
         11    1    3    3    0    0 -0.46358313330E+01 -0.94156589752E+01 -0.14849789860E+02  0.18184109140E+02  0.51100000000E-03 0.  1.
        -11    1    3    3    0    0 -0.15411975889E+01  0.12926050250E+02 -0.17778883705E+02  0.22035125847E+02  0.51100000000E-03 0. -1.
        -12    1    3    3    0    0  0.52369122766E+00 -0.18406256538E+02  0.50085039175E+01  0.19082705357E+02  0.00000000000E+00 0.  1.
</event>
<event>
 7    1  0.1113211E-011  0.5930195E+02  0.7816164E-02  0.1266605E+00
        -11   -1    0    0    0    0  0.00000000000E+00  0.00000000000E+00  0.45593999997E+02  0.45594000000E+02  0.51100000000E-03 0. -1.
         11   -1    0    0    0    0 -0.00000000000E+00 -0.00000000000E+00 -0.45593999997E+02  0.45594000000E+02  0.51100000000E-03 0.  1.
    9900012    2    1    2    0    0  0.35026052873E+01 -0.22834317181E+02  0.21978306636E+02  0.59301949014E+02  0.50000009093E+02 0.  0.
        -12    1    1    2    0    0 -0.35026052873E+01  0.22834317181E+02 -0.21978306636E+02  0.31886050986E+02  0.00000000000E+00 0.  1.
         11    1    3    3    0    0  0.34137592144E+01 -0.45082194017E+01  0.18891895515E+02  0.19720078868E+02  0.51100000000E-03 0. -1.
        -11    1    3    3    0    0 -0.12907911810E+02  0.34845132768E+01 -0.24584205862E+01  0.13594110935E+02  0.51100000000E-03 0.  1.
        -12    1    3    3    0    0  0.12996757883E+02 -0.21810611056E+02  0.55448317074E+01  0.25987759210E+02  0.00000000000E+00 0.  1.
</event>
<event>
 7    1  0.1113211E-011  0.5930191E+02  0.7816164E-02  0.1266605E+00
        -11   -1    0    0    0    0  0.00000000000E+00  0.00000000000E+00  0.45593999997E+02  0.45594000000E+02  0.51100000000E-03 0. -1.
         11   -1    0    0    0    0 -0.00000000000E+00 -0.00000000000E+00 -0.45593999997E+02  0.45594000000E+02  0.51100000000E-03 0.  1.
    9900012    2    1    2    0    0 -0.35923825346E+01  0.42709835748E+01  0.31393893077E+02  0.59301905295E+02  0.49999929362E+02 0.  0.
        -12    1    1    2    0    0  0.35923825346E+01 -0.42709835748E+01 -0.31393893077E+02  0.31886094705E+02  0.00000000000E+00 0.  1.
         11    1    3    3    0    0 -0.66142547129E+01  0.88431212038E+01  0.21144449154E+02  0.23854494091E+02  0.51100000000E-03 0. -1.
        -11    1    3    3    0    0 -0.60398864226E+01 -0.55492287901E+01 -0.10182329739E+02  0.13074938139E+02  0.51100000000E-03 0.  1.
        -12    1    3    3    0    0  0.90617586009E+01  0.97709116112E+00  0.20431773662E+02  0.22372473065E+02  0.00000000000E+00 0.  1.
</event>
<event>
 7    1  0.1113211E-011  0.5930194E+02  0.7816164E-02  0.1266605E+00
        -11   -1    0    0    0    0  0.00000000000E+00  0.00000000000E+00  0.45593999997E+02  0.45594000000E+02  0.51100000000E-03 0. -1.
         11   -1    0    0    0    0 -0.00000000000E+00 -0.00000000000E+00 -0.45593999997E+02  0.45594000000E+02  0.51100000000E-03 0.  1.
    9900012    2    1    2    0    0  0.30380408115E+02  0.71869724808E+01 -0.64883671224E+01  0.59301942254E+02  0.49999996765E+02 0.  0.
        -12    1    1    2    0    0 -0.30380408115E+02 -0.71869724808E+01  0.64883671224E+01  0.31886057746E+02  0.00000000000E+00 0.  1.
         11    1    3    3    0    0  0.39666634024E+02  0.16372075607E+02 -0.10194158222E+01  0.42924654027E+02  0.51100000000E-03 0. -1.
        -11    1    3    3    0    0 -0.36149787424E+01 -0.66845641790E+01 -0.66137814247E+01  0.10074401946E+02  0.51100000000E-03 0.  1.
         12    1    3    3    0    0 -0.56712471667E+01 -0.25005389477E+01  0.11448301244E+01  0.63028862808E+01  0.00000000000E+00 0. -1.
</event>
<event>
 7    1  0.1113211E-011  0.5930192E+02  0.7816164E-02  0.1266605E+00
        -11   -1    0    0    0    0  0.00000000000E+00  0.00000000000E+00  0.45593999997E+02  0.45594000000E+02  0.51100000000E-03 0. -1.
         11   -1    0    0    0    0 -0.00000000000E+00 -0.00000000000E+00 -0.45593999997E+02  0.45594000000E+02  0.51100000000E-03 0.  1.
    9900012    2    1    2    0    0 -0.19101884184E+02  0.89509614634E+01  0.23910670074E+02  0.59301924138E+02  0.49999963726E+02 0.  0.
        -12    1    1    2    0    0  0.19101884184E+02 -0.89509614634E+01 -0.23910670074E+02  0.31886075862E+02  0.00000000000E+00 0.  1.
         11    1    3    3    0    0  0.42039658469E-01  0.11311494406E+02  0.14800433936E+02  0.18628057279E+02  0.51100000000E-03 0. -1.
        -11    1    3    3    0    0 -0.23351537328E+02 -0.92430362397E+00  0.18812799730E+02  0.30001167756E+02  0.51100000000E-03 0.  1.
        -12    1    3    3    0    0  0.42076134853E+01 -0.14362293188E+01 -0.97025635918E+01  0.10672699103E+02  0.00000000000E+00 0.  1.
</event>
<event>
 7    1  0.1113211E-011  0.5930196E+02  0.7816164E-02  0.1266605E+00
        -11   -1    0    0    0    0  0.00000000000E+00  0.00000000000E+00  0.45593999997E+02  0.45594000000E+02  0.51100000000E-03 0.  1.
         11   -1    0    0    0    0 -0.00000000000E+00 -0.00000000000E+00 -0.45593999997E+02  0.45594000000E+02  0.51100000000E-03 0. -1.
    9900012    2    1    2    0    0  0.95705831009E+01 -0.24473526803E+02 -0.18060176583E+02  0.59301959900E+02  0.50000028947E+02 0.  0.
        -12    1    1    2    0    0 -0.95705831009E+01  0.24473526803E+02  0.18060176583E+02  0.31886040100E+02  0.00000000000E+00 0.  1.
         11    1    3    3    0    0  0.50342257528E+01 -0.13584853798E+01 -0.18727653883E+02  0.19440008530E+02  0.51100000000E-03 0. -1.
        -11    1    3    3    0    0 -0.77423734364E+01 -0.25312447324E+02  0.44186158942E+01  0.26836328040E+02  0.51100000000E-03 0.  1.
        -12    1    3    3    0    0  0.12278730784E+02  0.21974059017E+01 -0.37511385945E+01  0.13025623330E+02  0.00000000000E+00 0.  1.
</event>
<event>
 7    1  0.1113211E-011  0.5930192E+02  0.7816164E-02  0.1266605E+00
        -11   -1    0    0    0    0  0.00000000000E+00  0.00000000000E+00  0.45593999997E+02  0.45594000000E+02  0.51100000000E-03 0. -1.
         11   -1    0    0    0    0 -0.00000000000E+00 -0.00000000000E+00 -0.45593999997E+02  0.45594000000E+02  0.51100000000E-03 0.  1.
    9900012    2    1    2    0    0  0.22580655452E+02 -0.48903393108E+01  0.21975461475E+02  0.59301916417E+02  0.49999949645E+02 0.  0.
        -12    1    1    2    0    0 -0.22580655452E+02  0.48903393108E+01 -0.21975461475E+02  0.31886083583E+02  0.00000000000E+00 0.  1.
         11    1    3    3    0    0  0.21793590860E+02 -0.54516930188E+01  0.26869284430E+02  0.35023420812E+02  0.51100000000E-03 0. -1.
        -11    1    3    3    0    0  0.93287572420E+01 -0.54568889039E+01 -0.79215184581E+01  0.13399768772E+02  0.51100000000E-03 0.  1.
         12    1    3    3    0    0 -0.85416926498E+01  0.60182426120E+01  0.30276955029E+01  0.10878726834E+02  0.00000000000E+00 0. -1.
</event>
<event>
 7    1  0.1113211E-011  0.5930193E+02  0.7816164E-02  0.1266605E+00
        -11   -1    0    0    0    0  0.00000000000E+00  0.00000000000E+00  0.45593999997E+02  0.45594000000E+02  0.51100000000E-03 0.  1.
         11   -1    0    0    0    0 -0.00000000000E+00 -0.00000000000E+00 -0.45593999997E+02  0.45594000000E+02  0.51100000000E-03 0. -1.
    9900012    2    1    2    0    0  0.58977370801E+01  0.10319321020E+02 -0.29587998109E+02  0.59301932179E+02  0.49999978391E+02 0.  0.
        -12    1    1    2    0    0 -0.58977370801E+01 -0.10319321020E+02  0.29587998109E+02  0.31886067821E+02  0.00000000000E+00 0.  1.
         11    1    3    3    0    0 -0.11066352641E+02 -0.10755708177E+02 -0.12300356393E+01  0.15481033787E+02  0.51100000000E-03 0.  1.
        -11    1    3    3    0    0  0.16307416318E+02  0.11069160787E+02 -0.82794316978E+01  0.21377725253E+02  0.51100000000E-03 0. -1.
         12    1    3    3    0    0  0.65667340378E+00  0.10005868409E+02 -0.20078530772E+02  0.22443173139E+02  0.00000000000E+00 0. -1.
</event>
<event>
 7    1  0.1113211E-011  0.5930193E+02  0.7816164E-02  0.1266605E+00
        -11   -1    0    0    0    0  0.00000000000E+00  0.00000000000E+00  0.45593999997E+02  0.45594000000E+02  0.51100000000E-03 0.  1.
         11   -1    0    0    0    0 -0.00000000000E+00 -0.00000000000E+00 -0.45593999997E+02  0.45594000000E+02  0.51100000000E-03 0. -1.
    9900012    2    1    2    0    0 -0.45251121571E+01  0.12178907191E+00 -0.31563110724E+02  0.59301930453E+02  0.49999975243E+02 0.  0.
        -12    1    1    2    0    0  0.45251121571E+01 -0.12178907191E+00  0.31563110724E+02  0.31886069547E+02  0.00000000000E+00 0.  1.
         11    1    3    3    0    0 -0.12792659562E+02 -0.72377804513E+01 -0.20890468389E+02  0.25543086625E+02  0.51100000000E-03 0. -1.
        -11    1    3    3    0    0  0.51678377309E+01  0.27620409436E+01  0.10417271539E+02  0.11952194927E+02  0.51100000000E-03 0.  1.
        -12    1    3    3    0    0  0.30997096740E+01  0.45975285795E+01 -0.21089913874E+02  0.21806648901E+02  0.00000000000E+00 0.  1.
</event>
<event>
 7    1  0.1113211E-011  0.5930178E+02  0.7816164E-02  0.1266605E+00
        -11   -1    0    0    0    0  0.00000000000E+00  0.00000000000E+00  0.45593999997E+02  0.45594000000E+02  0.51100000000E-03 0. -1.
         11   -1    0    0    0    0 -0.00000000000E+00 -0.00000000000E+00 -0.45593999997E+02  0.45594000000E+02  0.51100000000E-03 0.  1.
    9900012    2    1    2    0    0  0.28118046379E+02 -0.23900267117E+00  0.15034933141E+02  0.59301782460E+02  0.49999705338E+02 0.  0.
        -12    1    1    2    0    0 -0.28118046379E+02  0.23900267117E+00 -0.15034933141E+02  0.31886217540E+02  0.00000000000E+00 0.  1.
         11    1    3    3    0    0  0.11514910129E+02 -0.11469180688E+02  0.27881941274E+02  0.32272866473E+02  0.51100000000E-03 0. -1.
        -11    1    3    3    0    0  0.14568480220E+02  0.11538283455E+02 -0.15123456644E+02  0.23960207472E+02  0.51100000000E-03 0.  1.
         12    1    3    3    0    0  0.20346560306E+01 -0.30810543864E+00  0.22764485109E+01  0.30687085145E+01  0.00000000000E+00 0. -1.
</event>
<event>
 7    1  0.1113211E-011  0.5930195E+02  0.7816164E-02  0.1266605E+00
        -11   -1    0    0    0    0  0.00000000000E+00  0.00000000000E+00  0.45593999997E+02  0.45594000000E+02  0.51100000000E-03 0.  1.
         11   -1    0    0    0    0 -0.00000000000E+00 -0.00000000000E+00 -0.45593999997E+02  0.45594000000E+02  0.51100000000E-03 0. -1.
    9900012    2    1    2    0    0 -0.24660426368E+02  0.17628991809E+02 -0.98895064111E+01  0.59301947910E+02  0.50000007080E+02 0.  0.
        -12    1    1    2    0    0  0.24660426368E+02 -0.17628991809E+02  0.98895064111E+01  0.31886052090E+02  0.00000000000E+00 0.  1.
         11    1    3    3    0    0  0.43032153909E+01  0.93561462327E+01  0.90553188362E+01  0.13713275849E+02  0.51100000000E-03 0.  1.
        -11    1    3    3    0    0 -0.32886414576E+02  0.12428947594E+02 -0.18809190608E+02  0.39872053540E+02  0.51100000000E-03 0. -1.
         12    1    3    3    0    0  0.39227728169E+01 -0.41561020172E+01 -0.13563463969E+00  0.57166185203E+01  0.00000000000E+00 0. -1.
</event>
<event>
 7    1  0.1113211E-011  0.5930196E+02  0.7816164E-02  0.1266605E+00
        -11   -1    0    0    0    0  0.00000000000E+00  0.00000000000E+00  0.45593999997E+02  0.45594000000E+02  0.51100000000E-03 0. -1.
         11   -1    0    0    0    0 -0.00000000000E+00 -0.00000000000E+00 -0.45593999997E+02  0.45594000000E+02  0.51100000000E-03 0.  1.
    9900012    2    1    2    0    0 -0.10317670202E+02  0.15204940562E+02  0.26059072035E+02  0.59301956482E+02  0.50000022714E+02 0.  0.
        -12    1    1    2    0    0  0.10317670202E+02 -0.15204940562E+02 -0.26059072035E+02  0.31886043518E+02  0.00000000000E+00 0.  1.
         11    1    3    3    0    0 -0.11074855677E+02  0.37282073354E+01 -0.85718732973E+01  0.14492376281E+02  0.51100000000E-03 0.  1.
        -11    1    3    3    0    0  0.13201474076E+02  0.48873637534E+01  0.14190531982E+02  0.19988407651E+02  0.51100000000E-03 0. -1.
         12    1    3    3    0    0 -0.12444288601E+02  0.65893694728E+01  0.20440413350E+02  0.24821172550E+02  0.00000000000E+00 0. -1.
</event>
<event>
 7    1  0.1113211E-011  0.5930194E+02  0.7816164E-02  0.1266605E+00
        -11   -1    0    0    0    0  0.00000000000E+00  0.00000000000E+00  0.45593999997E+02  0.45594000000E+02  0.51100000000E-03 0. -1.
         11   -1    0    0    0    0 -0.00000000000E+00 -0.00000000000E+00 -0.45593999997E+02  0.45594000000E+02  0.51100000000E-03 0.  1.
    9900012    2    1    2    0    0 -0.26530738263E+02 -0.56674630013E+01  0.16754711492E+02  0.59301944006E+02  0.49999999961E+02 0.  0.
        -12    1    1    2    0    0  0.26530738263E+02  0.56674630013E+01 -0.16754711492E+02  0.31886055994E+02  0.00000000000E+00 0.  1.
         11    1    3    3    0    0 -0.29107572880E+02 -0.10914047707E+02  0.23048894475E+02  0.38699079745E+02  0.51100000000E-03 0. -1.
        -11    1    3    3    0    0 -0.55333000693E+01  0.90189825157E+01 -0.44026126436E+01  0.11460473534E+02  0.51100000000E-03 0.  1.
         12    1    3    3    0    0  0.81101346862E+01 -0.37723978101E+01 -0.18915703396E+01  0.91423907276E+01  0.00000000000E+00 0. -1.
</event>
<event>
 7    1  0.1113211E-011  0.5930196E+02  0.7816164E-02  0.1266605E+00
        -11   -1    0    0    0    0  0.00000000000E+00  0.00000000000E+00  0.45593999997E+02  0.45594000000E+02  0.51100000000E-03 0. -1.
         11   -1    0    0    0    0 -0.00000000000E+00 -0.00000000000E+00 -0.45593999997E+02  0.45594000000E+02  0.51100000000E-03 0.  1.
    9900012    2    1    2    0    0 -0.31211694920E+01  0.22771097176E+02 -0.22101016740E+02  0.59301960632E+02  0.50000030283E+02 0.  0.
        -12    1    1    2    0    0  0.31211694920E+01 -0.22771097176E+02  0.22101016740E+02  0.31886039368E+02  0.00000000000E+00 0.  1.
         11    1    3    3    0    0 -0.10077084261E+02  0.14281143194E+01 -0.27031651200E+02  0.28884205106E+02  0.51100000000E-03 0.  1.
        -11    1    3    3    0    0 -0.67712536112E+01  0.10549950913E+02  0.25714137720E+01  0.12797011713E+02  0.51100000000E-03 0. -1.
         12    1    3    3    0    0  0.13727168380E+02  0.10793031944E+02  0.23592206884E+01  0.17620743814E+02  0.00000000000E+00 0. -1.
</event>
<event>
 7    1  0.1113211E-011  0.5930194E+02  0.7816164E-02  0.1266605E+00
        -11   -1    0    0    0    0  0.00000000000E+00  0.00000000000E+00  0.45593999997E+02  0.45594000000E+02  0.51100000000E-03 0.  1.
         11   -1    0    0    0    0 -0.00000000000E+00 -0.00000000000E+00 -0.45593999997E+02  0.45594000000E+02  0.51100000000E-03 0. -1.
    9900012    2    1    2    0    0  0.24243806246E+02  0.16267965235E+02 -0.12818423477E+02  0.59301940120E+02  0.49999992874E+02 0.  0.
        -12    1    1    2    0    0 -0.24243806246E+02 -0.16267965235E+02  0.12818423477E+02  0.31886059880E+02  0.00000000000E+00 0.  1.
         11    1    3    3    0    0  0.17647463860E+02  0.76579068819E+01 -0.23432152823E+02  0.30317359791E+02  0.51100000000E-03 0. -1.
        -11    1    3    3    0    0  0.71200031110E+01  0.14028610376E+02  0.15193205896E+02  0.21870753509E+02  0.51100000000E-03 0.  1.
         12    1    3    3    0    0 -0.52366072484E+00 -0.54185520223E+01 -0.45794765495E+01  0.71138268211E+01  0.00000000000E+00 0. -1.
</event>
<event>
 7    1  0.1113211E-011  0.5930194E+02  0.7816164E-02  0.1266605E+00
        -11   -1    0    0    0    0  0.00000000000E+00  0.00000000000E+00  0.45593999997E+02  0.45594000000E+02  0.51100000000E-03 0. -1.
         11   -1    0    0    0    0 -0.00000000000E+00 -0.00000000000E+00 -0.45593999997E+02  0.45594000000E+02  0.51100000000E-03 0.  1.
    9900012    2    1    2    0    0 -0.45208215373E+01  0.31530963450E+02 -0.14425770728E+01  0.59301944865E+02  0.50000001526E+02 0.  0.
        -12    1    1    2    0    0  0.45208215373E+01 -0.31530963450E+02  0.14425770728E+01  0.31886055135E+02  0.00000000000E+00 0.  1.
         11    1    3    3    0    0 -0.35137407126E+01  0.23945081359E+02  0.14081391794E+02  0.27999980182E+02  0.51100000000E-03 0. -1.
        -11    1    3    3    0    0 -0.74903183550E+01 -0.75631344445E+01 -0.71037474855E+01  0.12797230180E+02  0.51100000000E-03 0.  1.
         12    1    3    3    0    0  0.64832375303E+01  0.15149016536E+02 -0.84202213815E+01  0.18504734502E+02  0.00000000000E+00 0. -1.
</event>
<event>
 7    1  0.1113211E-011  0.5930197E+02  0.7816164E-02  0.1266605E+00
        -11   -1    0    0    0    0  0.00000000000E+00  0.00000000000E+00  0.45593999997E+02  0.45594000000E+02  0.51100000000E-03 0. -1.
         11   -1    0    0    0    0 -0.00000000000E+00 -0.00000000000E+00 -0.45593999997E+02  0.45594000000E+02  0.51100000000E-03 0.  1.
    9900012    2    1    2    0    0  0.16892781764E+02  0.17270369972E+02  0.20810747312E+02  0.59301969228E+02  0.50000045959E+02 0.  0.
        -12    1    1    2    0    0 -0.16892781764E+02 -0.17270369972E+02 -0.20810747312E+02  0.31886030772E+02  0.00000000000E+00 0.  1.
         11    1    3    3    0    0  0.23352910203E+02  0.11330774303E+02  0.21738824024E+02  0.33857367462E+02  0.51100000000E-03 0. -1.
        -11    1    3    3    0    0 -0.72908131893E+01 -0.55900655349E+01 -0.77523518883E+01  0.12020971246E+02  0.51100000000E-03 0.  1.
        -12    1    3    3    0    0  0.83068475092E+00  0.11529661204E+02  0.68242751762E+01  0.13423630519E+02  0.00000000000E+00 0.  1.
</event>
<event>
 7    1  0.1113211E-011  0.5930194E+02  0.7816164E-02  0.1266605E+00
        -11   -1    0    0    0    0  0.00000000000E+00  0.00000000000E+00  0.45593999997E+02  0.45594000000E+02  0.51100000000E-03 0. -1.
         11   -1    0    0    0    0 -0.00000000000E+00 -0.00000000000E+00 -0.45593999997E+02  0.45594000000E+02  0.51100000000E-03 0.  1.
    9900012    2    1    2    0    0  0.73446692565E+01  0.15936321577E+02  0.26623489150E+02  0.59301942132E+02  0.49999996542E+02 0.  0.
        -12    1    1    2    0    0 -0.73446692565E+01 -0.15936321577E+02 -0.26623489150E+02  0.31886057868E+02  0.00000000000E+00 0.  1.
         11    1    3    3    0    0  0.21560203753E+02  0.11436143504E+02  0.70579378102E+01  0.25405555505E+02  0.51100000000E-03 0. -1.
        -11    1    3    3    0    0 -0.14160091404E+02  0.12805667552E+02  0.11333262334E+02  0.22202165331E+02  0.51100000000E-03 0.  1.
         12    1    3    3    0    0 -0.55443093061E-01 -0.83054894789E+01  0.82322890061E+01  0.11694221295E+02  0.00000000000E+00 0. -1.
</event>
<event>
 7    1  0.1113211E-011  0.5930197E+02  0.7816164E-02  0.1266605E+00
        -11   -1    0    0    0    0  0.00000000000E+00  0.00000000000E+00  0.45593999997E+02  0.45594000000E+02  0.51100000000E-03 0.  1.
         11   -1    0    0    0    0 -0.00000000000E+00 -0.00000000000E+00 -0.45593999997E+02  0.45594000000E+02  0.51100000000E-03 0. -1.
    9900012    2    1    2    0    0 -0.32087626291E+01 -0.22748063942E+01 -0.31642502510E+02  0.59301970663E+02  0.50000048577E+02 0.  0.
        -12    1    1    2    0    0  0.32087626291E+01  0.22748063942E+01  0.31642502510E+02  0.31886029337E+02  0.00000000000E+00 0.  1.
         11    1    3    3    0    0  0.65361501584E+00  0.12051120502E+02 -0.85619616584E+01  0.14797429022E+02  0.51100000000E-03 0. -1.
        -11    1    3    3    0    0  0.51395468164E+01 -0.22888369677E+02 -0.76075085877E+01  0.24661033942E+02  0.51100000000E-03 0.  1.
        -12    1    3    3    0    0 -0.90019244614E+01  0.85624427802E+01 -0.15473032264E+02  0.19843507699E+02  0.00000000000E+00 0.  1.
</event>
<event>
 7    1  0.1113211E-011  0.5930195E+02  0.7816164E-02  0.1266605E+00
        -11   -1    0    0    0    0  0.00000000000E+00  0.00000000000E+00  0.45593999997E+02  0.45594000000E+02  0.51100000000E-03 0.  1.
         11   -1    0    0    0    0 -0.00000000000E+00 -0.00000000000E+00 -0.45593999997E+02  0.45594000000E+02  0.51100000000E-03 0. -1.
    9900012    2    1    2    0    0 -0.10003403973E+02 -0.23790140810E+02 -0.18726484542E+02  0.59301951105E+02  0.50000012907E+02 0.  0.
        -12    1    1    2    0    0  0.10003403973E+02  0.23790140810E+02  0.18726484542E+02  0.31886048895E+02  0.00000000000E+00 0.  1.
         11    1    3    3    0    0 -0.56434526633E+01 -0.22581436410E+02  0.10572494894E+02  0.25564574646E+02  0.51100000000E-03 0.  1.
        -11    1    3    3    0    0 -0.84078980540E+01 -0.60630818483E+01 -0.19314990060E+02  0.21920824630E+02  0.51100000000E-03 0. -1.
        -12    1    3    3    0    0  0.40479467448E+01  0.48543774481E+01 -0.99839893764E+01  0.11816551829E+02  0.00000000000E+00 0.  1.
</event>
<event>
 7    1  0.1113211E-011  0.5930196E+02  0.7816164E-02  0.1266605E+00
        -11   -1    0    0    0    0  0.00000000000E+00  0.00000000000E+00  0.45593999997E+02  0.45594000000E+02  0.51100000000E-03 0. -1.
         11   -1    0    0    0    0 -0.00000000000E+00 -0.00000000000E+00 -0.45593999997E+02  0.45594000000E+02  0.51100000000E-03 0.  1.
    9900012    2    1    2    0    0 -0.40958687254E+01  0.94100639864E+01  0.30189309401E+02  0.59301955294E+02  0.50000020548E+02 0.  0.
        -12    1    1    2    0    0  0.40958687254E+01 -0.94100639864E+01 -0.30189309401E+02  0.31886044706E+02  0.00000000000E+00 0.  1.
         11    1    3    3    0    0 -0.15551244887E+01  0.22040219436E+01  0.30626577514E+02  0.30745135800E+02  0.51100000000E-03 0. -1.
        -11    1    3    3    0    0  0.93206266415E+01  0.11075534807E+02 -0.49359647956E+01  0.15293962893E+02  0.51100000000E-03 0.  1.
         12    1    3    3    0    0 -0.11861370878E+02 -0.38694927646E+01  0.44986966828E+01  0.13262856601E+02  0.00000000000E+00 0. -1.
</event>
<event>
 7    1  0.1113211E-011  0.5930214E+02  0.7816164E-02  0.1266604E+00
        -11   -1    0    0    0    0  0.00000000000E+00  0.00000000000E+00  0.45593999997E+02  0.45594000000E+02  0.51100000000E-03 0. -1.
         11   -1    0    0    0    0 -0.00000000000E+00 -0.00000000000E+00 -0.45593999997E+02  0.45594000000E+02  0.51100000000E-03 0.  1.
    9900012    2    1    2    0    0 -0.28348585251E+02  0.53681510397E+01  0.13573821766E+02  0.59302141557E+02  0.50000360245E+02 0.  0.
        -12    1    1    2    0    0  0.28348585251E+02 -0.53681510397E+01 -0.13573821766E+02  0.31885858443E+02  0.00000000000E+00 0.  1.
         11    1    3    3    0    0 -0.59381479740E+01 -0.33399864274E+01 -0.39157710800E+01  0.78581406267E+01  0.51100000000E-03 0. -1.
        -11    1    3    3    0    0 -0.18229201605E+02  0.12915838051E+02  0.30113455613E+02  0.37495904749E+02  0.51100000000E-03 0.  1.
        -12    1    3    3    0    0 -0.41812356713E+01 -0.42077005840E+01 -0.12623862766E+02  0.13948096182E+02  0.00000000000E+00 0.  1.
</event>
<event>
 7    1  0.1113211E-011  0.5930196E+02  0.7816164E-02  0.1266605E+00
        -11   -1    0    0    0    0  0.00000000000E+00  0.00000000000E+00  0.45593999997E+02  0.45594000000E+02  0.51100000000E-03 0.  1.
         11   -1    0    0    0    0 -0.00000000000E+00 -0.00000000000E+00 -0.45593999997E+02  0.45594000000E+02  0.51100000000E-03 0. -1.
    9900012    2    1    2    0    0 -0.33133384372E+01 -0.35288816777E+01 -0.31516481658E+02  0.59301955504E+02  0.50000020931E+02 0.  0.
        -12    1    1    2    0    0  0.33133384372E+01  0.35288816777E+01  0.31516481658E+02  0.31886044496E+02  0.00000000000E+00 0.  1.
         11    1    3    3    0    0 -0.24485364611E+01  0.10201380579E+02 -0.27427047138E+02  0.29365054257E+02  0.51100000000E-03 0. -1.
        -11    1    3    3    0    0 -0.77177445689E+01 -0.12305777868E+01  0.80454026368E+01  0.11216345518E+02  0.51100000000E-03 0.  1.
         12    1    3    3    0    0  0.68529425928E+01 -0.12499684470E+02 -0.12134837156E+02  0.18720555730E+02  0.00000000000E+00 0. -1.
</event>
<event>
 7    1  0.1113211E-011  0.5930194E+02  0.7816164E-02  0.1266605E+00
        -11   -1    0    0    0    0  0.00000000000E+00  0.00000000000E+00  0.45593999997E+02  0.45594000000E+02  0.51100000000E-03 0. -1.
         11   -1    0    0    0    0 -0.00000000000E+00 -0.00000000000E+00 -0.45593999997E+02  0.45594000000E+02  0.51100000000E-03 0.  1.
    9900012    2    1    2    0    0  0.37599850070E+01 -0.19441870276E+02  0.24991933172E+02  0.59301944573E+02  0.50000000994E+02 0.  0.
        -12    1    1    2    0    0 -0.37599850070E+01  0.19441870276E+02 -0.24991933172E+02  0.31886055427E+02  0.00000000000E+00 0.  1.
         11    1    3    3    0    0  0.11622674288E+02  0.23696493247E+01  0.24807347997E+02  0.27497387339E+02  0.51100000000E-03 0. -1.
        -11    1    3    3    0    0  0.10191741624E+01 -0.22413603145E+02  0.25828061176E+01  0.22584933244E+02  0.51100000000E-03 0.  1.
         12    1    3    3    0    0 -0.88818634435E+01  0.60208354507E+00 -0.23982209431E+01  0.92196239900E+01  0.00000000000E+00 0. -1.
</event>
<event>
 7    1  0.1113211E-011  0.5930196E+02  0.7816164E-02  0.1266605E+00
        -11   -1    0    0    0    0  0.00000000000E+00  0.00000000000E+00  0.45593999997E+02  0.45594000000E+02  0.51100000000E-03 0.  1.
         11   -1    0    0    0    0 -0.00000000000E+00 -0.00000000000E+00 -0.45593999997E+02  0.45594000000E+02  0.51100000000E-03 0. -1.
    9900012    2    1    2    0    0  0.73541391755E+01  0.23366105860E+02 -0.20412281305E+02  0.59301960827E+02  0.50000030637E+02 0.  0.
        -12    1    1    2    0    0 -0.73541391755E+01 -0.23366105860E+02  0.20412281305E+02  0.31886039173E+02  0.00000000000E+00 0.  1.
         11    1    3    3    0    0  0.23969600351E+02  0.70130394308E+01 -0.20269598693E+02  0.32164904702E+02  0.51100000000E-03 0. -1.
        -11    1    3    3    0    0 -0.11960626831E+02  0.30733577427E+01  0.30222942845E+01  0.12713629891E+02  0.51100000000E-03 0.  1.
         12    1    3    3    0    0 -0.46548343444E+01  0.13279708687E+02 -0.31649768965E+01  0.14423426234E+02  0.00000000000E+00 0. -1.
</event>
<event>
 7    1  0.1113211E-011  0.5930193E+02  0.7816164E-02  0.1266605E+00
        -11   -1    0    0    0    0  0.00000000000E+00  0.00000000000E+00  0.45593999997E+02  0.45594000000E+02  0.51100000000E-03 0.  1.
         11   -1    0    0    0    0 -0.00000000000E+00 -0.00000000000E+00 -0.45593999997E+02  0.45594000000E+02  0.51100000000E-03 0. -1.
    9900012    2    1    2    0    0  0.11658811596E+02  0.24223536937E+02 -0.17146835101E+02  0.59301928063E+02  0.49999970885E+02 0.  0.
        -12    1    1    2    0    0 -0.11658811596E+02 -0.24223536937E+02  0.17146835101E+02  0.31886071937E+02  0.00000000000E+00 0.  1.
         11    1    3    3    0    0 -0.14588022698E+02  0.13373390177E+02 -0.41920941117E+01  0.20229474150E+02  0.51100000000E-03 0. -1.
        -11    1    3    3    0    0  0.28476649208E+02  0.14175809582E+02 -0.14261456352E+02  0.34860611942E+02  0.51100000000E-03 0.  1.
         12    1    3    3    0    0 -0.22298149137E+01 -0.33256628222E+01  0.13067153634E+01  0.42118419720E+01  0.00000000000E+00 0. -1.
</event>
<event>
 7    1  0.1113211E-011  0.5930195E+02  0.7816164E-02  0.1266605E+00
        -11   -1    0    0    0    0  0.00000000000E+00  0.00000000000E+00  0.45593999997E+02  0.45594000000E+02  0.51100000000E-03 0.  1.
         11   -1    0    0    0    0 -0.00000000000E+00 -0.00000000000E+00 -0.45593999997E+02  0.45594000000E+02  0.51100000000E-03 0. -1.
    9900012    2    1    2    0    0 -0.49894285574E+01  0.37173143724E+01 -0.31273113413E+02  0.59301945901E+02  0.50000003416E+02 0.  0.
        -12    1    1    2    0    0  0.49894285574E+01 -0.37173143724E+01  0.31273113413E+02  0.31886054099E+02  0.00000000000E+00 0.  1.
         11    1    3    3    0    0 -0.30755107080E+01 -0.19138303464E+02 -0.10348435412E+02  0.21973246036E+02  0.51100000000E-03 0. -1.
        -11    1    3    3    0    0 -0.10274255034E+02  0.68210174040E+01 -0.52719494444E+01  0.13411936704E+02  0.51100000000E-03 0.  1.
         12    1    3    3    0    0  0.83603371848E+01  0.16034600432E+02 -0.15652728556E+02  0.23916763162E+02  0.00000000000E+00 0. -1.
</event>
<event>
 7    1  0.1113211E-011  0.5930224E+02  0.7816164E-02  0.1266604E+00
        -11   -1    0    0    0    0  0.00000000000E+00  0.00000000000E+00  0.45593999997E+02  0.45594000000E+02  0.51100000000E-03 0.  1.
         11   -1    0    0    0    0 -0.00000000000E+00 -0.00000000000E+00 -0.45593999997E+02  0.45594000000E+02  0.51100000000E-03 0. -1.
    9900012    2    1    2    0    0 -0.26310956584E+02  0.60608660847E+01 -0.16961758907E+02  0.59302238299E+02  0.50000536677E+02 0.  0.
        -12    1    1    2    0    0  0.26310956584E+02 -0.60608660847E+01  0.16961758907E+02  0.31885761701E+02  0.00000000000E+00 0.  1.
         11    1    3    3    0    0 -0.38872435646E+01 -0.21474697502E+01 -0.23484310797E+02  0.23900525992E+02  0.51100000000E-03 0. -1.
        -11    1    3    3    0    0 -0.26804291662E+02  0.54408274993E+01  0.36400159570E+00  0.27353338970E+02  0.51100000000E-03 0.  1.
        -12    1    3    3    0    0  0.43805786430E+01  0.27675083357E+01  0.61585502942E+01  0.80483733364E+01  0.00000000000E+00 0.  1.
</event>
<event>
 7    1  0.1113211E-011  0.5930194E+02  0.7816164E-02  0.1266605E+00
        -11   -1    0    0    0    0  0.00000000000E+00  0.00000000000E+00  0.45593999997E+02  0.45594000000E+02  0.51100000000E-03 0.  1.
         11   -1    0    0    0    0 -0.00000000000E+00 -0.00000000000E+00 -0.45593999997E+02  0.45594000000E+02  0.51100000000E-03 0. -1.
    9900012    2    1    2    0    0 -0.11852936553E+02  0.27086337662E+02 -0.11939801975E+02  0.59301942482E+02  0.49999997181E+02 0.  0.
        -12    1    1    2    0    0  0.11852936553E+02 -0.27086337662E+02  0.11939801975E+02  0.31886057518E+02  0.00000000000E+00 0.  1.
         11    1    3    3    0    0  0.13290380714E+02  0.26128794711E+02 -0.14930168568E+02  0.32897690896E+02  0.51100000000E-03 0. -1.
        -11    1    3    3    0    0 -0.27920900130E+01 -0.21995554455E+01 -0.40430735285E+00  0.35773279826E+01  0.51100000000E-03 0.  1.
         12    1    3    3    0    0 -0.22351227253E+02  0.31570983965E+01  0.33946739451E+01  0.22826923604E+02  0.00000000000E+00 0. -1.
</event>
<event>
 7    1  0.1113211E-011  0.5930195E+02  0.7816164E-02  0.1266605E+00
        -11   -1    0    0    0    0  0.00000000000E+00  0.00000000000E+00  0.45593999997E+02  0.45594000000E+02  0.51100000000E-03 0. -1.
         11   -1    0    0    0    0 -0.00000000000E+00 -0.00000000000E+00 -0.45593999997E+02  0.45594000000E+02  0.51100000000E-03 0.  1.
    9900012    2    1    2    0    0  0.17649019101E+02  0.45256840557E+01  0.26167743606E+02  0.59301945105E+02  0.50000001964E+02 0.  0.
        -12    1    1    2    0    0 -0.17649019101E+02 -0.45256840557E+01 -0.26167743606E+02  0.31886054895E+02  0.00000000000E+00 0.  1.
         11    1    3    3    0    0  0.29950155999E+02 -0.69706661310E+01  0.25615595505E+02  0.40022003499E+02  0.51100000000E-03 0. -1.
        -11    1    3    3    0    0 -0.18002023109E+01  0.78667695564E+01 -0.69329566567E+00  0.80998426377E+01  0.51100000000E-03 0.  1.
         12    1    3    3    0    0 -0.10500934588E+02  0.36295806303E+01  0.12454437657E+01  0.11180098968E+02  0.00000000000E+00 0. -1.
</event>
<event>
 7    1  0.1113211E-011  0.5930185E+02  0.7816164E-02  0.1266605E+00
        -11   -1    0    0    0    0  0.00000000000E+00  0.00000000000E+00  0.45593999997E+02  0.45594000000E+02  0.51100000000E-03 0. -1.
         11   -1    0    0    0    0 -0.00000000000E+00 -0.00000000000E+00 -0.45593999997E+02  0.45594000000E+02  0.51100000000E-03 0.  1.
    9900012    2    1    2    0    0 -0.36925631861E+01 -0.25882794362E+02  0.18253016841E+02  0.59301847979E+02  0.49999824831E+02 0.  0.
        -12    1    1    2    0    0  0.36925631861E+01  0.25882794362E+02 -0.18253016841E+02  0.31886152021E+02  0.00000000000E+00 0.  1.
         11    1    3    3    0    0 -0.12572003658E+02 -0.16250495560E+02  0.22287165294E+02  0.30312565365E+02  0.51100000000E-03 0. -1.
        -11    1    3    3    0    0  0.24360094557E+01 -0.17986327733E+02 -0.22551186330E+01  0.18290098078E+02  0.51100000000E-03 0.  1.
         12    1    3    3    0    0  0.64434310164E+01  0.83540289307E+01 -0.17790298199E+01  0.10699184536E+02  0.00000000000E+00 0. -1.
</event>
<event>
 7    1  0.1113211E-011  0.5930192E+02  0.7816164E-02  0.1266605E+00
        -11   -1    0    0    0    0  0.00000000000E+00  0.00000000000E+00  0.45593999997E+02  0.45594000000E+02  0.51100000000E-03 0. -1.
         11   -1    0    0    0    0 -0.00000000000E+00 -0.00000000000E+00 -0.45593999997E+02  0.45594000000E+02  0.51100000000E-03 0.  1.
    9900012    2    1    2    0    0 -0.24835813273E+01 -0.94790214478E+01  0.30343076514E+02  0.59301916575E+02  0.49999949934E+02 0.  0.
        -12    1    1    2    0    0  0.24835813273E+01  0.94790214478E+01 -0.30343076514E+02  0.31886083425E+02  0.00000000000E+00 0.  1.
         11    1    3    3    0    0  0.31232033450E+01 -0.18393301376E+02  0.35532932181E+02  0.40132993961E+02  0.51100000000E-03 0. -1.
        -11    1    3    3    0    0 -0.10594442717E+02  0.71164531363E+01 -0.18326451331E+01  0.12893591826E+02  0.51100000000E-03 0.  1.
         12    1    3    3    0    0  0.49876580445E+01  0.17978267915E+01 -0.33572105339E+01  0.62753307889E+01  0.00000000000E+00 0. -1.
</event>
<event>
 7    1  0.1113211E-011  0.5930200E+02  0.7816164E-02  0.1266605E+00
        -11   -1    0    0    0    0  0.00000000000E+00  0.00000000000E+00  0.45593999997E+02  0.45594000000E+02  0.51100000000E-03 0. -1.
         11   -1    0    0    0    0 -0.00000000000E+00 -0.00000000000E+00 -0.45593999997E+02  0.45594000000E+02  0.51100000000E-03 0.  1.
    9900012    2    1    2    0    0 -0.27847626153E+02  0.14240757048E+02  0.61990133496E+01  0.59301996641E+02  0.50000095954E+02 0.  0.
        -12    1    1    2    0    0  0.27847626153E+02 -0.14240757048E+02 -0.61990133496E+01  0.31886003359E+02  0.00000000000E+00 0.  1.
         11    1    3    3    0    0 -0.14749899901E+02  0.18220054696E+02  0.15905372051E+02  0.28328621579E+02  0.51100000000E-03 0. -1.
        -11    1    3    3    0    0 -0.15606086483E+02 -0.11663556114E+02 -0.16369411718E+01  0.19551676481E+02  0.51100000000E-03 0.  1.
         12    1    3    3    0    0  0.25083602307E+01  0.76842584662E+01 -0.80694175300E+01  0.11421698582E+02  0.00000000000E+00 0. -1.
</event>
<event>
 7    1  0.1113211E-011  0.5930198E+02  0.7816164E-02  0.1266605E+00
        -11   -1    0    0    0    0  0.00000000000E+00  0.00000000000E+00  0.45593999997E+02  0.45594000000E+02  0.51100000000E-03 0. -1.
         11   -1    0    0    0    0 -0.00000000000E+00 -0.00000000000E+00 -0.45593999997E+02  0.45594000000E+02  0.51100000000E-03 0.  1.
    9900012    2    1    2    0    0  0.29200821067E+02  0.28530233905E+00 -0.12804265867E+02  0.59301975274E+02  0.50000056985E+02 0.  0.
        -12    1    1    2    0    0 -0.29200821067E+02 -0.28530233905E+00  0.12804265867E+02  0.31886024726E+02  0.00000000000E+00 0.  1.
         11    1    3    3    0    0  0.25375862590E+02 -0.77451891224E+01 -0.11648664050E+01  0.26557094546E+02  0.51100000000E-03 0. -1.
        -11    1    3    3    0    0 -0.42290523290E+01  0.29581517968E+01  0.87978477697E+01  0.10199885847E+02  0.51100000000E-03 0.  1.
        -12    1    3    3    0    0  0.80540108062E+01  0.50723396647E+01 -0.20437247232E+02  0.22544994880E+02  0.00000000000E+00 0.  1.
</event>
<event>
 7    1  0.1113211E-011  0.5930196E+02  0.7816164E-02  0.1266605E+00
        -11   -1    0    0    0    0  0.00000000000E+00  0.00000000000E+00  0.45593999997E+02  0.45594000000E+02  0.51100000000E-03 0.  1.
         11   -1    0    0    0    0 -0.00000000000E+00 -0.00000000000E+00 -0.45593999997E+02  0.45594000000E+02  0.51100000000E-03 0. -1.
    9900012    2    1    2    0    0  0.30223977157E+02 -0.59910608037E+01 -0.82059709796E+01  0.59301959725E+02  0.50000028628E+02 0.  0.
        -12    1    1    2    0    0 -0.30223977157E+02  0.59910608037E+01  0.82059709796E+01  0.31886040275E+02  0.00000000000E+00 0.  1.
         11    1    3    3    0    0  0.13573817113E+02 -0.18857080472E+02 -0.24628570723E+01  0.23364581318E+02  0.51100000000E-03 0. -1.
        -11    1    3    3    0    0  0.67146419108E+01  0.15670438951E+02  0.79316926401E+01  0.18803213058E+02  0.51100000000E-03 0.  1.
         12    1    3    3    0    0  0.99355181327E+01 -0.28044192824E+01 -0.13674806547E+02  0.17134165348E+02  0.00000000000E+00 0. -1.
</event>
<event>
 7    1  0.1113211E-011  0.5930186E+02  0.7816164E-02  0.1266605E+00
        -11   -1    0    0    0    0  0.00000000000E+00  0.00000000000E+00  0.45593999997E+02  0.45594000000E+02  0.51100000000E-03 0.  1.
         11   -1    0    0    0    0 -0.00000000000E+00 -0.00000000000E+00 -0.45593999997E+02  0.45594000000E+02  0.51100000000E-03 0. -1.
    9900012    2    1    2    0    0  0.57414281152E+01  0.31070987658E+02 -0.42843714707E+01  0.59301857089E+02  0.49999841444E+02 0.  0.
        -12    1    1    2    0    0 -0.57414281152E+01 -0.31070987658E+02  0.42843714707E+01  0.31886142911E+02  0.00000000000E+00 0.  1.
         11    1    3    3    0    0  0.89559940062E+01  0.17501412250E+02 -0.25713341846E+02  0.32367965777E+02  0.51100000000E-03 0. -1.
        -11    1    3    3    0    0  0.14957541850E+01  0.83528140553E+00  0.66400669435E+01  0.68575115665E+01  0.51100000000E-03 0.  1.
         12    1    3    3    0    0 -0.47103200760E+01  0.12734294002E+02  0.14788903432E+02  0.20076379745E+02  0.00000000000E+00 0. -1.
</event>
<event>
 7    1  0.1113211E-011  0.5930193E+02  0.7816164E-02  0.1266605E+00
        -11   -1    0    0    0    0  0.00000000000E+00  0.00000000000E+00  0.45593999997E+02  0.45594000000E+02  0.51100000000E-03 0.  1.
         11   -1    0    0    0    0 -0.00000000000E+00 -0.00000000000E+00 -0.45593999997E+02  0.45594000000E+02  0.51100000000E-03 0. -1.
    9900012    2    1    2    0    0 -0.22797923410E+02  0.22140312369E+02 -0.26043705899E+01  0.59301929534E+02  0.49999973567E+02 0.  0.
        -12    1    1    2    0    0  0.22797923410E+02 -0.22140312369E+02  0.26043705899E+01  0.31886070466E+02  0.00000000000E+00 0.  1.
         11    1    3    3    0    0 -0.21975038604E+01 -0.60274405287E+01  0.25023805335E+01  0.68862886331E+01  0.51100000000E-03 0. -1.
        -11    1    3    3    0    0 -0.16786173867E+02  0.33635406265E+02  0.73349990756E+01  0.38300370748E+02  0.51100000000E-03 0.  1.
        -12    1    3    3    0    0 -0.38142456825E+01 -0.54676533675E+01 -0.12441750199E+02  0.14115270153E+02  0.00000000000E+00 0.  1.
</event>
<event>
 7    1  0.1113211E-011  0.5930193E+02  0.7816164E-02  0.1266605E+00
        -11   -1    0    0    0    0  0.00000000000E+00  0.00000000000E+00  0.45593999997E+02  0.45594000000E+02  0.51100000000E-03 0. -1.
         11   -1    0    0    0    0 -0.00000000000E+00 -0.00000000000E+00 -0.45593999997E+02  0.45594000000E+02  0.51100000000E-03 0.  1.
    9900012    2    1    2    0    0  0.17629471047E+02  0.47815332873E+01  0.26135415317E+02  0.59301933392E+02  0.49999980602E+02 0.  0.
        -12    1    1    2    0    0 -0.17629471047E+02 -0.47815332873E+01 -0.26135415317E+02  0.31886066608E+02  0.00000000000E+00 0.  1.
         11    1    3    3    0    0  0.21569181715E+02  0.15922691926E+02  0.16940088693E+02  0.31713220007E+02  0.51100000000E-03 0. -1.
        -11    1    3    3    0    0 -0.16012738862E+01 -0.18356523379E+02  0.65550819835E+01  0.19557482678E+02  0.51100000000E-03 0.  1.
         12    1    3    3    0    0 -0.23384367815E+01  0.72153647398E+01  0.26402446404E+01  0.80312307071E+01  0.00000000000E+00 0. -1.
</event>
<event>
 7    1  0.1113211E-011  0.5930192E+02  0.7816164E-02  0.1266605E+00
        -11   -1    0    0    0    0  0.00000000000E+00  0.00000000000E+00  0.45593999997E+02  0.45594000000E+02  0.51100000000E-03 0. -1.
         11   -1    0    0    0    0 -0.00000000000E+00 -0.00000000000E+00 -0.45593999997E+02  0.45594000000E+02  0.51100000000E-03 0.  1.
    9900012    2    1    2    0    0 -0.18804586842E+02 -0.25500886535E+02 -0.35797090682E+01  0.59301921260E+02  0.49999958478E+02 0.  0.
        -12    1    1    2    0    0  0.18804586842E+02  0.25500886535E+02  0.35797090682E+01  0.31886078740E+02  0.00000000000E+00 0.  1.
         11    1    3    3    0    0 -0.18131291636E+02 -0.25811336035E+02  0.57915781492E+01  0.32070409758E+02  0.51100000000E-03 0. -1.
        -11    1    3    3    0    0  0.62241170078E+00  0.11602232286E+02  0.12365174226E+01  0.11684526774E+02  0.51100000000E-03 0.  1.
        -12    1    3    3    0    0 -0.12957069065E+01 -0.11291782786E+02 -0.10607804640E+02  0.15546984728E+02  0.00000000000E+00 0.  1.
</event>
<event>
 7    1  0.1113211E-011  0.5930194E+02  0.7816164E-02  0.1266605E+00
        -11   -1    0    0    0    0  0.00000000000E+00  0.00000000000E+00  0.45593999997E+02  0.45594000000E+02  0.51100000000E-03 0. -1.
         11   -1    0    0    0    0 -0.00000000000E+00 -0.00000000000E+00 -0.45593999997E+02  0.45594000000E+02  0.51100000000E-03 0.  1.
    9900012    2    1    2    0    0 -0.20239589443E+02 -0.22830471922E+02 -0.92654840309E+01  0.59301943120E+02  0.49999998345E+02 0.  0.
        -12    1    1    2    0    0  0.20239589443E+02  0.22830471922E+02  0.92654840309E+01  0.31886056880E+02  0.00000000000E+00 0.  1.
         11    1    3    3    0    0 -0.10172022797E+02 -0.12246820801E+02  0.17675493937E+02  0.23788185170E+02  0.51100000000E-03 0. -1.
        -11    1    3    3    0    0 -0.19399242657E+01 -0.14933664145E+01 -0.22350834627E+02  0.22484511518E+02  0.51100000000E-03 0.  1.
         12    1    3    3    0    0 -0.81276423808E+01 -0.90902847062E+01 -0.45901433409E+01  0.13029246433E+02  0.00000000000E+00 0. -1.
</event>
<event>
 7    1  0.1113211E-011  0.5930198E+02  0.7816164E-02  0.1266605E+00
        -11   -1    0    0    0    0  0.00000000000E+00  0.00000000000E+00  0.45593999997E+02  0.45594000000E+02  0.51100000000E-03 0. -1.
         11   -1    0    0    0    0 -0.00000000000E+00 -0.00000000000E+00 -0.45593999997E+02  0.45594000000E+02  0.51100000000E-03 0.  1.
    9900012    2    1    2    0    0  0.13913002207E+02 -0.26108638011E+02  0.11894768744E+02  0.59301982176E+02  0.50000069574E+02 0.  0.
        -12    1    1    2    0    0 -0.13913002207E+02  0.26108638011E+02 -0.11894768744E+02  0.31886017824E+02  0.00000000000E+00 0.  1.
         11    1    3    3    0    0  0.87673686139E+01  0.55405313558E+01  0.70542624677E+01  0.12543000412E+02  0.51100000000E-03 0. -1.
        -11    1    3    3    0    0 -0.48343589526E+01 -0.27943423318E+02 -0.85806924980E+01  0.29628267199E+02  0.51100000000E-03 0.  1.
        -12    1    3    3    0    0  0.99799925460E+01 -0.37057460486E+01  0.13421198774E+02  0.17130714565E+02  0.00000000000E+00 0.  1.
</event>
<event>
 7    1  0.1113211E-011  0.5930193E+02  0.7816164E-02  0.1266605E+00
        -11   -1    0    0    0    0  0.00000000000E+00  0.00000000000E+00  0.45593999997E+02  0.45594000000E+02  0.51100000000E-03 0. -1.
         11   -1    0    0    0    0 -0.00000000000E+00 -0.00000000000E+00 -0.45593999997E+02  0.45594000000E+02  0.51100000000E-03 0.  1.
    9900012    2    1    2    0    0 -0.56939463090E+01 -0.31373478002E+02 -0.72857101713E-01  0.59301930084E+02  0.49999974571E+02 0.  0.
        -12    1    1    2    0    0  0.56939463090E+01  0.31373478002E+02  0.72857101713E-01  0.31886069916E+02  0.00000000000E+00 0.  1.
         11    1    3    3    0    0  0.60933263689E+01 -0.10481750724E+02 -0.59854183920E+01  0.13521130058E+02  0.51100000000E-03 0. -1.
        -11    1    3    3    0    0  0.47574529845E+00 -0.18646387391E+02  0.19743115364E+02  0.27160719815E+02  0.51100000000E-03 0.  1.
        -12    1    3    3    0    0 -0.12263017976E+02 -0.22453398871E+01 -0.13830554073E+02  0.18620080211E+02  0.00000000000E+00 0.  1.
</event>
<event>
 7    1  0.1113211E-011  0.5930184E+02  0.7816164E-02  0.1266605E+00
        -11   -1    0    0    0    0  0.00000000000E+00  0.00000000000E+00  0.45593999997E+02  0.45594000000E+02  0.51100000000E-03 0.  1.
         11   -1    0    0    0    0 -0.00000000000E+00 -0.00000000000E+00 -0.45593999997E+02  0.45594000000E+02  0.51100000000E-03 0. -1.
    9900012    2    1    2    0    0  0.49640017436E+01  0.22589300795E+02 -0.21950153790E+02  0.59301841951E+02  0.49999813836E+02 0.  0.
        -12    1    1    2    0    0 -0.49640017436E+01 -0.22589300795E+02  0.21950153790E+02  0.31886158049E+02  0.00000000000E+00 0.  1.
         11    1    3    3    0    0  0.22130788299E+02  0.62995312338E+01 -0.14100602742E+02  0.26986716778E+02  0.51100000000E-03 0. -1.
        -11    1    3    3    0    0 -0.95009249303E+01  0.11675471676E+02  0.56849472764E+01  0.16090458017E+02  0.51100000000E-03 0.  1.
        -12    1    3    3    0    0 -0.76658616249E+01  0.46142978848E+01 -0.13534498325E+02  0.16224667156E+02  0.00000000000E+00 0.  1.
</event>
<event>
 7    1  0.1113211E-011  0.5930195E+02  0.7816164E-02  0.1266605E+00
        -11   -1    0    0    0    0  0.00000000000E+00  0.00000000000E+00  0.45593999997E+02  0.45594000000E+02  0.51100000000E-03 0.  1.
         11   -1    0    0    0    0 -0.00000000000E+00 -0.00000000000E+00 -0.45593999997E+02  0.45594000000E+02  0.51100000000E-03 0. -1.
    9900012    2    1    2    0    0 -0.33967910082E+01 -0.31549134336E+02  0.31359151663E+01  0.59301952417E+02  0.50000015301E+02 0.  0.
        -12    1    1    2    0    0  0.33967910082E+01  0.31549134336E+02 -0.31359151663E+01  0.31886047583E+02  0.00000000000E+00 0.  1.
         11    1    3    3    0    0  0.45789772873E+01 -0.73751635774E+01 -0.23824266867E+01  0.90020013313E+01  0.51100000000E-03 0. -1.
        -11    1    3    3    0    0 -0.28457761674E+01 -0.16231400625E+02  0.24248793472E+02  0.29318267230E+02  0.51100000000E-03 0.  1.
        -12    1    3    3    0    0 -0.51299921282E+01 -0.79425701338E+01 -0.18730451619E+02  0.20981683856E+02  0.00000000000E+00 0.  1.
</event>
<event>
 7    1  0.1113211E-011  0.5930194E+02  0.7816164E-02  0.1266605E+00
        -11   -1    0    0    0    0  0.00000000000E+00  0.00000000000E+00  0.45593999997E+02  0.45594000000E+02  0.51100000000E-03 0.  1.
         11   -1    0    0    0    0 -0.00000000000E+00 -0.00000000000E+00 -0.45593999997E+02  0.45594000000E+02  0.51100000000E-03 0. -1.
    9900012    2    1    2    0    0 -0.30295986112E+02  0.70862541253E+01  0.69756106901E+01  0.59301938523E+02  0.49999989960E+02 0.  0.
        -12    1    1    2    0    0  0.30295986112E+02 -0.70862541253E+01 -0.69756106901E+01  0.31886061477E+02  0.00000000000E+00 0.  1.
         11    1    3    3    0    0  0.94946621108E+00  0.11041037997E+02  0.15319032040E+02  0.18907108427E+02  0.51100000000E-03 0.  1.
        -11    1    3    3    0    0 -0.15638525409E+02 -0.10806809689E+02 -0.12625889231E+02  0.22820247408E+02  0.51100000000E-03 0. -1.
         12    1    3    3    0    0 -0.15606926914E+02  0.68520258169E+01  0.42824678814E+01  0.17574582688E+02  0.00000000000E+00 0. -1.
</event>
<event>
 7    1  0.1113211E-011  0.5930195E+02  0.7816164E-02  0.1266605E+00
        -11   -1    0    0    0    0  0.00000000000E+00  0.00000000000E+00  0.45593999997E+02  0.45594000000E+02  0.51100000000E-03 0. -1.
         11   -1    0    0    0    0 -0.00000000000E+00 -0.00000000000E+00 -0.45593999997E+02  0.45594000000E+02  0.51100000000E-03 0.  1.
    9900012    2    1    2    0    0  0.98605464646E+00  0.15263480465E+02  0.27978098138E+02  0.59301951091E+02  0.50000012881E+02 0.  0.
        -12    1    1    2    0    0 -0.98605464646E+00 -0.15263480465E+02 -0.27978098138E+02  0.31886048909E+02  0.00000000000E+00 0.  1.
         11    1    3    3    0    0  0.10954664539E+02  0.39308944566E+01 -0.15557542508E+01  0.11742102790E+02  0.51100000000E-03 0. -1.
        -11    1    3    3    0    0 -0.18846967991E+02  0.18599703307E+01  0.28911355175E+02  0.34562033366E+02  0.51100000000E-03 0.  1.
        -12    1    3    3    0    0  0.88783580982E+01  0.94726156775E+01  0.62249721372E+00  0.12997814935E+02  0.00000000000E+00 0.  1.
</event>
<event>
 7    1  0.1113211E-011  0.5930194E+02  0.7816164E-02  0.1266605E+00
        -11   -1    0    0    0    0  0.00000000000E+00  0.00000000000E+00  0.45593999997E+02  0.45594000000E+02  0.51100000000E-03 0.  1.
         11   -1    0    0    0    0 -0.00000000000E+00 -0.00000000000E+00 -0.45593999997E+02  0.45594000000E+02  0.51100000000E-03 0. -1.
    9900012    2    1    2    0    0  0.10673889241E+01 -0.30720105033E+02  0.84768219348E+01  0.59301942194E+02  0.49999996655E+02 0.  0.
        -12    1    1    2    0    0 -0.10673889241E+01  0.30720105033E+02 -0.84768219348E+01  0.31886057806E+02  0.00000000000E+00 0.  1.
         11    1    3    3    0    0  0.94690363154E+01 -0.23474565628E+02 -0.15686021316E+02  0.29778669298E+02  0.51100000000E-03 0. -1.
        -11    1    3    3    0    0 -0.78796563813E+01 -0.10090719669E+02  0.14065355210E+02  0.19019616862E+02  0.51100000000E-03 0.  1.
         12    1    3    3    0    0 -0.52199101002E+00  0.28451802644E+01  0.10097488040E+02  0.10503656034E+02  0.00000000000E+00 0. -1.
</event>
<event>
 7    1  0.1113211E-011  0.5930190E+02  0.7816164E-02  0.1266605E+00
        -11   -1    0    0    0    0  0.00000000000E+00  0.00000000000E+00  0.45593999997E+02  0.45594000000E+02  0.51100000000E-03 0. -1.
         11   -1    0    0    0    0 -0.00000000000E+00 -0.00000000000E+00 -0.45593999997E+02  0.45594000000E+02  0.51100000000E-03 0.  1.
    9900012    2    1    2    0    0 -0.13237296030E+02  0.26630271033E+02  0.11503306719E+02  0.59301899471E+02  0.49999918739E+02 0.  0.
        -12    1    1    2    0    0  0.13237296030E+02 -0.26630271033E+02 -0.11503306719E+02  0.31886100529E+02  0.00000000000E+00 0.  1.
         11    1    3    3    0    0 -0.18687028922E+02  0.22433129832E+02 -0.58326903078E+00  0.29202578088E+02  0.51100000000E-03 0. -1.
        -11    1    3    3    0    0  0.38660784102E+01  0.35872739354E+00 -0.83694046770E+01  0.92261683555E+01  0.51100000000E-03 0.  1.
         12    1    3    3    0    0  0.15836544811E+01  0.38384138071E+01  0.20455980427E+02  0.20873153027E+02  0.00000000000E+00 0. -1.
</event>
<event>
 7    1  0.1113211E-011  0.5930191E+02  0.7816164E-02  0.1266605E+00
        -11   -1    0    0    0    0  0.00000000000E+00  0.00000000000E+00  0.45593999997E+02  0.45594000000E+02  0.51100000000E-03 0.  1.
         11   -1    0    0    0    0 -0.00000000000E+00 -0.00000000000E+00 -0.45593999997E+02  0.45594000000E+02  0.51100000000E-03 0. -1.
    9900012    2    1    2    0    0  0.19343807790E+02  0.24424117268E+02  0.67825018847E+01  0.59301909993E+02  0.49999937928E+02 0.  0.
        -12    1    1    2    0    0 -0.19343807790E+02 -0.24424117268E+02 -0.67825018847E+01  0.31886090007E+02  0.00000000000E+00 0.  1.
         11    1    3    3    0    0  0.15972258162E+01 -0.51266552672E+01 -0.90537861158E+01  0.10526384366E+02  0.51100000000E-03 0. -1.
        -11    1    3    3    0    0  0.21268340343E+02  0.22544091307E+02  0.22649530725E+02  0.38387232202E+02  0.51100000000E-03 0.  1.
        -12    1    3    3    0    0 -0.35217583690E+01  0.70066812287E+01 -0.68132427248E+01  0.10388293425E+02  0.00000000000E+00 0.  1.
</event>
<event>
 7    1  0.1113211E-011  0.5930194E+02  0.7816164E-02  0.1266605E+00
        -11   -1    0    0    0    0  0.00000000000E+00  0.00000000000E+00  0.45593999997E+02  0.45594000000E+02  0.51100000000E-03 0.  1.
         11   -1    0    0    0    0 -0.00000000000E+00 -0.00000000000E+00 -0.45593999997E+02  0.45594000000E+02  0.51100000000E-03 0. -1.
    9900012    2    1    2    0    0  0.20418574300E+02 -0.28914639931E+01 -0.24319587247E+02  0.59301936205E+02  0.49999985734E+02 0.  0.
        -12    1    1    2    0    0 -0.20418574300E+02  0.28914639931E+01  0.24319587247E+02  0.31886063795E+02  0.00000000000E+00 0.  1.
         11    1    3    3    0    0  0.15161666640E+02 -0.20925273101E+02 -0.15947445659E+02  0.30365510254E+02  0.51100000000E-03 0. -1.
        -11    1    3    3    0    0  0.39150852996E+01  0.55409595820E+01  0.65489916513E+01  0.94297093222E+01  0.51100000000E-03 0.  1.
         12    1    3    3    0    0  0.13418223611E+01  0.12492849526E+02 -0.14921133239E+02  0.19506716629E+02  0.00000000000E+00 0. -1.
</event>
<event>
 7    1  0.1113211E-011  0.5930191E+02  0.7816164E-02  0.1266605E+00
        -11   -1    0    0    0    0  0.00000000000E+00  0.00000000000E+00  0.45593999997E+02  0.45594000000E+02  0.51100000000E-03 0.  1.
         11   -1    0    0    0    0 -0.00000000000E+00 -0.00000000000E+00 -0.45593999997E+02  0.45594000000E+02  0.51100000000E-03 0. -1.
    9900012    2    1    2    0    0 -0.11677359703E+02  0.12112597765E+02 -0.27085916515E+02  0.59301911690E+02  0.49999941023E+02 0.  0.
        -12    1    1    2    0    0  0.11677359703E+02 -0.12112597765E+02  0.27085916515E+02  0.31886088310E+02  0.00000000000E+00 0.  1.
         11    1    3    3    0    0  0.20866428677E+01 -0.31261356522E+01 -0.13335515825E+02  0.13855063521E+02  0.51100000000E-03 0. -1.
        -11    1    3    3    0    0 -0.16892721802E+02  0.26363791668E+02 -0.70754059287E+01  0.32101011359E+02  0.51100000000E-03 0.  1.
        -12    1    3    3    0    0  0.31287192311E+01 -0.11125058250E+02 -0.66749947613E+01  0.13345836810E+02  0.00000000000E+00 0.  1.
</event>
<event>
 7    1  0.1113211E-011  0.5930193E+02  0.7816164E-02  0.1266605E+00
        -11   -1    0    0    0    0  0.00000000000E+00  0.00000000000E+00  0.45593999997E+02  0.45594000000E+02  0.51100000000E-03 0. -1.
         11   -1    0    0    0    0 -0.00000000000E+00 -0.00000000000E+00 -0.45593999997E+02  0.45594000000E+02  0.51100000000E-03 0.  1.
    9900012    2    1    2    0    0 -0.16678013256E+02  0.44575175582E+01  0.26808499333E+02  0.59301933679E+02  0.49999981127E+02 0.  0.
        -12    1    1    2    0    0  0.16678013256E+02 -0.44575175582E+01 -0.26808499333E+02  0.31886066321E+02  0.00000000000E+00 0.  1.
         11    1    3    3    0    0 -0.22935848143E+02  0.18681514984E+02  0.21809356660E+02  0.36751873018E+02  0.51100000000E-03 0. -1.
        -11    1    3    3    0    0  0.72095403690E+01 -0.16771499500E+01 -0.26060474260E+01  0.78474064337E+01  0.51100000000E-03 0.  1.
         12    1    3    3    0    0 -0.95170548163E+00 -0.12546847476E+02  0.76051900991E+01  0.14702654228E+02  0.00000000000E+00 0. -1.
</event>
<event>
 7    1  0.1113211E-011  0.5930196E+02  0.7816164E-02  0.1266605E+00
        -11   -1    0    0    0    0  0.00000000000E+00  0.00000000000E+00  0.45593999997E+02  0.45594000000E+02  0.51100000000E-03 0. -1.
         11   -1    0    0    0    0 -0.00000000000E+00 -0.00000000000E+00 -0.45593999997E+02  0.45594000000E+02  0.51100000000E-03 0.  1.
    9900012    2    1    2    0    0  0.21920163463E+02 -0.16901853344E+02  0.15828874142E+02  0.59301961216E+02  0.50000031347E+02 0.  0.
        -12    1    1    2    0    0 -0.21920163463E+02  0.16901853344E+02 -0.15828874142E+02  0.31886038784E+02  0.00000000000E+00 0.  1.
         11    1    3    3    0    0  0.51034368313E+01 -0.15131308273E+02  0.32458342774E+00  0.15972066623E+02  0.51100000000E-03 0. -1.
        -11    1    3    3    0    0  0.84607824654E+00  0.99630311697E+01  0.20573165382E+02  0.22874286275E+02  0.51100000000E-03 0.  1.
         12    1    3    3    0    0  0.15970648386E+02 -0.11733576241E+02 -0.50688746676E+01  0.20455608318E+02  0.00000000000E+00 0. -1.
</event>
<event>
 7    1  0.1113211E-011  0.5930193E+02  0.7816164E-02  0.1266605E+00
        -11   -1    0    0    0    0  0.00000000000E+00  0.00000000000E+00  0.45593999997E+02  0.45594000000E+02  0.51100000000E-03 0.  1.
         11   -1    0    0    0    0 -0.00000000000E+00 -0.00000000000E+00 -0.45593999997E+02  0.45594000000E+02  0.51100000000E-03 0. -1.
    9900012    2    1    2    0    0 -0.65953262923E+01  0.12681361976E+02 -0.28502736730E+02  0.59301932955E+02  0.49999979807E+02 0.  0.
        -12    1    1    2    0    0  0.65953262923E+01 -0.12681361976E+02  0.28502736730E+02  0.31886067045E+02  0.00000000000E+00 0.  1.
         11    1    3    3    0    0  0.18761389131E+01  0.73236312252E+01 -0.27249483782E+02  0.28278787778E+02  0.51100000000E-03 0. -1.
        -11    1    3    3    0    0 -0.14705006808E+02  0.69560277908E+01  0.92440724286E+01  0.18710329318E+02  0.51100000000E-03 0.  1.
        -12    1    3    3    0    0  0.62335416026E+01 -0.15982970399E+01 -0.10497325376E+02  0.12312815860E+02  0.00000000000E+00 0.  1.
</event>
<event>
 7    1  0.1113211E-011  0.5930197E+02  0.7816164E-02  0.1266605E+00
        -11   -1    0    0    0    0  0.00000000000E+00  0.00000000000E+00  0.45593999997E+02  0.45594000000E+02  0.51100000000E-03 0. -1.
         11   -1    0    0    0    0 -0.00000000000E+00 -0.00000000000E+00 -0.45593999997E+02  0.45594000000E+02  0.51100000000E-03 0.  1.
    9900012    2    1    2    0    0 -0.11747590497E+02  0.74184480615E+01  0.28699816681E+02  0.59301972783E+02  0.50000052443E+02 0.  0.
        -12    1    1    2    0    0  0.11747590497E+02 -0.74184480615E+01 -0.28699816681E+02  0.31886027217E+02  0.00000000000E+00 0.  1.
         11    1    3    3    0    0  0.67350176580E+01  0.58032373990E+01 -0.95954094134E+01  0.13080898640E+02  0.51100000000E-03 0. -1.
        -11    1    3    3    0    0 -0.18430435225E+02 -0.19435707895E+01  0.18782387374E+02  0.26386293520E+02  0.51100000000E-03 0.  1.
         12    1    3    3    0    0 -0.52172930163E-01  0.35587814520E+01  0.19512838721E+02  0.19834780623E+02  0.00000000000E+00 0. -1.
</event>
<event>
 7    1  0.1113211E-011  0.5930195E+02  0.7816164E-02  0.1266605E+00
        -11   -1    0    0    0    0  0.00000000000E+00  0.00000000000E+00  0.45593999997E+02  0.45594000000E+02  0.51100000000E-03 0.  1.
         11   -1    0    0    0    0 -0.00000000000E+00 -0.00000000000E+00 -0.45593999997E+02  0.45594000000E+02  0.51100000000E-03 0. -1.
    9900012    2    1    2    0    0  0.17504169445E+02 -0.20619090211E+02 -0.16887202072E+02  0.59301946263E+02  0.50000004077E+02 0.  0.
        -12    1    1    2    0    0 -0.17504169445E+02  0.20619090211E+02  0.16887202072E+02  0.31886053737E+02  0.00000000000E+00 0.  1.
         11    1    3    3    0    0  0.96075704351E+01  0.12136476644E+02  0.65503647432E+00  0.15492854741E+02  0.51100000000E-03 0.  1.
        -11    1    3    3    0    0 -0.47024770004E+01 -0.87393604024E+01  0.23218371838E+01  0.10192185161E+02  0.51100000000E-03 0. -1.
         12    1    3    3    0    0  0.12599076010E+02 -0.24016206453E+02 -0.19864075730E+02  0.33616906361E+02  0.00000000000E+00 0. -1.
</event>
<event>
 7    1  0.1113211E-011  0.5930196E+02  0.7816164E-02  0.1266605E+00
        -11   -1    0    0    0    0  0.00000000000E+00  0.00000000000E+00  0.45593999997E+02  0.45594000000E+02  0.51100000000E-03 0.  1.
         11   -1    0    0    0    0 -0.00000000000E+00 -0.00000000000E+00 -0.45593999997E+02  0.45594000000E+02  0.51100000000E-03 0. -1.
    9900012    2    1    2    0    0 -0.25971891984E+02  0.65614460570E+01  0.17295319923E+02  0.59301955422E+02  0.50000020780E+02 0.  0.
        -12    1    1    2    0    0  0.25971891984E+02 -0.65614460570E+01 -0.17295319923E+02  0.31886044578E+02  0.00000000000E+00 0.  1.
         11    1    3    3    0    0  0.53461783484E+01  0.91237364031E+01  0.83849911193E+01  0.13495638748E+02  0.51100000000E-03 0. -1.
        -11    1    3    3    0    0 -0.28870887664E+02 -0.13153122112E+02  0.12870993723E+02  0.34237337155E+02  0.51100000000E-03 0.  1.
        -12    1    3    3    0    0 -0.24471826687E+01  0.10590831766E+02 -0.39606649190E+01  0.11568979519E+02  0.00000000000E+00 0.  1.
</event>
<event>
 7    1  0.1113211E-011  0.5930196E+02  0.7816164E-02  0.1266605E+00
        -11   -1    0    0    0    0  0.00000000000E+00  0.00000000000E+00  0.45593999997E+02  0.45594000000E+02  0.51100000000E-03 0.  1.
         11   -1    0    0    0    0 -0.00000000000E+00 -0.00000000000E+00 -0.45593999997E+02  0.45594000000E+02  0.51100000000E-03 0. -1.
    9900012    2    1    2    0    0  0.26803608321E+02  0.11949928497E+02 -0.12469380045E+02  0.59301958402E+02  0.50000026215E+02 0.  0.
        -12    1    1    2    0    0 -0.26803608321E+02 -0.11949928497E+02  0.12469380045E+02  0.31886041598E+02  0.00000000000E+00 0.  1.
         11    1    3    3    0    0  0.21069601664E+02  0.24013648277E+02 -0.18473951734E+02  0.36903527078E+02  0.51100000000E-03 0. -1.
        -11    1    3    3    0    0  0.10918492118E+02 -0.36626327992E+01  0.17501044716E+01  0.11648657222E+02  0.51100000000E-03 0.  1.
         12    1    3    3    0    0 -0.51844854607E+01 -0.84010869807E+01  0.42544672177E+01  0.10749774103E+02  0.00000000000E+00 0. -1.
</event>
<event>
 7    1  0.1113211E-011  0.5930197E+02  0.7816164E-02  0.1266605E+00
        -11   -1    0    0    0    0  0.00000000000E+00  0.00000000000E+00  0.45593999997E+02  0.45594000000E+02  0.51100000000E-03 0. -1.
         11   -1    0    0    0    0 -0.00000000000E+00 -0.00000000000E+00 -0.45593999997E+02  0.45594000000E+02  0.51100000000E-03 0.  1.
    9900012    2    1    2    0    0  0.31833571994E+02  0.13332092256E-01 -0.18281539223E+01  0.59301974372E+02  0.50000055340E+02 0.  0.
        -12    1    1    2    0    0 -0.31833571994E+02 -0.13332092256E-01  0.18281539223E+01  0.31886025628E+02  0.00000000000E+00 0.  1.
         11    1    3    3    0    0  0.25917394487E+02  0.84937705206E+01  0.19446746008E+02  0.33496737232E+02  0.51100000000E-03 0. -1.
        -11    1    3    3    0    0 -0.81447461416E+00 -0.67426910284E+01 -0.61627199832E+01  0.91709524616E+01  0.51100000000E-03 0.  1.
         12    1    3    3    0    0  0.67306521210E+01 -0.17377473999E+01 -0.15112179947E+02  0.16634284678E+02  0.00000000000E+00 0. -1.
</event>
<event>
 7    1  0.1113211E-011  0.5930199E+02  0.7816164E-02  0.1266605E+00
        -11   -1    0    0    0    0  0.00000000000E+00  0.00000000000E+00  0.45593999997E+02  0.45594000000E+02  0.51100000000E-03 0.  1.
         11   -1    0    0    0    0 -0.00000000000E+00 -0.00000000000E+00 -0.45593999997E+02  0.45594000000E+02  0.51100000000E-03 0. -1.
    9900012    2    1    2    0    0 -0.11278973433E+02 -0.29265982675E+02  0.57449697331E+01  0.59301989574E+02  0.50000083065E+02 0.  0.
        -12    1    1    2    0    0  0.11278973433E+02  0.29265982675E+02 -0.57449697331E+01  0.31886010426E+02  0.00000000000E+00 0.  1.
         11    1    3    3    0    0 -0.49534981734E+01 -0.71246047261E+01  0.90400155912E+01  0.12530722996E+02  0.51100000000E-03 0. -1.
        -11    1    3    3    0    0  0.95383951061E+01 -0.87587612513E+01 -0.17390685588E+02  0.21682546561E+02  0.51100000000E-03 0.  1.
        -12    1    3    3    0    0 -0.15863870366E+02 -0.13382616698E+02  0.14095639730E+02  0.25088720017E+02  0.00000000000E+00 0.  1.
</event>
<event>
 7    1  0.1113211E-011  0.5930193E+02  0.7816164E-02  0.1266605E+00
        -11   -1    0    0    0    0  0.00000000000E+00  0.00000000000E+00  0.45593999997E+02  0.45594000000E+02  0.51100000000E-03 0. -1.
         11   -1    0    0    0    0 -0.00000000000E+00 -0.00000000000E+00 -0.45593999997E+02  0.45594000000E+02  0.51100000000E-03 0.  1.
    9900012    2    1    2    0    0  0.23427604878E+02  0.78965269272E+01  0.20137365572E+02  0.59301932509E+02  0.49999978993E+02 0.  0.
        -12    1    1    2    0    0 -0.23427604878E+02 -0.78965269272E+01 -0.20137365572E+02  0.31886067491E+02  0.00000000000E+00 0.  1.
         11    1    3    3    0    0 -0.10259900661E+02 -0.53994441023E+01  0.14757507340E+01  0.11687488981E+02  0.51100000000E-03 0.  1.
        -11    1    3    3    0    0  0.18185304045E+02  0.16794992337E+02  0.19775100778E+02  0.31683302572E+02  0.51100000000E-03 0. -1.
         12    1    3    3    0    0  0.15502201494E+02 -0.34990213070E+01 -0.11134859397E+01  0.15931140957E+02  0.00000000000E+00 0. -1.
</event>
<event>
 7    1  0.1113211E-011  0.5930193E+02  0.7816164E-02  0.1266605E+00
        -11   -1    0    0    0    0  0.00000000000E+00  0.00000000000E+00  0.45593999997E+02  0.45594000000E+02  0.51100000000E-03 0.  1.
         11   -1    0    0    0    0 -0.00000000000E+00 -0.00000000000E+00 -0.45593999997E+02  0.45594000000E+02  0.51100000000E-03 0. -1.
    9900012    2    1    2    0    0  0.28423121819E+02  0.14260984432E+02 -0.23392595439E+01  0.59301926769E+02  0.49999968523E+02 0.  0.
        -12    1    1    2    0    0 -0.28423121819E+02 -0.14260984432E+02  0.23392595439E+01  0.31886073231E+02  0.00000000000E+00 0.  1.
         11    1    3    3    0    0  0.97473565542E+01  0.34175560625E+01 -0.84347313800E+01  0.13335491853E+02  0.51100000000E-03 0. -1.
        -11    1    3    3    0    0  0.13840689849E+02 -0.13779644987E+02  0.72848596882E+01  0.20844963238E+02  0.51100000000E-03 0.  1.
        -12    1    3    3    0    0  0.48350754155E+01  0.24623073357E+02 -0.11893878521E+01  0.25121471678E+02  0.00000000000E+00 0.  1.
</event>
<event>
 7    1  0.1113211E-011  0.5930195E+02  0.7816164E-02  0.1266605E+00
        -11   -1    0    0    0    0  0.00000000000E+00  0.00000000000E+00  0.45593999997E+02  0.45594000000E+02  0.51100000000E-03 0.  1.
         11   -1    0    0    0    0 -0.00000000000E+00 -0.00000000000E+00 -0.45593999997E+02  0.45594000000E+02  0.51100000000E-03 0. -1.
    9900012    2    1    2    0    0 -0.36147242645E+01 -0.26462313913E+02 -0.17418373952E+02  0.59301952263E+02  0.50000015019E+02 0.  0.
        -12    1    1    2    0    0  0.36147242645E+01  0.26462313913E+02  0.17418373952E+02  0.31886047737E+02  0.00000000000E+00 0.  1.
         11    1    3    3    0    0 -0.35298358210E+01 -0.23322838529E+02 -0.30510694082E+02  0.38565748944E+02  0.51100000000E-03 0. -1.
        -11    1    3    3    0    0 -0.66513516177E+01  0.31651689834E-01  0.11480460875E+02  0.13268099424E+02  0.51100000000E-03 0.  1.
         12    1    3    3    0    0  0.65664631741E+01 -0.31711270735E+01  0.16118592544E+01  0.74681038952E+01  0.00000000000E+00 0. -1.
</event>
<event>
 7    1  0.1113211E-011  0.5930226E+02  0.7816164E-02  0.1266604E+00
        -11   -1    0    0    0    0  0.00000000000E+00  0.00000000000E+00  0.45593999997E+02  0.45594000000E+02  0.51100000000E-03 0. -1.
         11   -1    0    0    0    0 -0.00000000000E+00 -0.00000000000E+00 -0.45593999997E+02  0.45594000000E+02  0.51100000000E-03 0.  1.
    9900012    2    1    2    0    0 -0.59071595120E+01  0.10361007507E+02  0.29571193012E+02  0.59302259203E+02  0.50000574800E+02 0.  0.
        -12    1    1    2    0    0  0.59071595120E+01 -0.10361007507E+02 -0.29571193012E+02  0.31885740797E+02  0.00000000000E+00 0.  1.
         11    1    3    3    0    0 -0.10234017281E+02 -0.57807442446E+01 -0.37506294945E+01  0.12337720032E+02  0.51100000000E-03 0. -1.
        -11    1    3    3    0    0  0.52473886945E+01  0.15322292551E+02  0.28221291929E+01  0.16439955917E+02  0.51100000000E-03 0.  1.
         12    1    3    3    0    0 -0.92053092596E+00  0.81945920049E+00  0.30499693313E+02  0.30524583253E+02  0.00000000000E+00 0. -1.
</event>
<event>
 7    1  0.1113211E-011  0.5930193E+02  0.7816164E-02  0.1266605E+00
        -11   -1    0    0    0    0  0.00000000000E+00  0.00000000000E+00  0.45593999997E+02  0.45594000000E+02  0.51100000000E-03 0. -1.
         11   -1    0    0    0    0 -0.00000000000E+00 -0.00000000000E+00 -0.45593999997E+02  0.45594000000E+02  0.51100000000E-03 0.  1.
    9900012    2    1    2    0    0 -0.10976473550E+02  0.75276821634E+01  0.28975379375E+02  0.59301928115E+02  0.49999970978E+02 0.  0.
        -12    1    1    2    0    0  0.10976473550E+02 -0.75276821634E+01 -0.28975379375E+02  0.31886071885E+02  0.00000000000E+00 0.  1.
         11    1    3    3    0    0 -0.14903216497E+02  0.24819196435E+02  0.14841223775E+02  0.32532449909E+02  0.51100000000E-03 0. -1.
        -11    1    3    3    0    0 -0.18745090472E+01 -0.13529747670E+02  0.14403412031E+02  0.19850091550E+02  0.51100000000E-03 0.  1.
         12    1    3    3    0    0  0.58012519937E+01 -0.37617666021E+01 -0.26925643089E+00  0.69193866556E+01  0.00000000000E+00 0. -1.
</event>
<event>
 7    1  0.1113211E-011  0.5930193E+02  0.7816164E-02  0.1266605E+00
        -11   -1    0    0    0    0  0.00000000000E+00  0.00000000000E+00  0.45593999997E+02  0.45594000000E+02  0.51100000000E-03 0. -1.
         11   -1    0    0    0    0 -0.00000000000E+00 -0.00000000000E+00 -0.45593999997E+02  0.45594000000E+02  0.51100000000E-03 0.  1.
    9900012    2    1    2    0    0 -0.15791215766E+02  0.79951929395E+01  0.26522362857E+02  0.59301931929E+02  0.49999977934E+02 0.  0.
        -12    1    1    2    0    0  0.15791215766E+02 -0.79951929395E+01 -0.26522362857E+02  0.31886068071E+02  0.00000000000E+00 0.  1.
         11    1    3    3    0    0 -0.40006528209E+01  0.64628503251E+01  0.15663954804E+02  0.17410719046E+02  0.51100000000E-03 0. -1.
        -11    1    3    3    0    0 -0.82155403509E+01 -0.14979506171E+02 -0.59196609251E+01  0.18081014742E+02  0.51100000000E-03 0.  1.
        -12    1    3    3    0    0 -0.35750225946E+01  0.16511848785E+02  0.16778068978E+02  0.23810198141E+02  0.00000000000E+00 0.  1.
</event>
<event>
 7    1  0.1113211E-011  0.5930189E+02  0.7816164E-02  0.1266605E+00
        -11   -1    0    0    0    0  0.00000000000E+00  0.00000000000E+00  0.45593999997E+02  0.45594000000E+02  0.51100000000E-03 0.  1.
         11   -1    0    0    0    0 -0.00000000000E+00 -0.00000000000E+00 -0.45593999997E+02  0.45594000000E+02  0.51100000000E-03 0. -1.
    9900012    2    1    2    0    0 -0.11980343988E+02 -0.15441389738E+02 -0.25194423594E+02  0.59301887986E+02  0.49999897793E+02 0.  0.
        -12    1    1    2    0    0  0.11980343988E+02  0.15441389738E+02  0.25194423594E+02  0.31886112014E+02  0.00000000000E+00 0.  1.
         11    1    3    3    0    0  0.94284605873E+01 -0.26174950500E+01  0.54305196780E+01  0.11190964821E+02  0.51100000000E-03 0. -1.
        -11    1    3    3    0    0 -0.21013097314E+02 -0.75822835323E+01 -0.62802994920E+01  0.23205246051E+02  0.51100000000E-03 0.  1.
        -12    1    3    3    0    0 -0.39570726128E+00 -0.52416111558E+01 -0.24344643780E+02  0.24905677114E+02  0.00000000000E+00 0.  1.
</event>
<event>
 7    1  0.1113211E-011  0.5930197E+02  0.7816164E-02  0.1266605E+00
        -11   -1    0    0    0    0  0.00000000000E+00  0.00000000000E+00  0.45593999997E+02  0.45594000000E+02  0.51100000000E-03 0.  1.
         11   -1    0    0    0    0 -0.00000000000E+00 -0.00000000000E+00 -0.45593999997E+02  0.45594000000E+02  0.51100000000E-03 0. -1.
    9900012    2    1    2    0    0 -0.21293701029E+01  0.40149463701E+01 -0.31560499433E+02  0.59301966445E+02  0.50000040884E+02 0.  0.
        -12    1    1    2    0    0  0.21293701029E+01 -0.40149463701E+01  0.31560499433E+02  0.31886033555E+02  0.00000000000E+00 0.  1.
         11    1    3    3    0    0  0.15541607968E+01 -0.14585810065E+02 -0.26600604100E+02  0.30376856483E+02  0.51100000000E-03 0. -1.
        -11    1    3    3    0    0 -0.67737125833E+01  0.16347435816E+02  0.48902552938E+01  0.18358552149E+02  0.51100000000E-03 0.  1.
        -12    1    3    3    0    0  0.30901816836E+01  0.22533206191E+01 -0.98501506264E+01  0.10566557813E+02  0.00000000000E+00 0.  1.
</event>
<event>
 7    1  0.1113211E-011  0.5930195E+02  0.7816164E-02  0.1266605E+00
        -11   -1    0    0    0    0  0.00000000000E+00  0.00000000000E+00  0.45593999997E+02  0.45594000000E+02  0.51100000000E-03 0. -1.
         11   -1    0    0    0    0 -0.00000000000E+00 -0.00000000000E+00 -0.45593999997E+02  0.45594000000E+02  0.51100000000E-03 0.  1.
    9900012    2    1    2    0    0  0.19892724291E+02  0.64879684812E+01  0.24060464526E+02  0.59301950261E+02  0.50000011369E+02 0.  0.
        -12    1    1    2    0    0 -0.19892724291E+02 -0.64879684812E+01 -0.24060464526E+02  0.31886049739E+02  0.00000000000E+00 0.  1.
         11    1    3    3    0    0  0.73316479069E+01 -0.41647206515E+01  0.19469175664E+01  0.86538111492E+01  0.51100000000E-03 0. -1.
        -11    1    3    3    0    0  0.58323900948E+01  0.13826362535E+02 -0.97711624225E+01  0.17907001160E+02  0.51100000000E-03 0.  1.
        -12    1    3    3    0    0  0.67286862890E+01 -0.31736734027E+01  0.31884709382E+02  0.32741137953E+02  0.00000000000E+00 0.  1.
</event>
<event>
 7    1  0.1113211E-011  0.5930195E+02  0.7816164E-02  0.1266605E+00
        -11   -1    0    0    0    0  0.00000000000E+00  0.00000000000E+00  0.45593999997E+02  0.45594000000E+02  0.51100000000E-03 0. -1.
         11   -1    0    0    0    0 -0.00000000000E+00 -0.00000000000E+00 -0.45593999997E+02  0.45594000000E+02  0.51100000000E-03 0.  1.
    9900012    2    1    2    0    0  0.30711547961E+02 -0.45465601145E+01  0.72697849040E+01  0.59301950392E+02  0.50000011607E+02 0.  0.
        -12    1    1    2    0    0 -0.30711547961E+02  0.45465601145E+01 -0.72697849040E+01  0.31886049608E+02  0.00000000000E+00 0.  1.
         11    1    3    3    0    0  0.69572440129E+01  0.67485222733E+01  0.12925814887E+02  0.16156190389E+02  0.51100000000E-03 0. -1.
        -11    1    3    3    0    0  0.29966259032E+02 -0.16880308863E+02 -0.39500500576E+01  0.34619711197E+02  0.51100000000E-03 0.  1.
        -12    1    3    3    0    0 -0.62119550838E+01  0.55852264749E+01 -0.17059799250E+01  0.85260488060E+01  0.00000000000E+00 0.  1.
</event>
<event>
 7    1  0.1113211E-011  0.5930194E+02  0.7816164E-02  0.1266605E+00
        -11   -1    0    0    0    0  0.00000000000E+00  0.00000000000E+00  0.45593999997E+02  0.45594000000E+02  0.51100000000E-03 0. -1.
         11   -1    0    0    0    0 -0.00000000000E+00 -0.00000000000E+00 -0.45593999997E+02  0.45594000000E+02  0.51100000000E-03 0.  1.
    9900012    2    1    2    0    0 -0.19182606957E+02  0.24798021043E+02  0.58143359488E+01  0.59301940980E+02  0.49999994442E+02 0.  0.
        -12    1    1    2    0    0  0.19182606957E+02 -0.24798021043E+02 -0.58143359488E+01  0.31886059020E+02  0.00000000000E+00 0.  1.
         11    1    3    3    0    0 -0.11669376954E+02  0.57177972040E+00  0.18632205684E+02  0.21992279997E+02  0.51100000000E-03 0. -1.
        -11    1    3    3    0    0  0.40944145694E+01  0.20017135557E+02 -0.13789740105E+01  0.20478074034E+02  0.51100000000E-03 0.  1.
         12    1    3    3    0    0 -0.11607644572E+02  0.42091057653E+01 -0.11438895724E+02  0.16831586950E+02  0.00000000000E+00 0. -1.
</event>
<event>
 7    1  0.1113211E-011  0.5930190E+02  0.7816164E-02  0.1266605E+00
        -11   -1    0    0    0    0  0.00000000000E+00  0.00000000000E+00  0.45593999997E+02  0.45594000000E+02  0.51100000000E-03 0.  1.
         11   -1    0    0    0    0 -0.00000000000E+00 -0.00000000000E+00 -0.45593999997E+02  0.45594000000E+02  0.51100000000E-03 0. -1.
    9900012    2    1    2    0    0  0.13691681461E+02  0.20982008354E+02 -0.19723502497E+02  0.59301900104E+02  0.49999919894E+02 0.  0.
        -12    1    1    2    0    0 -0.13691681461E+02 -0.20982008354E+02  0.19723502497E+02  0.31886099896E+02  0.00000000000E+00 0.  1.
         11    1    3    3    0    0  0.14270739581E+02  0.67602697308E+01 -0.28116237101E+02  0.32247140090E+02  0.51100000000E-03 0. -1.
        -11    1    3    3    0    0  0.47686677549E+01  0.38880188101E+01  0.13123576435E+02  0.14494314096E+02  0.51100000000E-03 0.  1.
         12    1    3    3    0    0 -0.53477258754E+01  0.10333719813E+02 -0.47308418316E+01  0.12560445918E+02  0.00000000000E+00 0. -1.
</event>
<event>
 7    1  0.1113211E-011  0.5930193E+02  0.7816164E-02  0.1266605E+00
        -11   -1    0    0    0    0  0.00000000000E+00  0.00000000000E+00  0.45593999997E+02  0.45594000000E+02  0.51100000000E-03 0. -1.
         11   -1    0    0    0    0 -0.00000000000E+00 -0.00000000000E+00 -0.45593999997E+02  0.45594000000E+02  0.51100000000E-03 0.  1.
    9900012    2    1    2    0    0 -0.21972158200E+02 -0.18455716399E+02  0.13904403054E+02  0.59301927366E+02  0.49999969612E+02 0.  0.
        -12    1    1    2    0    0  0.21972158200E+02  0.18455716399E+02 -0.13904403054E+02  0.31886072634E+02  0.00000000000E+00 0.  1.
         11    1    3    3    0    0 -0.13523465395E+02 -0.24407160993E+02 -0.49405418416E+01  0.28337300118E+02  0.51100000000E-03 0. -1.
        -11    1    3    3    0    0 -0.13988148845E+01  0.12668597018E+02  0.16674912464E+02  0.20988157123E+02  0.51100000000E-03 0.  1.
        -12    1    3    3    0    0 -0.70498779203E+01 -0.67171524250E+01  0.21700324320E+01  0.99764701246E+01  0.00000000000E+00 0.  1.
</event>
<event>
 7    1  0.1113211E-011  0.5930195E+02  0.7816164E-02  0.1266605E+00
        -11   -1    0    0    0    0  0.00000000000E+00  0.00000000000E+00  0.45593999997E+02  0.45594000000E+02  0.51100000000E-03 0.  1.
         11   -1    0    0    0    0 -0.00000000000E+00 -0.00000000000E+00 -0.45593999997E+02  0.45594000000E+02  0.51100000000E-03 0. -1.
    9900012    2    1    2    0    0  0.10240152596E+02 -0.27288264726E+02 -0.12930978050E+02  0.59301948029E+02  0.50000007298E+02 0.  0.
        -12    1    1    2    0    0 -0.10240152596E+02  0.27288264726E+02  0.12930978050E+02  0.31886051971E+02  0.00000000000E+00 0.  1.
         11    1    3    3    0    0  0.85352615219E+01 -0.11604483599E+02 -0.45574646636E+01  0.15109110274E+02  0.51100000000E-03 0. -1.
        -11    1    3    3    0    0 -0.18389045061E+02 -0.42154758573E+01  0.17330044055E+01  0.18945461713E+02  0.51100000000E-03 0.  1.
        -12    1    3    3    0    0  0.20093936136E+02 -0.11468305270E+02 -0.10106517791E+02  0.25247376043E+02  0.00000000000E+00 0.  1.
</event>
<event>
 7    1  0.1113211E-011  0.5930200E+02  0.7816164E-02  0.1266605E+00
        -11   -1    0    0    0    0  0.00000000000E+00  0.00000000000E+00  0.45593999997E+02  0.45594000000E+02  0.51100000000E-03 0.  1.
         11   -1    0    0    0    0 -0.00000000000E+00 -0.00000000000E+00 -0.45593999997E+02  0.45594000000E+02  0.51100000000E-03 0. -1.
    9900012    2    1    2    0    0  0.28219564524E+02  0.98643500311E+01  0.11093581864E+02  0.59302003355E+02  0.50000108199E+02 0.  0.
        -12    1    1    2    0    0 -0.28219564524E+02 -0.98643500311E+01 -0.11093581864E+02  0.31885996645E+02  0.00000000000E+00 0.  1.
         11    1    3    3    0    0  0.96189183690E+01 -0.14924474742E+01  0.22852139315E-01  0.97340388603E+01  0.51100000000E-03 0. -1.
        -11    1    3    3    0    0  0.17016970885E+02  0.25741277205E+02 -0.77384728970E+00  0.30867288351E+02  0.51100000000E-03 0.  1.
        -12    1    3    3    0    0  0.15836752700E+01 -0.14384479700E+02  0.11844577014E+02  0.18700676144E+02  0.00000000000E+00 0.  1.
</event>
<event>
 7    1  0.1113211E-011  0.5930189E+02  0.7816164E-02  0.1266605E+00
        -11   -1    0    0    0    0  0.00000000000E+00  0.00000000000E+00  0.45593999997E+02  0.45594000000E+02  0.51100000000E-03 0.  1.
         11   -1    0    0    0    0 -0.00000000000E+00 -0.00000000000E+00 -0.45593999997E+02  0.45594000000E+02  0.51100000000E-03 0. -1.
    9900012    2    1    2    0    0 -0.23815612795E+02  0.19609756116E+02 -0.80621565494E+01  0.59301885217E+02  0.49999892744E+02 0.  0.
        -12    1    1    2    0    0  0.23815612795E+02 -0.19609756116E+02  0.80621565494E+01  0.31886114783E+02  0.00000000000E+00 0.  1.
         11    1    3    3    0    0  0.63967456065E+01 -0.13771908934E+01 -0.10900927858E+02  0.12713978037E+02  0.51100000000E-03 0. -1.
        -11    1    3    3    0    0 -0.23278771905E+02  0.25889902184E+02  0.91602580851E+01  0.36001369209E+02  0.51100000000E-03 0.  1.
        -12    1    3    3    0    0 -0.69335864962E+01 -0.49029551743E+01 -0.63214867767E+01  0.10586537971E+02  0.00000000000E+00 0.  1.
</event>
<event>
 7    1  0.1113211E-011  0.5930195E+02  0.7816164E-02  0.1266605E+00
        -11   -1    0    0    0    0  0.00000000000E+00  0.00000000000E+00  0.45593999997E+02  0.45594000000E+02  0.51100000000E-03 0. -1.
         11   -1    0    0    0    0 -0.00000000000E+00 -0.00000000000E+00 -0.45593999997E+02  0.45594000000E+02  0.51100000000E-03 0.  1.
    9900012    2    1    2    0    0  0.12418361732E+02  0.97043086971E+01  0.27718776375E+02  0.59301954790E+02  0.50000019628E+02 0.  0.
        -12    1    1    2    0    0 -0.12418361732E+02 -0.97043086971E+01 -0.27718776375E+02  0.31886045210E+02  0.00000000000E+00 0.  1.
         11    1    3    3    0    0  0.23518816140E+02  0.23304931788E+02  0.14370195782E+02  0.36093726399E+02  0.51100000000E-03 0.  1.
        -11    1    3    3    0    0 -0.97151490760E+01 -0.71674347235E+01  0.10638345930E+02  0.16091322086E+02  0.51100000000E-03 0. -1.
        -12    1    3    3    0    0 -0.13853053320E+01 -0.64331883672E+01  0.27102346628E+01  0.71169063053E+01  0.00000000000E+00 0.  1.
</event>
<event>
 7    1  0.1113211E-011  0.5930194E+02  0.7816164E-02  0.1266605E+00
        -11   -1    0    0    0    0  0.00000000000E+00  0.00000000000E+00  0.45593999997E+02  0.45594000000E+02  0.51100000000E-03 0.  1.
         11   -1    0    0    0    0 -0.00000000000E+00 -0.00000000000E+00 -0.45593999997E+02  0.45594000000E+02  0.51100000000E-03 0. -1.
    9900012    2    1    2    0    0 -0.10750306742E+02  0.10653318711E+02 -0.28065253010E+02  0.59301941588E+02  0.49999995550E+02 0.  0.
        -12    1    1    2    0    0  0.10750306742E+02 -0.10653318711E+02  0.28065253010E+02  0.31886058412E+02  0.00000000000E+00 0.  1.
         11    1    3    3    0    0 -0.14314863947E+02  0.18363842894E+02 -0.24288766562E+02  0.33646548664E+02  0.51100000000E-03 0. -1.
        -11    1    3    3    0    0 -0.43356486339E+01 -0.47811003127E+01  0.85572302801E+01  0.10718346869E+02  0.51100000000E-03 0.  1.
        -12    1    3    3    0    0  0.79002058391E+01 -0.29294238703E+01 -0.12333716727E+02  0.14937046054E+02  0.00000000000E+00 0.  1.
</event>
<event>
 7    1  0.1113211E-011  0.5930192E+02  0.7816164E-02  0.1266605E+00
        -11   -1    0    0    0    0  0.00000000000E+00  0.00000000000E+00  0.45593999997E+02  0.45594000000E+02  0.51100000000E-03 0.  1.
         11   -1    0    0    0    0 -0.00000000000E+00 -0.00000000000E+00 -0.45593999997E+02  0.45594000000E+02  0.51100000000E-03 0. -1.
    9900012    2    1    2    0    0  0.16980435667E+02  0.20687598755E+02 -0.17332338756E+02  0.59301923031E+02  0.49999961707E+02 0.  0.
        -12    1    1    2    0    0 -0.16980435667E+02 -0.20687598755E+02  0.17332338756E+02  0.31886076969E+02  0.00000000000E+00 0.  1.
         11    1    3    3    0    0  0.16289203444E+02  0.30991575560E+02 -0.20878858159E+02  0.40764477463E+02  0.51100000000E-03 0. -1.
        -11    1    3    3    0    0 -0.12950471120E+01 -0.66410703827E+01  0.92583654692E+01  0.11467270568E+02  0.51100000000E-03 0.  1.
         12    1    3    3    0    0  0.19862793348E+01 -0.36629064218E+01 -0.57118460662E+01  0.70701750002E+01  0.00000000000E+00 0. -1.
</event>
<event>
 7    1  0.1113211E-011  0.5930195E+02  0.7816164E-02  0.1266605E+00
        -11   -1    0    0    0    0  0.00000000000E+00  0.00000000000E+00  0.45593999997E+02  0.45594000000E+02  0.51100000000E-03 0.  1.
         11   -1    0    0    0    0 -0.00000000000E+00 -0.00000000000E+00 -0.45593999997E+02  0.45594000000E+02  0.51100000000E-03 0. -1.
    9900012    2    1    2    0    0 -0.16147508676E+02  0.17602673191E+02 -0.21121647896E+02  0.59301950546E+02  0.50000011888E+02 0.  0.
        -12    1    1    2    0    0  0.16147508676E+02 -0.17602673191E+02  0.21121647896E+02  0.31886049454E+02  0.00000000000E+00 0.  1.
         11    1    3    3    0    0  0.12505339015E+02  0.33823100797E+01 -0.21484948520E+02  0.25088374569E+02  0.51100000000E-03 0. -1.
        -11    1    3    3    0    0 -0.25717715592E+02  0.85649825961E+01 -0.25131442695E+01  0.27222705900E+02  0.51100000000E-03 0.  1.
         12    1    3    3    0    0 -0.29351320987E+01  0.56553805149E+01  0.28764448935E+01  0.69908700767E+01  0.00000000000E+00 0. -1.
</event>
<event>
 7    1  0.1113211E-011  0.5930203E+02  0.7816164E-02  0.1266604E+00
        -11   -1    0    0    0    0  0.00000000000E+00  0.00000000000E+00  0.45593999997E+02  0.45594000000E+02  0.51100000000E-03 0. -1.
         11   -1    0    0    0    0 -0.00000000000E+00 -0.00000000000E+00 -0.45593999997E+02  0.45594000000E+02  0.51100000000E-03 0.  1.
    9900012    2    1    2    0    0 -0.77812412663E+01 -0.27115877584E+02  0.14862599606E+02  0.59302025030E+02  0.50000147728E+02 0.  0.
        -12    1    1    2    0    0  0.77812412663E+01  0.27115877584E+02 -0.14862599606E+02  0.31885974970E+02  0.00000000000E+00 0.  1.
         11    1    3    3    0    0 -0.10991847061E+02 -0.32493807915E+02  0.20583626040E+02  0.40004423703E+02  0.51100000000E-03 0. -1.
        -11    1    3    3    0    0  0.83952325832E+01  0.82584957154E+01 -0.62693693087E+01  0.13341202097E+02  0.51100000000E-03 0.  1.
         12    1    3    3    0    0 -0.51846267887E+01 -0.28805653840E+01  0.54834287485E+00  0.59563992292E+01  0.00000000000E+00 0. -1.
</event>
<event>
 7    1  0.1113211E-011  0.5930196E+02  0.7816164E-02  0.1266605E+00
        -11   -1    0    0    0    0  0.00000000000E+00  0.00000000000E+00  0.45593999997E+02  0.45594000000E+02  0.51100000000E-03 0.  1.
         11   -1    0    0    0    0 -0.00000000000E+00 -0.00000000000E+00 -0.45593999997E+02  0.45594000000E+02  0.51100000000E-03 0. -1.
    9900012    2    1    2    0    0 -0.57274486274E-01  0.30154157606E+02 -0.10365473513E+02  0.59301960070E+02  0.50000029257E+02 0.  0.
        -12    1    1    2    0    0  0.57274486274E-01 -0.30154157606E+02  0.10365473513E+02  0.31886039930E+02  0.00000000000E+00 0.  1.
         11    1    3    3    0    0  0.21212000524E+02  0.24078383344E+02 -0.84133607855E+01  0.33173817246E+02  0.51100000000E-03 0. -1.
        -11    1    3    3    0    0 -0.20005220038E+02  0.74284971970E+01  0.23263045807E+01  0.21466324619E+02  0.51100000000E-03 0.  1.
         12    1    3    3    0    0 -0.12640549720E+01 -0.13527229353E+01 -0.42784173084E+01  0.46618182050E+01  0.00000000000E+00 0. -1.
</event>
<event>
 7    1  0.1113211E-011  0.5930195E+02  0.7816164E-02  0.1266605E+00
        -11   -1    0    0    0    0  0.00000000000E+00  0.00000000000E+00  0.45593999997E+02  0.45594000000E+02  0.51100000000E-03 0.  1.
         11   -1    0    0    0    0 -0.00000000000E+00 -0.00000000000E+00 -0.45593999997E+02  0.45594000000E+02  0.51100000000E-03 0. -1.
    9900012    2    1    2    0    0 -0.90224470542E+01  0.11709387879E+02 -0.28252534299E+02  0.59301952743E+02  0.50000015895E+02 0.  0.
        -12    1    1    2    0    0  0.90224470542E+01 -0.11709387879E+02  0.28252534299E+02  0.31886047257E+02  0.00000000000E+00 0.  1.
         11    1    3    3    0    0 -0.11177738457E+02  0.11361679632E+02 -0.28638320195E+02  0.32774730890E+02  0.51100000000E-03 0. -1.
        -11    1    3    3    0    0 -0.56225830171E+01 -0.36374703840E+01  0.10938462467E+02  0.12825544510E+02  0.51100000000E-03 0.  1.
        -12    1    3    3    0    0  0.77778744194E+01  0.39851786309E+01 -0.10552676571E+02  0.13701677343E+02  0.00000000000E+00 0.  1.
</event>
<event>
 7    1  0.1113211E-011  0.5930194E+02  0.7816164E-02  0.1266605E+00
        -11   -1    0    0    0    0  0.00000000000E+00  0.00000000000E+00  0.45593999997E+02  0.45594000000E+02  0.51100000000E-03 0. -1.
         11   -1    0    0    0    0 -0.00000000000E+00 -0.00000000000E+00 -0.45593999997E+02  0.45594000000E+02  0.51100000000E-03 0.  1.
    9900012    2    1    2    0    0  0.79074636295E+01  0.30076593102E+02 -0.70421131587E+01  0.59301940485E+02  0.49999993539E+02 0.  0.
        -12    1    1    2    0    0 -0.79074636295E+01 -0.30076593102E+02  0.70421131587E+01  0.31886059515E+02  0.00000000000E+00 0.  1.
         11    1    3    3    0    0  0.18418494221E+02 -0.24817803759E+00 -0.13452854526E+02  0.22809686909E+02  0.51100000000E-03 0. -1.
        -11    1    3    3    0    0 -0.61147020482E+01  0.45453083774E+01  0.69821055618E+01  0.10334370214E+02  0.51100000000E-03 0.  1.
         12    1    3    3    0    0 -0.43963285433E+01  0.25779462762E+02 -0.57136419405E+00  0.26157883362E+02  0.00000000000E+00 0. -1.
</event>
<event>
 7    1  0.1113211E-011  0.5930196E+02  0.7816164E-02  0.1266605E+00
        -11   -1    0    0    0    0  0.00000000000E+00  0.00000000000E+00  0.45593999997E+02  0.45594000000E+02  0.51100000000E-03 0.  1.
         11   -1    0    0    0    0 -0.00000000000E+00 -0.00000000000E+00 -0.45593999997E+02  0.45594000000E+02  0.51100000000E-03 0. -1.
    9900012    2    1    2    0    0 -0.22543262524E+02  0.22341899091E+02  0.30594911818E+01  0.59301958751E+02  0.50000026852E+02 0.  0.
        -12    1    1    2    0    0  0.22543262524E+02 -0.22341899091E+02 -0.30594911818E+01  0.31886041249E+02  0.00000000000E+00 0.  1.
         11    1    3    3    0    0 -0.31306758365E+02  0.16708288983E+02  0.48829768383E+01  0.35820713325E+02  0.51100000000E-03 0. -1.
        -11    1    3    3    0    0  0.82411775705E+01 -0.68405739252E+01 -0.24259370647E+01  0.10981604176E+02  0.51100000000E-03 0.  1.
         12    1    3    3    0    0  0.52231827098E+00  0.12474184034E+02  0.60245140818E+00  0.12499641250E+02  0.00000000000E+00 0. -1.
</event>
<event>
 7    1  0.1113211E-011  0.5930194E+02  0.7816164E-02  0.1266605E+00
        -11   -1    0    0    0    0  0.00000000000E+00  0.00000000000E+00  0.45593999997E+02  0.45594000000E+02  0.51100000000E-03 0. -1.
         11   -1    0    0    0    0 -0.00000000000E+00 -0.00000000000E+00 -0.45593999997E+02  0.45594000000E+02  0.51100000000E-03 0.  1.
    9900012    2    1    2    0    0 -0.43174999420E+01 -0.46314279778E+00  0.31589011108E+02  0.59301938315E+02  0.49999989581E+02 0.  0.
        -12    1    1    2    0    0  0.43174999420E+01  0.46314279778E+00 -0.31589011108E+02  0.31886061685E+02  0.00000000000E+00 0.  1.
         11    1    3    3    0    0 -0.96379772825E+01 -0.11130814283E+02 -0.46654212154E+00  0.14731031685E+02  0.51100000000E-03 0. -1.
        -11    1    3    3    0    0  0.11134000439E+02 -0.21880921744E+01  0.27492771255E+02  0.29742329846E+02  0.51100000000E-03 0.  1.
        -12    1    3    3    0    0 -0.58135230985E+01  0.12855763660E+02  0.45627819750E+01  0.14828576784E+02  0.00000000000E+00 0.  1.
</event>
<event>
 7    1  0.1113211E-011  0.5930194E+02  0.7816164E-02  0.1266605E+00
        -11   -1    0    0    0    0  0.00000000000E+00  0.00000000000E+00  0.45593999997E+02  0.45594000000E+02  0.51100000000E-03 0.  1.
         11   -1    0    0    0    0 -0.00000000000E+00 -0.00000000000E+00 -0.45593999997E+02  0.45594000000E+02  0.51100000000E-03 0. -1.
    9900012    2    1    2    0    0 -0.62393394289E+01 -0.40969855602E+01 -0.31000095632E+02  0.59301943857E+02  0.49999999688E+02 0.  0.
        -12    1    1    2    0    0  0.62393394289E+01  0.40969855602E+01  0.31000095632E+02  0.31886056143E+02  0.00000000000E+00 0.  1.
         11    1    3    3    0    0 -0.10672189332E+02  0.15298581710E+02 -0.15757996545E+02  0.24418367736E+02  0.51100000000E-03 0. -1.
        -11    1    3    3    0    0  0.11323966112E+02 -0.28637024853E+01 -0.50840447966E+00  0.11691512982E+02  0.51100000000E-03 0.  1.
         12    1    3    3    0    0 -0.68911162085E+01 -0.16531864785E+02 -0.14733694607E+02  0.23192063139E+02  0.00000000000E+00 0. -1.
</event>
<event>
 7    1  0.1113211E-011  0.5930195E+02  0.7816164E-02  0.1266605E+00
        -11   -1    0    0    0    0  0.00000000000E+00  0.00000000000E+00  0.45593999997E+02  0.45594000000E+02  0.51100000000E-03 0.  1.
         11   -1    0    0    0    0 -0.00000000000E+00 -0.00000000000E+00 -0.45593999997E+02  0.45594000000E+02  0.51100000000E-03 0. -1.
    9900012    2    1    2    0    0 -0.26297976886E+02 -0.18025331675E+02  0.47299884033E+00  0.59301954492E+02  0.50000019084E+02 0.  0.
        -12    1    1    2    0    0  0.26297976886E+02  0.18025331675E+02 -0.47299884033E+00  0.31886045508E+02  0.00000000000E+00 0.  1.
         11    1    3    3    0    0 -0.17275909389E+01  0.57973167724E+01  0.15178147165E+02  0.16339204504E+02  0.51100000000E-03 0. -1.
        -11    1    3    3    0    0  0.64795297260E+00 -0.46899290156E+01 -0.98620420481E+01  0.10939613834E+02  0.51100000000E-03 0.  1.
         12    1    3    3    0    0 -0.25218338919E+02 -0.19132719432E+02 -0.48431062761E+01  0.32023136153E+02  0.00000000000E+00 0. -1.
</event>
<event>
 7    1  0.1113211E-011  0.5930191E+02  0.7816164E-02  0.1266605E+00
        -11   -1    0    0    0    0  0.00000000000E+00  0.00000000000E+00  0.45593999997E+02  0.45594000000E+02  0.51100000000E-03 0. -1.
         11   -1    0    0    0    0 -0.00000000000E+00 -0.00000000000E+00 -0.45593999997E+02  0.45594000000E+02  0.51100000000E-03 0.  1.
    9900012    2    1    2    0    0  0.19596798542E+02  0.71578423453E+01  0.24113348288E+02  0.59301909211E+02  0.49999936503E+02 0.  0.
        -12    1    1    2    0    0 -0.19596798542E+02 -0.71578423453E+01 -0.24113348288E+02  0.31886090789E+02  0.00000000000E+00 0.  1.
         11    1    3    3    0    0  0.26578901105E+02  0.14263388619E+02  0.18411256850E+02  0.35339165495E+02  0.51100000000E-03 0. -1.
        -11    1    3    3    0    0 -0.10986586875E+02  0.69818722441E+00  0.93690629930E+01  0.14455860341E+02  0.51100000000E-03 0.  1.
         12    1    3    3    0    0  0.40044843125E+01 -0.78037334981E+01 -0.36669715546E+01  0.95068833748E+01  0.00000000000E+00 0. -1.
</event>
<event>
 7    1  0.1113211E-011  0.5930194E+02  0.7816164E-02  0.1266605E+00
        -11   -1    0    0    0    0  0.00000000000E+00  0.00000000000E+00  0.45593999997E+02  0.45594000000E+02  0.51100000000E-03 0.  1.
         11   -1    0    0    0    0 -0.00000000000E+00 -0.00000000000E+00 -0.45593999997E+02  0.45594000000E+02  0.51100000000E-03 0. -1.
    9900012    2    1    2    0    0 -0.29354786275E+02 -0.31305769993E+01  0.12050598234E+02  0.59301938666E+02  0.49999990222E+02 0.  0.
        -12    1    1    2    0    0  0.29354786275E+02  0.31305769993E+01 -0.12050598234E+02  0.31886061334E+02  0.00000000000E+00 0.  1.
         11    1    3    3    0    0 -0.40343016110E+02 -0.54125363696E+01  0.16704774180E+02  0.43998908844E+02  0.51100000000E-03 0.  1.
        -11    1    3    3    0    0  0.62669068723E+01  0.48741395122E+01 -0.57548544459E+01  0.98055957333E+01  0.51100000000E-03 0. -1.
        -12    1    3    3    0    0  0.47213229625E+01 -0.25921801419E+01  0.11006784999E+01  0.54974340891E+01  0.00000000000E+00 0.  1.
</event>
<event>
 7    1  0.1113211E-011  0.5930195E+02  0.7816164E-02  0.1266605E+00
        -11   -1    0    0    0    0  0.00000000000E+00  0.00000000000E+00  0.45593999997E+02  0.45594000000E+02  0.51100000000E-03 0. -1.
         11   -1    0    0    0    0 -0.00000000000E+00 -0.00000000000E+00 -0.45593999997E+02  0.45594000000E+02  0.51100000000E-03 0.  1.
    9900012    2    1    2    0    0 -0.31579354916E+02  0.19538188476E+01  0.39556058022E+01  0.59301954741E+02  0.50000019539E+02 0.  0.
        -12    1    1    2    0    0  0.31579354916E+02 -0.19538188476E+01 -0.39556058022E+01  0.31886045259E+02  0.00000000000E+00 0.  1.
         11    1    3    3    0    0 -0.24579419215E+02  0.52389573608E+00  0.13096921303E+02  0.27855908953E+02  0.51100000000E-03 0. -1.
        -11    1    3    3    0    0 -0.72343651388E+01  0.10947858022E+02 -0.15261945455E+02  0.20127558560E+02  0.51100000000E-03 0.  1.
        -12    1    3    3    0    0  0.23442943794E+00 -0.95179349102E+01  0.61206299542E+01  0.11318487229E+02  0.00000000000E+00 0.  1.
</event>
<event>
 7    1  0.1113211E-011  0.5930194E+02  0.7816164E-02  0.1266605E+00
        -11   -1    0    0    0    0  0.00000000000E+00  0.00000000000E+00  0.45593999997E+02  0.45594000000E+02  0.51100000000E-03 0.  1.
         11   -1    0    0    0    0 -0.00000000000E+00 -0.00000000000E+00 -0.45593999997E+02  0.45594000000E+02  0.51100000000E-03 0. -1.
    9900012    2    1    2    0    0  0.27307855904E+02 -0.16362608691E+02 -0.18075321841E+01  0.59301935178E+02  0.49999983859E+02 0.  0.
        -12    1    1    2    0    0 -0.27307855904E+02  0.16362608691E+02  0.18075321841E+01  0.31886064822E+02  0.00000000000E+00 0.  1.
         11    1    3    3    0    0 -0.43856097722E+01 -0.22431130989E+02 -0.69574212980E+01  0.23891314780E+02  0.51100000000E-03 0. -1.
        -11    1    3    3    0    0  0.98348708044E+00  0.31604928493E+01  0.30351008449E+01  0.44908572998E+01  0.51100000000E-03 0.  1.
         12    1    3    3    0    0  0.30709978596E+02  0.29080294482E+01  0.21147882690E+01  0.30919763098E+02  0.00000000000E+00 0. -1.
</event>
<event>
 7    1  0.1113211E-011  0.5930198E+02  0.7816164E-02  0.1266605E+00
        -11   -1    0    0    0    0  0.00000000000E+00  0.00000000000E+00  0.45593999997E+02  0.45594000000E+02  0.51100000000E-03 0.  1.
         11   -1    0    0    0    0 -0.00000000000E+00 -0.00000000000E+00 -0.45593999997E+02  0.45594000000E+02  0.51100000000E-03 0. -1.
    9900012    2    1    2    0    0  0.19705825548E+02  0.25066974524E+02 -0.21284946976E+00  0.59301983046E+02  0.50000071159E+02 0.  0.
        -12    1    1    2    0    0 -0.19705825548E+02 -0.25066974524E+02  0.21284946976E+00  0.31886016954E+02  0.00000000000E+00 0.  1.
         11    1    3    3    0    0  0.15855399696E+02  0.89566308787E+01 -0.16132957191E+02  0.24328732894E+02  0.51100000000E-03 0. -1.
        -11    1    3    3    0    0  0.71489776307E+01  0.20631309627E+02  0.18678456765E+02  0.28734014085E+02  0.51100000000E-03 0.  1.
        -12    1    3    3    0    0 -0.32985517787E+01 -0.45209659821E+01 -0.27583490430E+01  0.62392360663E+01  0.00000000000E+00 0.  1.
</event>
<event>
 7    1  0.1113211E-011  0.5930191E+02  0.7816164E-02  0.1266605E+00
        -11   -1    0    0    0    0  0.00000000000E+00  0.00000000000E+00  0.45593999997E+02  0.45594000000E+02  0.51100000000E-03 0.  1.
         11   -1    0    0    0    0 -0.00000000000E+00 -0.00000000000E+00 -0.45593999997E+02  0.45594000000E+02  0.51100000000E-03 0. -1.
    9900012    2    1    2    0    0  0.31885962888E+02  0.86600942062E-01  0.17615709360E-01  0.59301914644E+02  0.49999946411E+02 0.  0.
        -12    1    1    2    0    0 -0.31885962888E+02 -0.86600942062E-01 -0.17615709360E-01  0.31886085356E+02  0.00000000000E+00 0.  1.
         11    1    3    3    0    0  0.32862745544E+02  0.64390109429E+01 -0.66126072404E-01  0.33487688477E+02  0.51100000000E-03 0. -1.
        -11    1    3    3    0    0 -0.12384562403E+02  0.69446660683E+00 -0.87810801492E-01  0.12404329114E+02  0.51100000000E-03 0.  1.
         12    1    3    3    0    0  0.11407779747E+02 -0.70468766076E+01  0.17155258326E+00  0.13409897053E+02  0.00000000000E+00 0. -1.
</event>
<event>
 7    1  0.1113211E-011  0.5930196E+02  0.7816164E-02  0.1266605E+00
        -11   -1    0    0    0    0  0.00000000000E+00  0.00000000000E+00  0.45593999997E+02  0.45594000000E+02  0.51100000000E-03 0.  1.
         11   -1    0    0    0    0 -0.00000000000E+00 -0.00000000000E+00 -0.45593999997E+02  0.45594000000E+02  0.51100000000E-03 0. -1.
    9900012    2    1    2    0    0 -0.74207637529E+01 -0.28537185426E+02 -0.12135932961E+02  0.59301959864E+02  0.50000028882E+02 0.  0.
        -12    1    1    2    0    0  0.74207637529E+01  0.28537185426E+02  0.12135932961E+02  0.31886040136E+02  0.00000000000E+00 0.  1.
         11    1    3    3    0    0  0.71350218037E+01 -0.10263772479E+02 -0.11223529250E+02  0.16799439596E+02  0.51100000000E-03 0. -1.
        -11    1    3    3    0    0 -0.24421997829E+02 -0.64464726032E+01  0.54473948328E+01  0.25839216275E+02  0.51100000000E-03 0.  1.
        -12    1    3    3    0    0  0.98662122721E+01 -0.11826940343E+02 -0.63597985434E+01  0.16663303994E+02  0.00000000000E+00 0.  1.
</event>
<event>
 7    1  0.1113211E-011  0.5930194E+02  0.7816164E-02  0.1266605E+00
        -11   -1    0    0    0    0  0.00000000000E+00  0.00000000000E+00  0.45593999997E+02  0.45594000000E+02  0.51100000000E-03 0. -1.
         11   -1    0    0    0    0 -0.00000000000E+00 -0.00000000000E+00 -0.45593999997E+02  0.45594000000E+02  0.51100000000E-03 0.  1.
    9900012    2    1    2    0    0  0.27834082104E+02 -0.30664146901E+01  0.15250636181E+02  0.59301938319E+02  0.49999989588E+02 0.  0.
        -12    1    1    2    0    0 -0.27834082104E+02  0.30664146901E+01 -0.15250636181E+02  0.31886061681E+02  0.00000000000E+00 0.  1.
         11    1    3    3    0    0 -0.47271516134E+01  0.99985985462E+01  0.88277922944E+01  0.14150895813E+02  0.51100000000E-03 0. -1.
        -11    1    3    3    0    0  0.25803513915E+02  0.41700923090E+01  0.47113676414E+01  0.26559517796E+02  0.51100000000E-03 0.  1.
        -12    1    3    3    0    0  0.67577198027E+01 -0.17235105545E+02  0.17114762447E+01  0.18591524710E+02  0.00000000000E+00 0.  1.
</event>
<event>
 7    1  0.1113211E-011  0.5930196E+02  0.7816164E-02  0.1266605E+00
        -11   -1    0    0    0    0  0.00000000000E+00  0.00000000000E+00  0.45593999997E+02  0.45594000000E+02  0.51100000000E-03 0.  1.
         11   -1    0    0    0    0 -0.00000000000E+00 -0.00000000000E+00 -0.45593999997E+02  0.45594000000E+02  0.51100000000E-03 0. -1.
    9900012    2    1    2    0    0 -0.29653074711E+02  0.77741421883E+01  0.87736697722E+01  0.59301962181E+02  0.50000033106E+02 0.  0.
        -12    1    1    2    0    0  0.29653074711E+02 -0.77741421883E+01 -0.87736697722E+01  0.31886037819E+02  0.00000000000E+00 0.  1.
         11    1    3    3    0    0  0.34418794765E+00 -0.48749976681E+01 -0.10228891101E+02  0.11336413941E+02  0.51100000000E-03 0. -1.
        -11    1    3    3    0    0 -0.38051653331E+01  0.53691144381E+01  0.19701542916E+02  0.20771554266E+02  0.51100000000E-03 0.  1.
        -12    1    3    3    0    0 -0.26192097325E+02  0.72800254183E+01 -0.69898204278E+00  0.27193993974E+02  0.00000000000E+00 0.  1.
</event>
<event>
 7    1  0.1113211E-011  0.5930185E+02  0.7816164E-02  0.1266605E+00
        -11   -1    0    0    0    0  0.00000000000E+00  0.00000000000E+00  0.45593999997E+02  0.45594000000E+02  0.51100000000E-03 0. -1.
         11   -1    0    0    0    0 -0.00000000000E+00 -0.00000000000E+00 -0.45593999997E+02  0.45594000000E+02  0.51100000000E-03 0.  1.
    9900012    2    1    2    0    0  0.26374638646E+02  0.12840722044E+02  0.12498828245E+02  0.59301852321E+02  0.49999832748E+02 0.  0.
        -12    1    1    2    0    0 -0.26374638646E+02 -0.12840722044E+02 -0.12498828245E+02  0.31886147679E+02  0.00000000000E+00 0.  1.
         11    1    3    3    0    0  0.18899237571E+02  0.10168186765E+02  0.97095202811E+01  0.23555211466E+02  0.51100000000E-03 0. -1.
        -11    1    3    3    0    0 -0.82206476276E+01  0.10558145320E+02 -0.75499348095E+01  0.15364081356E+02  0.51100000000E-03 0.  1.
        -12    1    3    3    0    0  0.15696048702E+02 -0.78856100413E+01  0.10339242774E+02  0.20382559499E+02  0.00000000000E+00 0.  1.
</event>
<event>
 7    1  0.1113211E-011  0.5930194E+02  0.7816164E-02  0.1266605E+00
        -11   -1    0    0    0    0  0.00000000000E+00  0.00000000000E+00  0.45593999997E+02  0.45594000000E+02  0.51100000000E-03 0. -1.
         11   -1    0    0    0    0 -0.00000000000E+00 -0.00000000000E+00 -0.45593999997E+02  0.45594000000E+02  0.51100000000E-03 0.  1.
    9900012    2    1    2    0    0 -0.70926803687E+00 -0.13758493702E+02  0.28756249067E+02  0.59301936108E+02  0.49999985556E+02 0.  0.
        -12    1    1    2    0    0  0.70926803687E+00  0.13758493702E+02 -0.28756249067E+02  0.31886063892E+02  0.00000000000E+00 0.  1.
         11    1    3    3    0    0  0.81766037532E+01  0.13439743921E+02  0.45398517865E+01  0.16373570781E+02  0.51100000000E-03 0.  1.
        -11    1    3    3    0    0 -0.13963500914E+02 -0.95474802797E+01  0.95553702963E+01  0.19427785237E+02  0.51100000000E-03 0. -1.
         12    1    3    3    0    0  0.50776291241E+01 -0.17650757343E+02  0.14661026985E+02  0.23500580090E+02  0.00000000000E+00 0. -1.
</event>
<event>
 7    1  0.1113211E-011  0.5930192E+02  0.7816164E-02  0.1266605E+00
        -11   -1    0    0    0    0  0.00000000000E+00  0.00000000000E+00  0.45593999997E+02  0.45594000000E+02  0.51100000000E-03 0. -1.
         11   -1    0    0    0    0 -0.00000000000E+00 -0.00000000000E+00 -0.45593999997E+02  0.45594000000E+02  0.51100000000E-03 0.  1.
    9900012    2    1    2    0    0  0.48683997941E+00 -0.20215198074E+02  0.24654230050E+02  0.59301916740E+02  0.49999950233E+02 0.  0.
        -12    1    1    2    0    0 -0.48683997941E+00  0.20215198074E+02 -0.24654230050E+02  0.31886083260E+02  0.00000000000E+00 0.  1.
         11    1    3    3    0    0  0.52258569450E+01  0.87735805671E+01  0.21007849962E+02  0.23358404420E+02  0.51100000000E-03 0. -1.
        -11    1    3    3    0    0  0.20380513929E+01 -0.24086673836E+02  0.92430301412E+01  0.25879627440E+02  0.51100000000E-03 0.  1.
         12    1    3    3    0    0 -0.67770683585E+01 -0.49021048053E+01 -0.55966500532E+01  0.10063884880E+02  0.00000000000E+00 0. -1.
</event>
<event>
 7    1  0.1113211E-011  0.5930196E+02  0.7816164E-02  0.1266605E+00
        -11   -1    0    0    0    0  0.00000000000E+00  0.00000000000E+00  0.45593999997E+02  0.45594000000E+02  0.51100000000E-03 0. -1.
         11   -1    0    0    0    0 -0.00000000000E+00 -0.00000000000E+00 -0.45593999997E+02  0.45594000000E+02  0.51100000000E-03 0.  1.
    9900012    2    1    2    0    0  0.26144294124E+02 -0.34419418481E+01  0.17926197151E+02  0.59301958803E+02  0.50000026947E+02 0.  0.
        -12    1    1    2    0    0 -0.26144294124E+02  0.34419418481E+01 -0.17926197151E+02  0.31886041197E+02  0.00000000000E+00 0.  1.
         11    1    3    3    0    0  0.67834674299E+01  0.69476453348E+01 -0.93800782495E+01  0.13500780507E+02  0.51100000000E-03 0.  1.
        -11    1    3    3    0    0  0.22599981812E+02 -0.17442594598E+02  0.18290694757E+02  0.33905055658E+02  0.51100000000E-03 0. -1.
        -12    1    3    3    0    0 -0.32391551182E+01  0.70530074152E+01  0.90155806437E+01  0.11896122638E+02  0.00000000000E+00 0.  1.
</event>
<event>
 7    1  0.1113211E-011  0.5930177E+02  0.7816164E-02  0.1266605E+00
        -11   -1    0    0    0    0  0.00000000000E+00  0.00000000000E+00  0.45593999997E+02  0.45594000000E+02  0.51100000000E-03 0.  1.
         11   -1    0    0    0    0 -0.00000000000E+00 -0.00000000000E+00 -0.45593999997E+02  0.45594000000E+02  0.51100000000E-03 0. -1.
    9900012    2    1    2    0    0 -0.25030844425E+02  0.88761163466E+01 -0.17646620757E+02  0.59301767263E+02  0.49999677622E+02 0.  0.
        -12    1    1    2    0    0  0.25030844425E+02 -0.88761163466E+01  0.17646620757E+02  0.31886232737E+02  0.00000000000E+00 0.  1.
         11    1    3    3    0    0 -0.30066948744E+01 -0.10474916971E+02  0.68241695792E+01  0.12858203231E+02  0.51100000000E-03 0. -1.
        -11    1    3    3    0    0 -0.18622819732E+02  0.36263232324E+01 -0.23670015178E+02  0.30335280677E+02  0.51100000000E-03 0.  1.
        -12    1    3    3    0    0 -0.34013298186E+01  0.15724710085E+02 -0.80077515860E+00  0.16108283355E+02  0.00000000000E+00 0.  1.
</event>
<event>
 7    1  0.1113211E-011  0.5930189E+02  0.7816164E-02  0.1266605E+00
        -11   -1    0    0    0    0  0.00000000000E+00  0.00000000000E+00  0.45593999997E+02  0.45594000000E+02  0.51100000000E-03 0. -1.
         11   -1    0    0    0    0 -0.00000000000E+00 -0.00000000000E+00 -0.45593999997E+02  0.45594000000E+02  0.51100000000E-03 0.  1.
    9900012    2    1    2    0    0 -0.22648276396E+02 -0.22394672211E+02  0.15027671064E+01  0.59301888977E+02  0.49999899601E+02 0.  0.
        -12    1    1    2    0    0  0.22648276396E+02  0.22394672211E+02 -0.15027671064E+01  0.31886111023E+02  0.00000000000E+00 0.  1.
         11    1    3    3    0    0  0.12511159483E+02 -0.22175288822E+01 -0.15133499244E+01  0.12795967107E+02  0.51100000000E-03 0. -1.
        -11    1    3    3    0    0 -0.11401532373E+02 -0.18338235853E+02 -0.33238413572E+01  0.21847969157E+02  0.51100000000E-03 0.  1.
         12    1    3    3    0    0 -0.23757903505E+02 -0.18389074763E+01  0.63399583880E+01  0.24657952714E+02  0.00000000000E+00 0. -1.
</event>
<event>
 7    1  0.1113211E-011  0.5930192E+02  0.7816164E-02  0.1266605E+00
        -11   -1    0    0    0    0  0.00000000000E+00  0.00000000000E+00  0.45593999997E+02  0.45594000000E+02  0.51100000000E-03 0.  1.
         11   -1    0    0    0    0 -0.00000000000E+00 -0.00000000000E+00 -0.45593999997E+02  0.45594000000E+02  0.51100000000E-03 0. -1.
    9900012    2    1    2    0    0 -0.12450592887E+02  0.26819946447E+02  0.11932944445E+02  0.59301922258E+02  0.49999960297E+02 0.  0.
        -12    1    1    2    0    0  0.12450592887E+02 -0.26819946447E+02 -0.11932944445E+02  0.31886077742E+02  0.00000000000E+00 0.  1.
         11    1    3    3    0    0  0.14378044781E+02 -0.16663970018E+01 -0.14505902903E+01  0.14546795632E+02  0.51100000000E-03 0. -1.
        -11    1    3    3    0    0 -0.23407549036E+02  0.25019820040E+02  0.44098068534E+01  0.34544914871E+02  0.51100000000E-03 0.  1.
        -12    1    3    3    0    0 -0.34210886327E+01  0.34665234086E+01  0.89737278822E+01  0.10210211755E+02  0.00000000000E+00 0.  1.
</event>
<event>
 7    1  0.1113211E-011  0.5930195E+02  0.7816164E-02  0.1266605E+00
        -11   -1    0    0    0    0  0.00000000000E+00  0.00000000000E+00  0.45593999997E+02  0.45594000000E+02  0.51100000000E-03 0.  1.
         11   -1    0    0    0    0 -0.00000000000E+00 -0.00000000000E+00 -0.45593999997E+02  0.45594000000E+02  0.51100000000E-03 0. -1.
    9900012    2    1    2    0    0 -0.29644692293E+02 -0.51593236081E+01 -0.10549593848E+02  0.59301947695E+02  0.50000006688E+02 0.  0.
        -12    1    1    2    0    0  0.29644692293E+02  0.51593236081E+01  0.10549593848E+02  0.31886052305E+02  0.00000000000E+00 0.  1.
         11    1    3    3    0    0  0.18849222201E+01 -0.31557474959E+01 -0.16525972471E+02  0.16929838759E+02  0.51100000000E-03 0. -1.
        -11    1    3    3    0    0 -0.23065854046E+02 -0.13363640400E+02 -0.79774569782E+00  0.26669400183E+02  0.51100000000E-03 0.  1.
         12    1    3    3    0    0 -0.84637604666E+01  0.11360064288E+02  0.67741243208E+01  0.15702708753E+02  0.00000000000E+00 0. -1.
</event>
<event>
 7    1  0.1113211E-011  0.5930194E+02  0.7816164E-02  0.1266605E+00
        -11   -1    0    0    0    0  0.00000000000E+00  0.00000000000E+00  0.45593999997E+02  0.45594000000E+02  0.51100000000E-03 0.  1.
         11   -1    0    0    0    0 -0.00000000000E+00 -0.00000000000E+00 -0.45593999997E+02  0.45594000000E+02  0.51100000000E-03 0. -1.
    9900012    2    1    2    0    0 -0.94902891988E+01 -0.16119109594E+02 -0.25823044150E+02  0.59301938902E+02  0.49999990652E+02 0.  0.
        -12    1    1    2    0    0  0.94902891988E+01  0.16119109594E+02  0.25823044150E+02  0.31886061098E+02  0.00000000000E+00 0.  1.
         11    1    3    3    0    0 -0.21775461020E+02 -0.19614957668E+02 -0.21855791638E+02  0.36559443313E+02  0.51100000000E-03 0. -1.
        -11    1    3    3    0    0  0.62849425592E+01 -0.31888917285E+01  0.60495269964E+01  0.92879659006E+01  0.51100000000E-03 0.  1.
         12    1    3    3    0    0  0.60002292619E+01  0.66847398027E+01 -0.10016779508E+02  0.13454529689E+02  0.00000000000E+00 0. -1.
</event>
<event>
 7    1  0.1113211E-011  0.5930194E+02  0.7816164E-02  0.1266605E+00
        -11   -1    0    0    0    0  0.00000000000E+00  0.00000000000E+00  0.45593999997E+02  0.45594000000E+02  0.51100000000E-03 0.  1.
         11   -1    0    0    0    0 -0.00000000000E+00 -0.00000000000E+00 -0.45593999997E+02  0.45594000000E+02  0.51100000000E-03 0. -1.
    9900012    2    1    2    0    0 -0.76799494548E+00 -0.29292551965E+02  0.12572879520E+02  0.59301941663E+02  0.49999995687E+02 0.  0.
        -12    1    1    2    0    0  0.76799494548E+00  0.29292551965E+02 -0.12572879520E+02  0.31886058337E+02  0.00000000000E+00 0.  1.
         11    1    3    3    0    0  0.87172676586E-01 -0.13687751925E+02 -0.13666614388E+02  0.19342660131E+02  0.51100000000E-03 0. -1.
        -11    1    3    3    0    0  0.87845604023E+01  0.11744619904E+01  0.15428732236E+02  0.17793078461E+02  0.51100000000E-03 0.  1.
         12    1    3    3    0    0 -0.96397280244E+01 -0.16779262030E+02  0.10810761672E+02  0.22166203071E+02  0.00000000000E+00 0. -1.
</event>
<event>
 7    1  0.1113211E-011  0.5930195E+02  0.7816164E-02  0.1266605E+00
        -11   -1    0    0    0    0  0.00000000000E+00  0.00000000000E+00  0.45593999997E+02  0.45594000000E+02  0.51100000000E-03 0.  1.
         11   -1    0    0    0    0 -0.00000000000E+00 -0.00000000000E+00 -0.45593999997E+02  0.45594000000E+02  0.51100000000E-03 0. -1.
    9900012    2    1    2    0    0 -0.20088215152E+02 -0.65889694660E+01 -0.23869845060E+02  0.59301946469E+02  0.50000004452E+02 0.  0.
        -12    1    1    2    0    0  0.20088215152E+02  0.65889694660E+01  0.23869845060E+02  0.31886053531E+02  0.00000000000E+00 0.  1.
         11    1    3    3    0    0 -0.32591714940E+02 -0.30043817670E+01 -0.24294943926E+01  0.32819942654E+02  0.51100000000E-03 0.  1.
        -11    1    3    3    0    0  0.49530056484E+01 -0.15684356742E+01 -0.16349371915E+02  0.17155005616E+02  0.51100000000E-03 0. -1.
        -12    1    3    3    0    0  0.75504941395E+01 -0.20161520247E+01 -0.50909787524E+01  0.93269981985E+01  0.00000000000E+00 0.  1.
</event>
<event>
 7    1  0.1113211E-011  0.5930192E+02  0.7816164E-02  0.1266605E+00
        -11   -1    0    0    0    0  0.00000000000E+00  0.00000000000E+00  0.45593999997E+02  0.45594000000E+02  0.51100000000E-03 0.  1.
         11   -1    0    0    0    0 -0.00000000000E+00 -0.00000000000E+00 -0.45593999997E+02  0.45594000000E+02  0.51100000000E-03 0. -1.
    9900012    2    1    2    0    0  0.17594027188E+02  0.11703397903E+01 -0.26566944968E+02  0.59301920704E+02  0.49999957463E+02 0.  0.
        -12    1    1    2    0    0 -0.17594027188E+02 -0.11703397903E+01  0.26566944968E+02  0.31886079296E+02  0.00000000000E+00 0.  1.
         11    1    3    3    0    0  0.39638212252E+01 -0.11970719426E+02 -0.26677613683E+01  0.12889024527E+02  0.51100000000E-03 0. -1.
        -11    1    3    3    0    0 -0.22835638546E+01  0.21367834843E+02 -0.16211335170E+02  0.26918514409E+02  0.51100000000E-03 0.  1.
        -12    1    3    3    0    0  0.15913769817E+02 -0.82267756269E+01 -0.76878484303E+01  0.19494381768E+02  0.00000000000E+00 0.  1.
</event>
<event>
 7    1  0.1113211E-011  0.5930195E+02  0.7816164E-02  0.1266605E+00
        -11   -1    0    0    0    0  0.00000000000E+00  0.00000000000E+00  0.45593999997E+02  0.45594000000E+02  0.51100000000E-03 0.  1.
         11   -1    0    0    0    0 -0.00000000000E+00 -0.00000000000E+00 -0.45593999997E+02  0.45594000000E+02  0.51100000000E-03 0. -1.
    9900012    2    1    2    0    0 -0.10740890828E+02  0.29714513982E+02 -0.42896233237E+01  0.59301953754E+02  0.50000017738E+02 0.  0.
        -12    1    1    2    0    0  0.10740890828E+02 -0.29714513982E+02  0.42896233237E+01  0.31886046246E+02  0.00000000000E+00 0.  1.
         11    1    3    3    0    0  0.67174679162E+01  0.14921033858E+02  0.13199565617E+02  0.21023562004E+02  0.51100000000E-03 0. -1.
        -11    1    3    3    0    0 -0.22679615512E+02  0.54453532160E+01 -0.12558391012E+02  0.26490187173E+02  0.51100000000E-03 0.  1.
         12    1    3    3    0    0  0.52212567678E+01  0.93481269079E+01 -0.49307979287E+01  0.11788204576E+02  0.00000000000E+00 0. -1.
</event>
<event>
 7    1  0.1113211E-011  0.5930194E+02  0.7816164E-02  0.1266605E+00
        -11   -1    0    0    0    0  0.00000000000E+00  0.00000000000E+00  0.45593999997E+02  0.45594000000E+02  0.51100000000E-03 0.  1.
         11   -1    0    0    0    0 -0.00000000000E+00 -0.00000000000E+00 -0.45593999997E+02  0.45594000000E+02  0.51100000000E-03 0. -1.
    9900012    2    1    2    0    0  0.24188820943E+02  0.10451195109E+02 -0.17955339847E+02  0.59301940871E+02  0.49999994242E+02 0.  0.
        -12    1    1    2    0    0 -0.24188820943E+02 -0.10451195109E+02  0.17955339847E+02  0.31886059129E+02  0.00000000000E+00 0.  1.
         11    1    3    3    0    0  0.51169141376E+01  0.23688291755E+02  0.49491137684E+01  0.24734827752E+02  0.51100000000E-03 0. -1.
        -11    1    3    3    0    0  0.71678392909E-01 -0.49230410653E+01 -0.27115107579E+01  0.56208328541E+01  0.51100000000E-03 0.  1.
         12    1    3    3    0    0  0.19000228412E+02 -0.83140555810E+01 -0.20192942857E+02  0.28946280264E+02  0.00000000000E+00 0. -1.
</event>
<event>
 7    1  0.1113211E-011  0.5930193E+02  0.7816164E-02  0.1266605E+00
        -11   -1    0    0    0    0  0.00000000000E+00  0.00000000000E+00  0.45593999997E+02  0.45594000000E+02  0.51100000000E-03 0. -1.
         11   -1    0    0    0    0 -0.00000000000E+00 -0.00000000000E+00 -0.45593999997E+02  0.45594000000E+02  0.51100000000E-03 0.  1.
    9900012    2    1    2    0    0  0.22400669819E+02 -0.22386713987E+02 -0.37103581850E+01  0.59301925777E+02  0.49999966716E+02 0.  0.
        -12    1    1    2    0    0 -0.22400669819E+02  0.22386713987E+02  0.37103581850E+01  0.31886074223E+02  0.00000000000E+00 0.  1.
         11    1    3    3    0    0  0.11043412560E+02 -0.31493858057E+02  0.90480545545E+01  0.34578712350E+02  0.51100000000E-03 0. -1.
        -11    1    3    3    0    0  0.11808588146E+02  0.90718053165E+01 -0.15763190088E+02  0.21684523691E+02  0.51100000000E-03 0.  1.
         12    1    3    3    0    0 -0.45133088769E+00  0.35338753456E-01  0.30047773484E+01  0.30386897359E+01  0.00000000000E+00 0. -1.
</event>
<event>
 7    1  0.1113211E-011  0.5930194E+02  0.7816164E-02  0.1266605E+00
        -11   -1    0    0    0    0  0.00000000000E+00  0.00000000000E+00  0.45593999997E+02  0.45594000000E+02  0.51100000000E-03 0.  1.
         11   -1    0    0    0    0 -0.00000000000E+00 -0.00000000000E+00 -0.45593999997E+02  0.45594000000E+02  0.51100000000E-03 0. -1.
    9900012    2    1    2    0    0  0.11778323887E+01  0.17325633348E+02 -0.26742400284E+02  0.59301939833E+02  0.49999992349E+02 0.  0.
        -12    1    1    2    0    0 -0.11778323887E+01 -0.17325633348E+02  0.26742400284E+02  0.31886060167E+02  0.00000000000E+00 0.  1.
         11    1    3    3    0    0 -0.26868936175E+01 -0.60313941204E+01 -0.97032669241E+01  0.11736715964E+02  0.51100000000E-03 0. -1.
        -11    1    3    3    0    0  0.59345390193E+01  0.15201581055E+02  0.10073072682E+02  0.19177424578E+02  0.51100000000E-03 0.  1.
        -12    1    3    3    0    0 -0.20698130131E+01  0.81554464131E+01 -0.27112206042E+02  0.28387799291E+02  0.00000000000E+00 0.  1.
</event>
<event>
 7    1  0.1113211E-011  0.5930195E+02  0.7816164E-02  0.1266605E+00
        -11   -1    0    0    0    0  0.00000000000E+00  0.00000000000E+00  0.45593999997E+02  0.45594000000E+02  0.51100000000E-03 0. -1.
         11   -1    0    0    0    0 -0.00000000000E+00 -0.00000000000E+00 -0.45593999997E+02  0.45594000000E+02  0.51100000000E-03 0.  1.
    9900012    2    1    2    0    0 -0.23930699221E+02 -0.15421794316E+02  0.14360008246E+02  0.59301953805E+02  0.50000017832E+02 0.  0.
        -12    1    1    2    0    0  0.23930699221E+02  0.15421794316E+02 -0.14360008246E+02  0.31886046195E+02  0.00000000000E+00 0.  1.
         11    1    3    3    0    0 -0.17690462839E+02 -0.31869000757E+02  0.78961934645E+01  0.37295248440E+02  0.51100000000E-03 0. -1.
        -11    1    3    3    0    0 -0.95365491431E+01  0.10616094303E+02  0.52114269916E+01  0.15192307243E+02  0.51100000000E-03 0.  1.
         12    1    3    3    0    0  0.32963127613E+01  0.58311121387E+01  0.12523877903E+01  0.68143981224E+01  0.00000000000E+00 0. -1.
</event>
<event>
 7    1  0.1113211E-011  0.5930193E+02  0.7816164E-02  0.1266605E+00
        -11   -1    0    0    0    0  0.00000000000E+00  0.00000000000E+00  0.45593999997E+02  0.45594000000E+02  0.51100000000E-03 0.  1.
         11   -1    0    0    0    0 -0.00000000000E+00 -0.00000000000E+00 -0.45593999997E+02  0.45594000000E+02  0.51100000000E-03 0. -1.
    9900012    2    1    2    0    0 -0.15327249972E+02  0.27960348396E+02  0.12688893350E+00  0.59301925062E+02  0.49999965411E+02 0.  0.
        -12    1    1    2    0    0  0.15327249972E+02 -0.27960348396E+02 -0.12688893350E+00  0.31886074938E+02  0.00000000000E+00 0.  1.
         11    1    3    3    0    0  0.65680704170E+01  0.12704180061E+02 -0.17543044847E+02  0.22633916206E+02  0.51100000000E-03 0. -1.
        -11    1    3    3    0    0 -0.22735436679E+02  0.11817826242E+02  0.87578646237E+01  0.27078797815E+02  0.51100000000E-03 0.  1.
        -12    1    3    3    0    0  0.84011629044E+00  0.34383420926E+01  0.89120691572E+01  0.95892110410E+01  0.00000000000E+00 0.  1.
</event>
<event>
 7    1  0.1113211E-011  0.5930212E+02  0.7816164E-02  0.1266604E+00
        -11   -1    0    0    0    0  0.00000000000E+00  0.00000000000E+00  0.45593999997E+02  0.45594000000E+02  0.51100000000E-03 0.  1.
         11   -1    0    0    0    0 -0.00000000000E+00 -0.00000000000E+00 -0.45593999997E+02  0.45594000000E+02  0.51100000000E-03 0. -1.
    9900012    2    1    2    0    0  0.70851427188E+01  0.13828544519E+02 -0.27843876249E+02  0.59302120125E+02  0.50000321157E+02 0.  0.
        -12    1    1    2    0    0 -0.70851427188E+01 -0.13828544519E+02  0.27843876249E+02  0.31885879875E+02  0.00000000000E+00 0.  1.
         11    1    3    3    0    0  0.19053055936E+02  0.21576079683E+01  0.31057060090E+01  0.19424716799E+02  0.51100000000E-03 0. -1.
        -11    1    3    3    0    0 -0.10845746596E+02  0.15088153857E+02 -0.16062186623E+02  0.24561686534E+02  0.51100000000E-03 0.  1.
         12    1    3    3    0    0 -0.11221666217E+01 -0.34172173055E+01 -0.14887395635E+02  0.15315716792E+02  0.00000000000E+00 0. -1.
</event>
<event>
 7    1  0.1113211E-011  0.5930194E+02  0.7816164E-02  0.1266605E+00
        -11   -1    0    0    0    0  0.00000000000E+00  0.00000000000E+00  0.45593999997E+02  0.45594000000E+02  0.51100000000E-03 0.  1.
         11   -1    0    0    0    0 -0.00000000000E+00 -0.00000000000E+00 -0.45593999997E+02  0.45594000000E+02  0.51100000000E-03 0. -1.
    9900012    2    1    2    0    0 -0.17738503003E+02  0.22401883578E+02 -0.14149978024E+02  0.59301941061E+02  0.49999994589E+02 0.  0.
        -12    1    1    2    0    0  0.17738503003E+02 -0.22401883578E+02  0.14149978024E+02  0.31886058939E+02  0.00000000000E+00 0.  1.
         11    1    3    3    0    0  0.63131448731E+01  0.11110229946E+01 -0.87406899077E+01  0.10839272605E+02  0.51100000000E-03 0. -1.
        -11    1    3    3    0    0 -0.22812377505E+02  0.25234545873E+02  0.75626679729E+01  0.34847967229E+02  0.51100000000E-03 0.  1.
        -12    1    3    3    0    0 -0.12392703707E+01 -0.39436852897E+01 -0.12971956089E+02  0.13614701227E+02  0.00000000000E+00 0.  1.
</event>
<event>
 7    1  0.1113211E-011  0.5930177E+02  0.7816164E-02  0.1266605E+00
        -11   -1    0    0    0    0  0.00000000000E+00  0.00000000000E+00  0.45593999997E+02  0.45594000000E+02  0.51100000000E-03 0.  1.
         11   -1    0    0    0    0 -0.00000000000E+00 -0.00000000000E+00 -0.45593999997E+02  0.45594000000E+02  0.51100000000E-03 0. -1.
    9900012    2    1    2    0    0  0.58377997645E+01 -0.10840359503E+01 -0.31328528480E+02  0.59301768853E+02  0.49999680523E+02 0.  0.
        -12    1    1    2    0    0 -0.58377997645E+01  0.10840359503E+01  0.31328528480E+02  0.31886231147E+02  0.00000000000E+00 0.  1.
         11    1    3    3    0    0 -0.49841903009E+01  0.38616003068E+01 -0.20202960390E+02  0.21163972185E+02  0.51100000000E-03 0. -1.
        -11    1    3    3    0    0 -0.90391437985E+01 -0.11870581040E+02 -0.14665388766E+01  0.14992249711E+02  0.51100000000E-03 0.  1.
        -12    1    3    3    0    0  0.19861133864E+02  0.69249447833E+01 -0.96590292137E+01  0.23145546958E+02  0.00000000000E+00 0.  1.
</event>
<event>
 7    1  0.1113211E-011  0.5930190E+02  0.7816164E-02  0.1266605E+00
        -11   -1    0    0    0    0  0.00000000000E+00  0.00000000000E+00  0.45593999997E+02  0.45594000000E+02  0.51100000000E-03 0.  1.
         11   -1    0    0    0    0 -0.00000000000E+00 -0.00000000000E+00 -0.45593999997E+02  0.45594000000E+02  0.51100000000E-03 0. -1.
    9900012    2    1    2    0    0 -0.13164322244E+01 -0.32529017318E+01 -0.31692411970E+02  0.59301900521E+02  0.49999920655E+02 0.  0.
        -12    1    1    2    0    0  0.13164322244E+01  0.32529017318E+01  0.31692411970E+02  0.31886099479E+02  0.00000000000E+00 0.  1.
         11    1    3    3    0    0 -0.15078826466E+02  0.85241357064E+01 -0.20136404560E+02  0.26561375830E+02  0.51100000000E-03 0. -1.
        -11    1    3    3    0    0  0.15221475830E+02 -0.28937287311E+01 -0.16363354211E+02  0.22535002856E+02  0.51100000000E-03 0.  1.
        -12    1    3    3    0    0 -0.14590815890E+01 -0.88833087071E+01  0.48073468008E+01  0.10205521835E+02  0.00000000000E+00 0.  1.
</event>
<event>
 7    1  0.1113211E-011  0.5930192E+02  0.7816164E-02  0.1266605E+00
        -11   -1    0    0    0    0  0.00000000000E+00  0.00000000000E+00  0.45593999997E+02  0.45594000000E+02  0.51100000000E-03 0. -1.
         11   -1    0    0    0    0 -0.00000000000E+00 -0.00000000000E+00 -0.45593999997E+02  0.45594000000E+02  0.51100000000E-03 0.  1.
    9900012    2    1    2    0    0  0.22991212237E+01  0.13664141264E+02  0.28718062739E+02  0.59301924005E+02  0.49999963483E+02 0.  0.
        -12    1    1    2    0    0 -0.22991212237E+01 -0.13664141264E+02 -0.28718062739E+02  0.31886075995E+02  0.00000000000E+00 0.  1.
         11    1    3    3    0    0  0.84651450610E+01 -0.94608046042E+00  0.20346781338E+02  0.22057770972E+02  0.51100000000E-03 0. -1.
        -11    1    3    3    0    0 -0.29182467257E+01 -0.22353391174E+01 -0.10864438143E+02  0.11469477815E+02  0.51100000000E-03 0.  1.
        -12    1    3    3    0    0 -0.32477771116E+01  0.16845560842E+02  0.19235719544E+02  0.25774675218E+02  0.00000000000E+00 0.  1.
</event>
<event>
 7    1  0.1113211E-011  0.5930194E+02  0.7816164E-02  0.1266605E+00
        -11   -1    0    0    0    0  0.00000000000E+00  0.00000000000E+00  0.45593999997E+02  0.45594000000E+02  0.51100000000E-03 0. -1.
         11   -1    0    0    0    0 -0.00000000000E+00 -0.00000000000E+00 -0.45593999997E+02  0.45594000000E+02  0.51100000000E-03 0.  1.
    9900012    2    1    2    0    0 -0.49964063377E+01  0.26817130632E+02  0.16510548792E+02  0.59301940459E+02  0.49999993492E+02 0.  0.
        -12    1    1    2    0    0  0.49964063377E+01 -0.26817130632E+02 -0.16510548792E+02  0.31886059541E+02  0.00000000000E+00 0.  1.
         11    1    3    3    0    0  0.91131640241E+01  0.18549040455E+02  0.22321173640E+02  0.30419589959E+02  0.51100000000E-03 0. -1.
        -11    1    3    3    0    0 -0.11589258606E+02  0.14329197227E+02 -0.10124820581E+02  0.21027334597E+02  0.51100000000E-03 0.  1.
        -12    1    3    3    0    0 -0.25203117559E+01 -0.60611070501E+01  0.43141957332E+01  0.78550159035E+01  0.00000000000E+00 0.  1.
</event>
<event>
 7    1  0.1113211E-011  0.5930197E+02  0.7816164E-02  0.1266605E+00
        -11   -1    0    0    0    0  0.00000000000E+00  0.00000000000E+00  0.45593999997E+02  0.45594000000E+02  0.51100000000E-03 0.  1.
         11   -1    0    0    0    0 -0.00000000000E+00 -0.00000000000E+00 -0.45593999997E+02  0.45594000000E+02  0.51100000000E-03 0. -1.
    9900012    2    1    2    0    0  0.18773040764E+02 -0.22409525113E+02  0.12732050298E+02  0.59301968888E+02  0.50000045339E+02 0.  0.
        -12    1    1    2    0    0 -0.18773040764E+02  0.22409525113E+02 -0.12732050298E+02  0.31886031112E+02  0.00000000000E+00 0.  1.
         11    1    3    3    0    0 -0.47029780054E+01  0.18912569534E+00  0.93232107087E+00  0.47982281613E+01  0.51100000000E-03 0. -1.
        -11    1    3    3    0    0  0.14847836438E+02 -0.29883040957E+02 -0.55261662374E+01  0.33822964052E+02  0.51100000000E-03 0.  1.
        -12    1    3    3    0    0  0.86281823315E+01  0.72843901494E+01  0.17325895464E+02  0.20680776674E+02  0.00000000000E+00 0.  1.
</event>
<event>
 7    1  0.1113211E-011  0.5930196E+02  0.7816164E-02  0.1266605E+00
        -11   -1    0    0    0    0  0.00000000000E+00  0.00000000000E+00  0.45593999997E+02  0.45594000000E+02  0.51100000000E-03 0.  1.
         11   -1    0    0    0    0 -0.00000000000E+00 -0.00000000000E+00 -0.45593999997E+02  0.45594000000E+02  0.51100000000E-03 0. -1.
    9900012    2    1    2    0    0  0.29017943179E+02 -0.45652815736E+01 -0.12403093909E+02  0.59301959783E+02  0.50000028735E+02 0.  0.
        -12    1    1    2    0    0 -0.29017943179E+02  0.45652815736E+01  0.12403093909E+02  0.31886040217E+02  0.00000000000E+00 0.  1.
         11    1    3    3    0    0  0.16311588705E+02  0.63721999383E+01 -0.36370233521E+01  0.17885770804E+02  0.51100000000E-03 0. -1.
        -11    1    3    3    0    0  0.15543494807E+02 -0.22603996101E+02 -0.10320150183E+02  0.29309492841E+02  0.51100000000E-03 0.  1.
        -12    1    3    3    0    0 -0.28371403331E+01  0.11666514589E+02  0.15540796255E+01  0.12106696139E+02  0.00000000000E+00 0.  1.
</event>
<event>
 7    1  0.1113211E-011  0.5930175E+02  0.7816164E-02  0.1266605E+00
        -11   -1    0    0    0    0  0.00000000000E+00  0.00000000000E+00  0.45593999997E+02  0.45594000000E+02  0.51100000000E-03 0. -1.
         11   -1    0    0    0    0 -0.00000000000E+00 -0.00000000000E+00 -0.45593999997E+02  0.45594000000E+02  0.51100000000E-03 0.  1.
    9900012    2    1    2    0    0  0.31731847219E+02  0.31055429342E+01 -0.42242166291E+00  0.59301749595E+02  0.49999645400E+02 0.  0.
        -12    1    1    2    0    0 -0.31731847219E+02 -0.31055429342E+01  0.42242166291E+00  0.31886250405E+02  0.00000000000E+00 0.  1.
         11    1    3    3    0    0  0.35943699041E+02  0.74644970552E+01  0.26123544274E+01  0.36803432081E+02  0.51100000000E-03 0. -1.
        -11    1    3    3    0    0 -0.36564979697E+01 -0.10738200826E+00  0.90040354186E+01  0.97187531288E+01  0.51100000000E-03 0.  1.
         12    1    3    3    0    0 -0.55535385180E+00 -0.42515721127E+01 -0.12038811509E+02  0.12779564385E+02  0.00000000000E+00 0. -1.
</event>
<event>
 7    1  0.1113211E-011  0.5930197E+02  0.7816164E-02  0.1266605E+00
        -11   -1    0    0    0    0  0.00000000000E+00  0.00000000000E+00  0.45593999997E+02  0.45594000000E+02  0.51100000000E-03 0.  1.
         11   -1    0    0    0    0 -0.00000000000E+00 -0.00000000000E+00 -0.45593999997E+02  0.45594000000E+02  0.51100000000E-03 0. -1.
    9900012    2    1    2    0    0 -0.50465792534E+01  0.27345308309E+02 -0.15604014241E+02  0.59301966864E+02  0.50000041648E+02 0.  0.
        -12    1    1    2    0    0  0.50465792534E+01 -0.27345308309E+02  0.15604014241E+02  0.31886033136E+02  0.00000000000E+00 0.  1.
         11    1    3    3    0    0  0.19613200526E+02  0.57172315995E+01 -0.11446712643E+02  0.23417762545E+02  0.51100000000E-03 0. -1.
        -11    1    3    3    0    0 -0.10486751063E+02  0.98790998483E+01 -0.88208890392E+01  0.16893094606E+02  0.51100000000E-03 0.  1.
        -12    1    3    3    0    0 -0.14173028717E+02  0.11748976862E+02  0.46635874404E+01  0.18991109713E+02  0.00000000000E+00 0.  1.
</event>
<event>
 7    1  0.1113211E-011  0.5930196E+02  0.7816164E-02  0.1266605E+00
        -11   -1    0    0    0    0  0.00000000000E+00  0.00000000000E+00  0.45593999997E+02  0.45594000000E+02  0.51100000000E-03 0. -1.
         11   -1    0    0    0    0 -0.00000000000E+00 -0.00000000000E+00 -0.45593999997E+02  0.45594000000E+02  0.51100000000E-03 0.  1.
    9900012    2    1    2    0    0 -0.36734868247E+01 -0.28787620101E+01  0.31542635775E+02  0.59301958418E+02  0.50000026244E+02 0.  0.
        -12    1    1    2    0    0  0.36734868247E+01  0.28787620101E+01 -0.31542635775E+02  0.31886041582E+02  0.00000000000E+00 0.  1.
         11    1    3    3    0    0 -0.67878242371E+01 -0.12796376051E+02  0.13569363253E+02  0.19848159039E+02  0.51100000000E-03 0. -1.
        -11    1    3    3    0    0  0.80951980872E+01 -0.16019070602E+01 -0.74397476364E+01  0.11110723804E+02  0.51100000000E-03 0.  1.
        -12    1    3    3    0    0 -0.49808606748E+01  0.11519521101E+02  0.25413020158E+02  0.28343075574E+02  0.00000000000E+00 0.  1.
</event>
<event>
 7    1  0.1113211E-011  0.5930198E+02  0.7816164E-02  0.1266605E+00
        -11   -1    0    0    0    0  0.00000000000E+00  0.00000000000E+00  0.45593999997E+02  0.45594000000E+02  0.51100000000E-03 0. -1.
         11   -1    0    0    0    0 -0.00000000000E+00 -0.00000000000E+00 -0.45593999997E+02  0.45594000000E+02  0.51100000000E-03 0.  1.
    9900012    2    1    2    0    0  0.95294341610E+01 -0.32213689622E+01  0.30257743010E+02  0.59301978839E+02  0.50000063488E+02 0.  0.
        -12    1    1    2    0    0 -0.95294341610E+01  0.32213689622E+01 -0.30257743010E+02  0.31886021161E+02  0.00000000000E+00 0.  1.
         11    1    3    3    0    0  0.24542880028E+01 -0.16996518722E+02  0.16699918081E+02  0.23953965067E+02  0.51100000000E-03 0. -1.
        -11    1    3    3    0    0 -0.89899247596E+01  0.12532020161E+02  0.20750494997E+01  0.15562008456E+02  0.51100000000E-03 0.  1.
        -12    1    3    3    0    0  0.16065070918E+02  0.12431295986E+01  0.11482775429E+02  0.19786005316E+02  0.00000000000E+00 0.  1.
</event>
<event>
 7    1  0.1113211E-011  0.5930194E+02  0.7816164E-02  0.1266605E+00
        -11   -1    0    0    0    0  0.00000000000E+00  0.00000000000E+00  0.45593999997E+02  0.45594000000E+02  0.51100000000E-03 0. -1.
         11   -1    0    0    0    0 -0.00000000000E+00 -0.00000000000E+00 -0.45593999997E+02  0.45594000000E+02  0.51100000000E-03 0.  1.
    9900012    2    1    2    0    0  0.44904034443E+01  0.14219435895E+02  0.28184475399E+02  0.59301941389E+02  0.49999995187E+02 0.  0.
        -12    1    1    2    0    0 -0.44904034443E+01 -0.14219435895E+02 -0.28184475399E+02  0.31886058611E+02  0.00000000000E+00 0.  1.
         11    1    3    3    0    0  0.27626314762E+01  0.21411888923E+02  0.30084284922E+02  0.37029249512E+02  0.51100000000E-03 0. -1.
        -11    1    3    3    0    0  0.11232977674E+02 -0.35456573767E+01 -0.26177088459E+01  0.12066643010E+02  0.51100000000E-03 0.  1.
         12    1    3    3    0    0 -0.95052057061E+01 -0.36467956509E+01  0.71789932292E+00  0.10206048867E+02  0.00000000000E+00 0. -1.
</event>
<event>
 7    1  0.1113211E-011  0.5930196E+02  0.7816164E-02  0.1266605E+00
        -11   -1    0    0    0    0  0.00000000000E+00  0.00000000000E+00  0.45593999997E+02  0.45594000000E+02  0.51100000000E-03 0. -1.
         11   -1    0    0    0    0 -0.00000000000E+00 -0.00000000000E+00 -0.45593999997E+02  0.45594000000E+02  0.51100000000E-03 0.  1.
    9900012    2    1    2    0    0 -0.23666153187E+01  0.21182444501E+02  0.23715454901E+02  0.59301958786E+02  0.50000026915E+02 0.  0.
        -12    1    1    2    0    0  0.23666153187E+01 -0.21182444501E+02 -0.23715454901E+02  0.31886041214E+02  0.00000000000E+00 0.  1.
         11    1    3    3    0    0  0.76791965574E+00  0.18159076199E+02  0.27612963008E+02  0.33057789934E+02  0.51100000000E-03 0. -1.
        -11    1    3    3    0    0 -0.11623689847E+02  0.53917762299E+01 -0.93665821279E+01  0.15871807635E+02  0.51100000000E-03 0.  1.
         12    1    3    3    0    0  0.84891548728E+01 -0.23684079271E+01  0.54690740209E+01  0.10372361217E+02  0.00000000000E+00 0. -1.
</event>
<event>
 7    1  0.1113211E-011  0.5930197E+02  0.7816164E-02  0.1266605E+00
        -11   -1    0    0    0    0  0.00000000000E+00  0.00000000000E+00  0.45593999997E+02  0.45594000000E+02  0.51100000000E-03 0. -1.
         11   -1    0    0    0    0 -0.00000000000E+00 -0.00000000000E+00 -0.45593999997E+02  0.45594000000E+02  0.51100000000E-03 0.  1.
    9900012    2    1    2    0    0  0.72427384794E+01 -0.17426218651E+02  0.25701918655E+02  0.59301968894E+02  0.50000045351E+02 0.  0.
        -12    1    1    2    0    0 -0.72427384794E+01  0.17426218651E+02 -0.25701918655E+02  0.31886031106E+02  0.00000000000E+00 0.  1.
         11    1    3    3    0    0  0.61459534017E+01 -0.19059181042E+02  0.81722334133E+01  0.21628927953E+02  0.51100000000E-03 0. -1.
        -11    1    3    3    0    0  0.79324604775E+01  0.10082707114E+02  0.22360419213E+02  0.25779318447E+02  0.51100000000E-03 0.  1.
        -12    1    3    3    0    0 -0.68356753997E+01 -0.84497447232E+01 -0.48307339712E+01  0.11893722494E+02  0.00000000000E+00 0.  1.
</event>
<event>
 7    1  0.1113211E-011  0.5930196E+02  0.7816164E-02  0.1266605E+00
        -11   -1    0    0    0    0  0.00000000000E+00  0.00000000000E+00  0.45593999997E+02  0.45594000000E+02  0.51100000000E-03 0. -1.
         11   -1    0    0    0    0 -0.00000000000E+00 -0.00000000000E+00 -0.45593999997E+02  0.45594000000E+02  0.51100000000E-03 0.  1.
    9900012    2    1    2    0    0 -0.22770860042E+02 -0.21010398519E+02  0.75346158241E+01  0.59301963109E+02  0.50000034799E+02 0.  0.
        -12    1    1    2    0    0  0.22770860042E+02  0.21010398519E+02 -0.75346158241E+01  0.31886036891E+02  0.00000000000E+00 0.  1.
         11    1    3    3    0    0 -0.34598298167E+01  0.39962767451E+01  0.72015311213E+01  0.89332357484E+01  0.51100000000E-03 0. -1.
        -11    1    3    3    0    0 -0.16584607050E+02 -0.31124471188E+02  0.11715182886E+02  0.37162177117E+02  0.51100000000E-03 0.  1.
        -12    1    3    3    0    0 -0.27264231754E+01  0.61177959232E+01 -0.11382098183E+02  0.13206550244E+02  0.00000000000E+00 0.  1.
</event>
<event>
 7    1  0.1113211E-011  0.5930201E+02  0.7816164E-02  0.1266605E+00
        -11   -1    0    0    0    0  0.00000000000E+00  0.00000000000E+00  0.45593999997E+02  0.45594000000E+02  0.51100000000E-03 0.  1.
         11   -1    0    0    0    0 -0.00000000000E+00 -0.00000000000E+00 -0.45593999997E+02  0.45594000000E+02  0.51100000000E-03 0. -1.
    9900012    2    1    2    0    0  0.61436789540E+00  0.31675608780E+02 -0.36048002843E+01  0.59302012096E+02  0.50000124141E+02 0.  0.
        -12    1    1    2    0    0 -0.61436789540E+00 -0.31675608780E+02  0.36048002843E+01  0.31885987904E+02  0.00000000000E+00 0.  1.
         11    1    3    3    0    0  0.82279037046E+01 -0.31775710187E+01 -0.79886306857E+01  0.11900150312E+02  0.51100000000E-03 0. -1.
        -11    1    3    3    0    0  0.36632318929E-02  0.15593019305E+02  0.17065132754E+02  0.23116250142E+02  0.51100000000E-03 0.  1.
        -12    1    3    3    0    0 -0.76171990411E+01  0.19260160494E+02 -0.12681302353E+02  0.24285611642E+02  0.00000000000E+00 0.  1.
</event>
<event>
 7    1  0.1113211E-011  0.5930194E+02  0.7816164E-02  0.1266605E+00
        -11   -1    0    0    0    0  0.00000000000E+00  0.00000000000E+00  0.45593999997E+02  0.45594000000E+02  0.51100000000E-03 0. -1.
         11   -1    0    0    0    0 -0.00000000000E+00 -0.00000000000E+00 -0.45593999997E+02  0.45594000000E+02  0.51100000000E-03 0.  1.
    9900012    2    1    2    0    0  0.30502402004E+02 -0.70372682965E+00  0.92643832133E+01  0.59301944180E+02  0.50000000278E+02 0.  0.
        -12    1    1    2    0    0 -0.30502402004E+02  0.70372682965E+00 -0.92643832133E+01  0.31886055820E+02  0.00000000000E+00 0.  1.
         11    1    3    3    0    0  0.22974320944E+02  0.18011427430E+02  0.83559031678E+01  0.30365310124E+02  0.51100000000E-03 0. -1.
        -11    1    3    3    0    0 -0.16520016711E+01 -0.57770187416E+01 -0.85625688564E+01  0.10460432149E+02  0.51100000000E-03 0.  1.
         12    1    3    3    0    0  0.91800827304E+01 -0.12938135518E+02  0.94710489020E+01  0.18476201907E+02  0.00000000000E+00 0. -1.
</event>
<event>
 7    1  0.1113211E-011  0.5930196E+02  0.7816164E-02  0.1266605E+00
        -11   -1    0    0    0    0  0.00000000000E+00  0.00000000000E+00  0.45593999997E+02  0.45594000000E+02  0.51100000000E-03 0.  1.
         11   -1    0    0    0    0 -0.00000000000E+00 -0.00000000000E+00 -0.45593999997E+02  0.45594000000E+02  0.51100000000E-03 0. -1.
    9900012    2    1    2    0    0 -0.34200895430E+01  0.24972605917E+02 -0.19529253295E+02  0.59301956140E+02  0.50000022090E+02 0.  0.
        -12    1    1    2    0    0  0.34200895430E+01 -0.24972605917E+02  0.19529253295E+02  0.31886043860E+02  0.00000000000E+00 0.  1.
         11    1    3    3    0    0  0.83503771323E+01 -0.85858919471E+01 -0.51771971062E+01  0.13047977196E+02  0.51100000000E-03 0.  1.
        -11    1    3    3    0    0 -0.19388307408E+02  0.18692068944E+02 -0.60608968599E+01  0.27604970142E+02  0.51100000000E-03 0. -1.
         12    1    3    3    0    0  0.76178407325E+01  0.14866428920E+02 -0.82911593285E+01  0.18649008802E+02  0.00000000000E+00 0. -1.
</event>
<event>
 7    1  0.1113211E-011  0.5930195E+02  0.7816164E-02  0.1266605E+00
        -11   -1    0    0    0    0  0.00000000000E+00  0.00000000000E+00  0.45593999997E+02  0.45594000000E+02  0.51100000000E-03 0.  1.
         11   -1    0    0    0    0 -0.00000000000E+00 -0.00000000000E+00 -0.45593999997E+02  0.45594000000E+02  0.51100000000E-03 0. -1.
    9900012    2    1    2    0    0 -0.14391585869E+02  0.27558775633E+02 -0.70793050617E+01  0.59301946334E+02  0.50000004206E+02 0.  0.
        -12    1    1    2    0    0  0.14391585869E+02 -0.27558775633E+02  0.70793050617E+01  0.31886053666E+02  0.00000000000E+00 0.  1.
         11    1    3    3    0    0  0.52253288914E+01  0.11608735785E+02 -0.15647161668E+02  0.20171774267E+02  0.51100000000E-03 0. -1.
        -11    1    3    3    0    0 -0.26993233102E+02  0.14434380092E+02  0.75840585861E+01  0.31535756005E+02  0.51100000000E-03 0.  1.
        -12    1    3    3    0    0  0.73763183413E+01  0.15156597569E+01  0.98379802069E+00  0.75944160616E+01  0.00000000000E+00 0.  1.
</event>
<event>
 7    1  0.1113211E-011  0.5930193E+02  0.7816164E-02  0.1266605E+00
        -11   -1    0    0    0    0  0.00000000000E+00  0.00000000000E+00  0.45593999997E+02  0.45594000000E+02  0.51100000000E-03 0. -1.
         11   -1    0    0    0    0 -0.00000000000E+00 -0.00000000000E+00 -0.45593999997E+02  0.45594000000E+02  0.51100000000E-03 0.  1.
    9900012    2    1    2    0    0 -0.30978558973E+02 -0.65183017214E+01 -0.38159989316E+01  0.59301933745E+02  0.49999981247E+02 0.  0.
        -12    1    1    2    0    0  0.30978558973E+02  0.65183017214E+01  0.38159989316E+01  0.31886066255E+02  0.00000000000E+00 0.  1.
         11    1    3    3    0    0 -0.10187132641E+01 -0.65381056232E+01  0.32923295589E+01  0.73908075364E+01  0.51100000000E-03 0. -1.
        -11    1    3    3    0    0 -0.14780984074E+02 -0.92519177026E+01 -0.22446874214E+02  0.28424243765E+02  0.51100000000E-03 0.  1.
        -12    1    3    3    0    0 -0.15178861635E+02  0.92717216044E+01  0.15338545723E+02  0.23486882444E+02  0.00000000000E+00 0.  1.
</event>
<event>
 7    1  0.1113211E-011  0.5930195E+02  0.7816164E-02  0.1266605E+00
        -11   -1    0    0    0    0  0.00000000000E+00  0.00000000000E+00  0.45593999997E+02  0.45594000000E+02  0.51100000000E-03 0. -1.
         11   -1    0    0    0    0 -0.00000000000E+00 -0.00000000000E+00 -0.45593999997E+02  0.45594000000E+02  0.51100000000E-03 0.  1.
    9900012    2    1    2    0    0  0.19486555741E+02  0.24469124835E+02  0.61851821057E+01  0.59301946582E+02  0.50000004659E+02 0.  0.
        -12    1    1    2    0    0 -0.19486555741E+02 -0.24469124835E+02 -0.61851821057E+01  0.31886053418E+02  0.00000000000E+00 0.  1.
         11    1    3    3    0    0  0.19443117450E+02  0.11017370378E+02  0.24546939364E+02  0.33195925934E+02  0.51100000000E-03 0. -1.
        -11    1    3    3    0    0  0.55032596306E+01  0.10965368837E+02 -0.14394186026E+02  0.18913428349E+02  0.51100000000E-03 0.  1.
         12    1    3    3    0    0 -0.54598213393E+01  0.24863856203E+01 -0.39675712319E+01  0.71925922997E+01  0.00000000000E+00 0. -1.
</event>
<event>
 7    1  0.1113211E-011  0.5930195E+02  0.7816164E-02  0.1266605E+00
        -11   -1    0    0    0    0  0.00000000000E+00  0.00000000000E+00  0.45593999997E+02  0.45594000000E+02  0.51100000000E-03 0. -1.
         11   -1    0    0    0    0 -0.00000000000E+00 -0.00000000000E+00 -0.45593999997E+02  0.45594000000E+02  0.51100000000E-03 0.  1.
    9900012    2    1    2    0    0 -0.52381499414E+01  0.31435437154E+02  0.10464104052E+01  0.59301954485E+02  0.50000019072E+02 0.  0.
        -12    1    1    2    0    0  0.52381499414E+01 -0.31435437154E+02 -0.10464104052E+01  0.31886045515E+02  0.00000000000E+00 0.  1.
         11    1    3    3    0    0  0.30716889764E+01  0.91404892625E+01  0.19210742702E+02  0.21495033207E+02  0.51100000000E-03 0. -1.
        -11    1    3    3    0    0  0.68302925173E+01  0.65888525771E+01 -0.11677646947E+02  0.15047701241E+02  0.51100000000E-03 0.  1.
         12    1    3    3    0    0 -0.15140131435E+02  0.15706095314E+02 -0.64866853501E+01  0.22759220038E+02  0.00000000000E+00 0. -1.
</event>
<event>
 7    1  0.1113211E-011  0.5930192E+02  0.7816164E-02  0.1266605E+00
        -11   -1    0    0    0    0  0.00000000000E+00  0.00000000000E+00  0.45593999997E+02  0.45594000000E+02  0.51100000000E-03 0.  1.
         11   -1    0    0    0    0 -0.00000000000E+00 -0.00000000000E+00 -0.45593999997E+02  0.45594000000E+02  0.51100000000E-03 0. -1.
    9900012    2    1    2    0    0  0.13929463414E+02  0.17620638702E+02 -0.22631948472E+02  0.59301922303E+02  0.49999960379E+02 0.  0.
        -12    1    1    2    0    0 -0.13929463414E+02 -0.17620638702E+02  0.22631948472E+02  0.31886077697E+02  0.00000000000E+00 0.  1.
         11    1    3    3    0    0  0.92734104107E+01  0.18890335429E+02 -0.11037675024E+02  0.23762810934E+02  0.51100000000E-03 0. -1.
        -11    1    3    3    0    0 -0.12264608583E+02 -0.69568949087E+01 -0.10637151185E+02  0.17662615776E+02  0.51100000000E-03 0.  1.
        -12    1    3    3    0    0  0.16920661586E+02  0.56871981817E+01 -0.95712226349E+00  0.17876495593E+02  0.00000000000E+00 0.  1.
</event>
<event>
 7    1  0.1113211E-011  0.5930195E+02  0.7816164E-02  0.1266605E+00
        -11   -1    0    0    0    0  0.00000000000E+00  0.00000000000E+00  0.45593999997E+02  0.45594000000E+02  0.51100000000E-03 0.  1.
         11   -1    0    0    0    0 -0.00000000000E+00 -0.00000000000E+00 -0.45593999997E+02  0.45594000000E+02  0.51100000000E-03 0. -1.
    9900012    2    1    2    0    0 -0.20743485085E+02  0.11171252080E+02 -0.21485602763E+02  0.59301950188E+02  0.50000011235E+02 0.  0.
        -12    1    1    2    0    0  0.20743485085E+02 -0.11171252080E+02  0.21485602763E+02  0.31886049812E+02  0.00000000000E+00 0.  1.
         11    1    3    3    0    0 -0.16609494582E+02  0.17843464859E+01 -0.34583433082E+02  0.38406679714E+02  0.51100000000E-03 0. -1.
        -11    1    3    3    0    0  0.12256803817E+01 -0.27504763832E+01  0.25273906710E+01  0.39312996067E+01  0.51100000000E-03 0.  1.
         12    1    3    3    0    0 -0.53596708849E+01  0.12137381977E+02  0.10570439648E+02  0.16963970867E+02  0.00000000000E+00 0. -1.
</event>
<event>
 7    1  0.1113211E-011  0.5930193E+02  0.7816164E-02  0.1266605E+00
        -11   -1    0    0    0    0  0.00000000000E+00  0.00000000000E+00  0.45593999997E+02  0.45594000000E+02  0.51100000000E-03 0.  1.
         11   -1    0    0    0    0 -0.00000000000E+00 -0.00000000000E+00 -0.45593999997E+02  0.45594000000E+02  0.51100000000E-03 0. -1.
    9900012    2    1    2    0    0 -0.22344889938E+02 -0.15926726736E+02 -0.16240889862E+02  0.59301933539E+02  0.49999980871E+02 0.  0.
        -12    1    1    2    0    0  0.22344889938E+02  0.15926726736E+02  0.16240889862E+02  0.31886066461E+02  0.00000000000E+00 0.  1.
         11    1    3    3    0    0 -0.27705830040E+02 -0.25636306797E+02 -0.65003559476E+01  0.38302583099E+02  0.51100000000E-03 0.  1.
        -11    1    3    3    0    0  0.89746918019E+01  0.85458146484E+01 -0.22409578123E+01  0.12593567133E+02  0.51100000000E-03 0. -1.
        -12    1    3    3    0    0 -0.36137517002E+01  0.11637654130E+01 -0.74995761022E+01  0.84057833068E+01  0.00000000000E+00 0.  1.
</event>
<event>
 7    1  0.1113211E-011  0.5930194E+02  0.7816164E-02  0.1266605E+00
        -11   -1    0    0    0    0  0.00000000000E+00  0.00000000000E+00  0.45593999997E+02  0.45594000000E+02  0.51100000000E-03 0. -1.
         11   -1    0    0    0    0 -0.00000000000E+00 -0.00000000000E+00 -0.45593999997E+02  0.45594000000E+02  0.51100000000E-03 0.  1.
    9900012    2    1    2    0    0  0.11729025049E+01 -0.20782390460E+02  0.24154447350E+02  0.59301940659E+02  0.49999993856E+02 0.  0.
        -12    1    1    2    0    0 -0.11729025049E+01  0.20782390460E+02 -0.24154447350E+02  0.31886059341E+02  0.00000000000E+00 0.  1.
         11    1    3    3    0    0  0.13268687330E+02 -0.18871167087E+02  0.23357556303E+02  0.32829170677E+02  0.51100000000E-03 0. -1.
        -11    1    3    3    0    0  0.13342598330E+01  0.70754886951E+01 -0.55711366159E+01  0.91038647305E+01  0.51100000000E-03 0.  1.
         12    1    3    3    0    0 -0.13430044658E+02 -0.89867120689E+01  0.63680276623E+01  0.17368905251E+02  0.00000000000E+00 0. -1.
</event>
<event>
 7    1  0.1113211E-011  0.5930196E+02  0.7816164E-02  0.1266605E+00
        -11   -1    0    0    0    0  0.00000000000E+00  0.00000000000E+00  0.45593999997E+02  0.45594000000E+02  0.51100000000E-03 0.  1.
         11   -1    0    0    0    0 -0.00000000000E+00 -0.00000000000E+00 -0.45593999997E+02  0.45594000000E+02  0.51100000000E-03 0. -1.
    9900012    2    1    2    0    0  0.20616594818E+02  0.11928121554E+02 -0.21198951930E+02  0.59301958718E+02  0.50000026791E+02 0.  0.
        -12    1    1    2    0    0 -0.20616594818E+02 -0.11928121554E+02  0.21198951930E+02  0.31886041282E+02  0.00000000000E+00 0.  1.
         11    1    3    3    0    0  0.56139674436E+01  0.94806480648E+01 -0.70534223076E+01  0.13082434204E+02  0.51100000000E-03 0. -1.
        -11    1    3    3    0    0  0.21931514382E+02 -0.89421748884E+01  0.36710121269E+01  0.23967272375E+02  0.51100000000E-03 0.  1.
        -12    1    3    3    0    0 -0.69288870072E+01  0.11389648378E+02 -0.17816541750E+02  0.22252252139E+02  0.00000000000E+00 0.  1.
</event>
<event>
 7    1  0.1113211E-011  0.5930191E+02  0.7816164E-02  0.1266605E+00
        -11   -1    0    0    0    0  0.00000000000E+00  0.00000000000E+00  0.45593999997E+02  0.45594000000E+02  0.51100000000E-03 0.  1.
         11   -1    0    0    0    0 -0.00000000000E+00 -0.00000000000E+00 -0.45593999997E+02  0.45594000000E+02  0.51100000000E-03 0. -1.
    9900012    2    1    2    0    0 -0.14008506560E+02 -0.27836022375E+02 -0.67557515228E+01  0.59301912495E+02  0.49999942492E+02 0.  0.
        -12    1    1    2    0    0  0.14008506560E+02  0.27836022375E+02  0.67557515228E+01  0.31886087505E+02  0.00000000000E+00 0.  1.
         11    1    3    3    0    0  0.11160634024E+02  0.28903382083E+01 -0.80600399714E+01  0.14066913356E+02  0.51100000000E-03 0. -1.
        -11    1    3    3    0    0 -0.24969474628E+02 -0.33763471571E+02  0.22331624480E+01  0.42052748905E+02  0.51100000000E-03 0.  1.
        -12    1    3    3    0    0 -0.19966595618E+00  0.30371109871E+01 -0.92887399944E+00  0.31822502335E+01  0.00000000000E+00 0.  1.
</event>
<event>
 7    1  0.1113211E-011  0.5930192E+02  0.7816164E-02  0.1266605E+00
        -11   -1    0    0    0    0  0.00000000000E+00  0.00000000000E+00  0.45593999997E+02  0.45594000000E+02  0.51100000000E-03 0.  1.
         11   -1    0    0    0    0 -0.00000000000E+00 -0.00000000000E+00 -0.45593999997E+02  0.45594000000E+02  0.51100000000E-03 0. -1.
    9900012    2    1    2    0    0  0.36600481362E+01 -0.29227075410E+02 -0.12210815683E+02  0.59301922960E+02  0.49999961578E+02 0.  0.
        -12    1    1    2    0    0 -0.36600481362E+01  0.29227075410E+02  0.12210815683E+02  0.31886077040E+02  0.00000000000E+00 0.  1.
         11    1    3    3    0    0  0.53339265101E+01 -0.19144675795E+02 -0.26234259483E+02  0.32912091307E+02  0.51100000000E-03 0. -1.
        -11    1    3    3    0    0 -0.43692491503E+01 -0.14455234582E+02  0.14858786870E+02  0.21185553863E+02  0.51100000000E-03 0.  1.
         12    1    3    3    0    0  0.26953707764E+01  0.43728349673E+01 -0.83534306920E+00  0.52042777902E+01  0.00000000000E+00 0. -1.
</event>
<event>
 7    1  0.1113211E-011  0.5930195E+02  0.7816164E-02  0.1266605E+00
        -11   -1    0    0    0    0  0.00000000000E+00  0.00000000000E+00  0.45593999997E+02  0.45594000000E+02  0.51100000000E-03 0.  1.
         11   -1    0    0    0    0 -0.00000000000E+00 -0.00000000000E+00 -0.45593999997E+02  0.45594000000E+02  0.51100000000E-03 0. -1.
    9900012    2    1    2    0    0 -0.10694500082E+02 -0.29553697984E+02 -0.53783860351E+01  0.59301946107E+02  0.50000003792E+02 0.  0.
        -12    1    1    2    0    0  0.10694500082E+02  0.29553697984E+02  0.53783860351E+01  0.31886053893E+02  0.00000000000E+00 0.  1.
         11    1    3    3    0    0  0.19455502198E+01 -0.17708310834E+02 -0.59317832496E+01  0.18776461089E+02  0.51100000000E-03 0. -1.
        -11    1    3    3    0    0 -0.87846633513E+01  0.45248687283E+01  0.15262798737E+02  0.18182347834E+02  0.51100000000E-03 0.  1.
        -12    1    3    3    0    0 -0.38553869508E+01 -0.16370255878E+02 -0.14709401523E+02  0.22343137184E+02  0.00000000000E+00 0.  1.
</event>
<event>
 7    1  0.1113211E-011  0.5930185E+02  0.7816164E-02  0.1266605E+00
        -11   -1    0    0    0    0  0.00000000000E+00  0.00000000000E+00  0.45593999997E+02  0.45594000000E+02  0.51100000000E-03 0. -1.
         11   -1    0    0    0    0 -0.00000000000E+00 -0.00000000000E+00 -0.45593999997E+02  0.45594000000E+02  0.51100000000E-03 0.  1.
    9900012    2    1    2    0    0  0.20836631831E+01  0.31029404215E+02 -0.70399703500E+01  0.59301846881E+02  0.49999822828E+02 0.  0.
        -12    1    1    2    0    0 -0.20836631831E+01 -0.31029404215E+02  0.70399703500E+01  0.31886153119E+02  0.00000000000E+00 0.  1.
         11    1    3    3    0    0  0.99111217280E+01 -0.70586248235E+00  0.68738060968E+01  0.12082126728E+02  0.51100000000E-03 0. -1.
        -11    1    3    3    0    0 -0.18060835028E+02  0.92308893551E+01 -0.45737170827E+01  0.20792353604E+02  0.51100000000E-03 0.  1.
        -12    1    3    3    0    0  0.10233376483E+02  0.22504377342E+02 -0.93400593640E+01  0.26427366549E+02  0.00000000000E+00 0.  1.
</event>
<event>
 7    1  0.1113211E-011  0.5930194E+02  0.7816164E-02  0.1266605E+00
        -11   -1    0    0    0    0  0.00000000000E+00  0.00000000000E+00  0.45593999997E+02  0.45594000000E+02  0.51100000000E-03 0.  1.
         11   -1    0    0    0    0 -0.00000000000E+00 -0.00000000000E+00 -0.45593999997E+02  0.45594000000E+02  0.51100000000E-03 0. -1.
    9900012    2    1    2    0    0 -0.10470612494E+00  0.31656878668E+02  0.38146765408E+01  0.59301942114E+02  0.49999996510E+02 0.  0.
        -12    1    1    2    0    0  0.10470612494E+00 -0.31656878668E+02 -0.38146765408E+01  0.31886057886E+02  0.00000000000E+00 0.  1.
         11    1    3    3    0    0 -0.17889062770E+02 -0.41853761164E+01 -0.26882909402E+01  0.18567790619E+02  0.51100000000E-03 0. -1.
        -11    1    3    3    0    0  0.96255095761E+01  0.19730872095E+02  0.15518635913E+01  0.22008317271E+02  0.51100000000E-03 0.  1.
         12    1    3    3    0    0  0.81588470690E+01  0.16111382689E+02  0.49511038897E+01  0.18725834224E+02  0.00000000000E+00 0. -1.
</event>
<event>
 7    1  0.1113211E-011  0.5930193E+02  0.7816164E-02  0.1266605E+00
        -11   -1    0    0    0    0  0.00000000000E+00  0.00000000000E+00  0.45593999997E+02  0.45594000000E+02  0.51100000000E-03 0.  1.
         11   -1    0    0    0    0 -0.00000000000E+00 -0.00000000000E+00 -0.45593999997E+02  0.45594000000E+02  0.51100000000E-03 0. -1.
    9900012    2    1    2    0    0 -0.27536583807E+02 -0.11931675190E+02  0.10774637926E+02  0.59301934971E+02  0.49999983482E+02 0.  0.
        -12    1    1    2    0    0  0.27536583807E+02  0.11931675190E+02 -0.10774637926E+02  0.31886065029E+02  0.00000000000E+00 0.  1.
         11    1    3    3    0    0  0.63675300414E+01  0.58462639525E+01 -0.97620026463E+01  0.13039207681E+02  0.51100000000E-03 0.  1.
        -11    1    3    3    0    0 -0.25595542622E+02 -0.20409700290E+02  0.16427932275E+02  0.36627375378E+02  0.51100000000E-03 0. -1.
        -12    1    3    3    0    0 -0.83085712272E+01  0.26317611477E+01  0.41087082973E+01  0.96353519110E+01  0.00000000000E+00 0.  1.
</event>
<event>
 7    1  0.1113211E-011  0.5930194E+02  0.7816164E-02  0.1266605E+00
        -11   -1    0    0    0    0  0.00000000000E+00  0.00000000000E+00  0.45593999997E+02  0.45594000000E+02  0.51100000000E-03 0. -1.
         11   -1    0    0    0    0 -0.00000000000E+00 -0.00000000000E+00 -0.45593999997E+02  0.45594000000E+02  0.51100000000E-03 0.  1.
    9900012    2    1    2    0    0  0.24376438215E+02  0.20146757264E+02 -0.40765434231E+01  0.59301940749E+02  0.49999994020E+02 0.  0.
        -12    1    1    2    0    0 -0.24376438215E+02 -0.20146757264E+02  0.40765434231E+01  0.31886059251E+02  0.00000000000E+00 0.  1.
         11    1    3    3    0    0  0.18773422424E+02  0.10640212112E+01  0.68632209903E+01  0.20016926170E+02  0.51100000000E-03 0. -1.
        -11    1    3    3    0    0  0.17171712499E+01  0.23630166927E+02  0.32232150059E+01  0.23910721054E+02  0.51100000000E-03 0.  1.
         12    1    3    3    0    0  0.38858445410E+01 -0.45474308744E+01 -0.14162979419E+02  0.15374293525E+02  0.00000000000E+00 0. -1.
</event>
<event>
 7    1  0.1113211E-011  0.5930195E+02  0.7816164E-02  0.1266605E+00
        -11   -1    0    0    0    0  0.00000000000E+00  0.00000000000E+00  0.45593999997E+02  0.45594000000E+02  0.51100000000E-03 0.  1.
         11   -1    0    0    0    0 -0.00000000000E+00 -0.00000000000E+00 -0.45593999997E+02  0.45594000000E+02  0.51100000000E-03 0. -1.
    9900012    2    1    2    0    0  0.75092944287E+01  0.75424232379E+01 -0.30057317342E+02  0.59301953257E+02  0.50000016832E+02 0.  0.
        -12    1    1    2    0    0 -0.75092944287E+01 -0.75424232379E+01  0.30057317342E+02  0.31886046743E+02  0.00000000000E+00 0.  1.
         11    1    3    3    0    0 -0.13358365814E+02  0.10132795059E+02 -0.11503860354E+01  0.16806036452E+02  0.51100000000E-03 0. -1.
        -11    1    3    3    0    0  0.15622025928E+02  0.87922451357E+01 -0.12519951651E+02  0.21865508414E+02  0.51100000000E-03 0.  1.
         12    1    3    3    0    0  0.52456343146E+01 -0.11382616956E+02 -0.16386979656E+02  0.20630408391E+02  0.00000000000E+00 0. -1.
</event>
<event>
 7    1  0.1113211E-011  0.5930192E+02  0.7816164E-02  0.1266605E+00
        -11   -1    0    0    0    0  0.00000000000E+00  0.00000000000E+00  0.45593999997E+02  0.45594000000E+02  0.51100000000E-03 0. -1.
         11   -1    0    0    0    0 -0.00000000000E+00 -0.00000000000E+00 -0.45593999997E+02  0.45594000000E+02  0.51100000000E-03 0.  1.
    9900012    2    1    2    0    0 -0.31717363460E+02 -0.20753348575E+01 -0.25345090804E+01  0.59301923165E+02  0.49999961952E+02 0.  0.
        -12    1    1    2    0    0  0.31717363460E+02  0.20753348575E+01  0.25345090804E+01  0.31886076835E+02  0.00000000000E+00 0.  1.
         11    1    3    3    0    0 -0.17692455078E+02  0.13609017928E+02  0.56538728063E+00  0.22328188432E+02  0.51100000000E-03 0. -1.
        -11    1    3    3    0    0 -0.20332455082E+02 -0.18217665958E+02 -0.81671710390E+01  0.28495521852E+02  0.51100000000E-03 0.  1.
        -12    1    3    3    0    0  0.63075466990E+01  0.25333131724E+01  0.50672746780E+01  0.84782128808E+01  0.00000000000E+00 0.  1.
</event>
<event>
 7    1  0.1113211E-011  0.5930198E+02  0.7816164E-02  0.1266605E+00
        -11   -1    0    0    0    0  0.00000000000E+00  0.00000000000E+00  0.45593999997E+02  0.45594000000E+02  0.51100000000E-03 0.  1.
         11   -1    0    0    0    0 -0.00000000000E+00 -0.00000000000E+00 -0.45593999997E+02  0.45594000000E+02  0.51100000000E-03 0. -1.
    9900012    2    1    2    0    0  0.38930233041E+01 -0.30517074256E+02 -0.83827822104E+01  0.59301976585E+02  0.50000059377E+02 0.  0.
        -12    1    1    2    0    0 -0.38930233041E+01  0.30517074256E+02  0.83827822104E+01  0.31886023415E+02  0.00000000000E+00 0.  1.
         11    1    3    3    0    0 -0.15031722626E+02 -0.22825105194E+02  0.21253220014E+01  0.27412681483E+02  0.51100000000E-03 0. -1.
        -11    1    3    3    0    0 -0.10771092564E+01 -0.15116581825E+01 -0.10794003659E+02  0.10952433065E+02  0.51100000000E-03 0.  1.
         12    1    3    3    0    0  0.20001855186E+02 -0.61803108795E+01  0.28589944682E+00  0.20936862037E+02  0.00000000000E+00 0. -1.
</event>
<event>
 7    1  0.1113211E-011  0.5930194E+02  0.7816164E-02  0.1266605E+00
        -11   -1    0    0    0    0  0.00000000000E+00  0.00000000000E+00  0.45593999997E+02  0.45594000000E+02  0.51100000000E-03 0.  1.
         11   -1    0    0    0    0 -0.00000000000E+00 -0.00000000000E+00 -0.45593999997E+02  0.45594000000E+02  0.51100000000E-03 0. -1.
    9900012    2    1    2    0    0 -0.14366592333E+00  0.31259690088E+02 -0.62874256647E+01  0.59301943709E+02  0.49999999419E+02 0.  0.
        -12    1    1    2    0    0  0.14366592333E+00 -0.31259690088E+02  0.62874256647E+01  0.31886056291E+02  0.00000000000E+00 0.  1.
         11    1    3    3    0    0 -0.59085360422E+01  0.18511746245E+02 -0.19742984167E+02  0.27701642033E+02  0.51100000000E-03 0. -1.
        -11    1    3    3    0    0  0.13171926086E+02  0.15526636078E+02  0.11747113426E+02  0.23506823239E+02  0.51100000000E-03 0.  1.
         12    1    3    3    0    0 -0.74070559669E+01 -0.27786922348E+01  0.17084450769E+01  0.80934784372E+01  0.00000000000E+00 0. -1.
</event>
<event>
 7    1  0.1113211E-011  0.5930194E+02  0.7816164E-02  0.1266605E+00
        -11   -1    0    0    0    0  0.00000000000E+00  0.00000000000E+00  0.45593999997E+02  0.45594000000E+02  0.51100000000E-03 0. -1.
         11   -1    0    0    0    0 -0.00000000000E+00 -0.00000000000E+00 -0.45593999997E+02  0.45594000000E+02  0.51100000000E-03 0.  1.
    9900012    2    1    2    0    0  0.34577879596E+01  0.67066056202E+01  0.30980410761E+02  0.59301941801E+02  0.49999995939E+02 0.  0.
        -12    1    1    2    0    0 -0.34577879596E+01 -0.67066056202E+01 -0.30980410761E+02  0.31886058199E+02  0.00000000000E+00 0.  1.
         11    1    3    3    0    0 -0.20115318210E+02 -0.35964431942E+01  0.13646837339E+02  0.24572272991E+02  0.51100000000E-03 0. -1.
        -11    1    3    3    0    0  0.78231888697E+01  0.38449941064E+01 -0.20272932329E+01  0.89496470256E+01  0.51100000000E-03 0.  1.
         12    1    3    3    0    0  0.15749917300E+02  0.64580547080E+01  0.19360866655E+02  0.25780021784E+02  0.00000000000E+00 0. -1.
</event>
<event>
 7    1  0.1113211E-011  0.5930184E+02  0.7816164E-02  0.1266605E+00
        -11   -1    0    0    0    0  0.00000000000E+00  0.00000000000E+00  0.45593999997E+02  0.45594000000E+02  0.51100000000E-03 0.  1.
         11   -1    0    0    0    0 -0.00000000000E+00 -0.00000000000E+00 -0.45593999997E+02  0.45594000000E+02  0.51100000000E-03 0. -1.
    9900012    2    1    2    0    0  0.19955699744E+02 -0.10608626062E+02 -0.22493421144E+02  0.59301844792E+02  0.49999819017E+02 0.  0.
        -12    1    1    2    0    0 -0.19955699744E+02  0.10608626062E+02  0.22493421144E+02  0.31886155208E+02  0.00000000000E+00 0.  1.
         11    1    3    3    0    0  0.11767275192E+02  0.27537014594E+01  0.86175597411E+01  0.14842977239E+02  0.51100000000E-03 0.  1.
        -11    1    3    3    0    0 -0.64523473844E+01 -0.11620460994E+01 -0.22699548582E+02  0.23627370653E+02  0.51100000000E-03 0. -1.
         12    1    3    3    0    0  0.14640771936E+02 -0.12200281422E+02 -0.84114323034E+01  0.20831496899E+02  0.00000000000E+00 0. -1.
</event>
<event>
 7    1  0.1113211E-011  0.5930197E+02  0.7816164E-02  0.1266605E+00
        -11   -1    0    0    0    0  0.00000000000E+00  0.00000000000E+00  0.45593999997E+02  0.45594000000E+02  0.51100000000E-03 0.  1.
         11   -1    0    0    0    0 -0.00000000000E+00 -0.00000000000E+00 -0.45593999997E+02  0.45594000000E+02  0.51100000000E-03 0. -1.
    9900012    2    1    2    0    0 -0.12996831993E+02 -0.25941609457E+02 -0.13222482597E+02  0.59301971883E+02  0.50000050801E+02 0.  0.
        -12    1    1    2    0    0  0.12996831993E+02  0.25941609457E+02  0.13222482597E+02  0.31886028117E+02  0.00000000000E+00 0.  1.
         11    1    3    3    0    0 -0.27127342139E+01 -0.24477507418E+02 -0.17369267076E+02  0.30136335798E+02  0.51100000000E-03 0. -1.
        -11    1    3    3    0    0 -0.14772348843E+02 -0.28447472846E+01  0.12515709674E+02  0.19569309297E+02  0.51100000000E-03 0.  1.
        -12    1    3    3    0    0  0.44882510638E+01  0.13806452451E+01 -0.83689251948E+01  0.95963267879E+01  0.00000000000E+00 0.  1.
</event>
<event>
 7    1  0.1113211E-011  0.5930198E+02  0.7816164E-02  0.1266605E+00
        -11   -1    0    0    0    0  0.00000000000E+00  0.00000000000E+00  0.45593999997E+02  0.45594000000E+02  0.51100000000E-03 0.  1.
         11   -1    0    0    0    0 -0.00000000000E+00 -0.00000000000E+00 -0.45593999997E+02  0.45594000000E+02  0.51100000000E-03 0. -1.
    9900012    2    1    2    0    0 -0.94521465923E+01  0.25828906867E+02 -0.16132050629E+02  0.59301975434E+02  0.50000057277E+02 0.  0.
        -12    1    1    2    0    0  0.94521465923E+01 -0.25828906867E+02  0.16132050629E+02  0.31886024566E+02  0.00000000000E+00 0.  1.
         11    1    3    3    0    0 -0.66839984614E+01  0.11006534656E+02 -0.33403952234E+02  0.35800051196E+02  0.51100000000E-03 0. -1.
        -11    1    3    3    0    0 -0.26175733771E+01  0.35700711874E+01  0.68994019290E+01  0.81974902200E+01  0.51100000000E-03 0.  1.
         12    1    3    3    0    0 -0.15057475375E+00  0.11252301023E+02  0.10372499676E+02  0.15304434018E+02  0.00000000000E+00 0. -1.
</event>
<event>
 7    1  0.1113211E-011  0.5930193E+02  0.7816164E-02  0.1266605E+00
        -11   -1    0    0    0    0  0.00000000000E+00  0.00000000000E+00  0.45593999997E+02  0.45594000000E+02  0.51100000000E-03 0. -1.
         11   -1    0    0    0    0 -0.00000000000E+00 -0.00000000000E+00 -0.45593999997E+02  0.45594000000E+02  0.51100000000E-03 0.  1.
    9900012    2    1    2    0    0  0.30300287026E+02 -0.89805062644E+01  0.42384780741E+01  0.59301928072E+02  0.49999970900E+02 0.  0.
        -12    1    1    2    0    0 -0.30300287026E+02  0.89805062644E+01 -0.42384780741E+01  0.31886071928E+02  0.00000000000E+00 0.  1.
         11    1    3    3    0    0  0.29417640719E+02 -0.85851700287E+01  0.22628206852E+02  0.38093811512E+02  0.51100000000E-03 0. -1.
        -11    1    3    3    0    0 -0.45742695974E+01 -0.44355393221E+00 -0.11729684731E+02  0.12597864366E+02  0.51100000000E-03 0.  1.
         12    1    3    3    0    0  0.54569159044E+01  0.48217696500E-01 -0.66600440467E+01  0.86102521936E+01  0.00000000000E+00 0. -1.
</event>
<event>
 7    1  0.1113211E-011  0.5930203E+02  0.7816164E-02  0.1266604E+00
        -11   -1    0    0    0    0  0.00000000000E+00  0.00000000000E+00  0.45593999997E+02  0.45594000000E+02  0.51100000000E-03 0.  1.
         11   -1    0    0    0    0 -0.00000000000E+00 -0.00000000000E+00 -0.45593999997E+02  0.45594000000E+02  0.51100000000E-03 0. -1.
    9900012    2    1    2    0    0 -0.79603938509E+01  0.18934235082E+02 -0.24389379174E+02  0.59302032164E+02  0.50000160738E+02 0.  0.
        -12    1    1    2    0    0  0.79603938509E+01 -0.18934235082E+02  0.24389379174E+02  0.31885967836E+02  0.00000000000E+00 0.  1.
         11    1    3    3    0    0 -0.15305792545E+02  0.26401344236E+02 -0.28581343282E+02  0.41811379395E+02  0.51100000000E-03 0.  1.
        -11    1    3    3    0    0  0.54177559218E+01 -0.29516733813E+01  0.88066055565E+01  0.10752709271E+02  0.51100000000E-03 0. -1.
         12    1    3    3    0    0  0.19276427721E+01 -0.45154357728E+01 -0.46146414486E+01  0.67379434974E+01  0.00000000000E+00 0. -1.
</event>
<event>
 7    1  0.1113211E-011  0.5930191E+02  0.7816164E-02  0.1266605E+00
        -11   -1    0    0    0    0  0.00000000000E+00  0.00000000000E+00  0.45593999997E+02  0.45594000000E+02  0.51100000000E-03 0. -1.
         11   -1    0    0    0    0 -0.00000000000E+00 -0.00000000000E+00 -0.45593999997E+02  0.45594000000E+02  0.51100000000E-03 0.  1.
    9900012    2    1    2    0    0  0.18113017768E+02 -0.60815129827E+01 -0.25527567889E+02  0.59301906869E+02  0.49999932232E+02 0.  0.
        -12    1    1    2    0    0 -0.18113017768E+02  0.60815129827E+01  0.25527567889E+02  0.31886093131E+02  0.00000000000E+00 0.  1.
         11    1    3    3    0    0  0.21960253507E+02 -0.75925740444E+01 -0.32495178518E+02  0.39947922873E+02  0.51100000000E-03 0. -1.
        -11    1    3    3    0    0 -0.55084428059E+01  0.74204199764E+01 -0.10006052734E+01  0.92955250495E+01  0.51100000000E-03 0.  1.
        -12    1    3    3    0    0  0.16612070678E+01 -0.59093589147E+01  0.79682159029E+01  0.10058458947E+02  0.00000000000E+00 0.  1.
</event>
<event>
 7    1  0.1113211E-011  0.5930231E+02  0.7816164E-02  0.1266604E+00
        -11   -1    0    0    0    0  0.00000000000E+00  0.00000000000E+00  0.45593999997E+02  0.45594000000E+02  0.51100000000E-03 0. -1.
         11   -1    0    0    0    0 -0.00000000000E+00 -0.00000000000E+00 -0.45593999997E+02  0.45594000000E+02  0.51100000000E-03 0.  1.
    9900012    2    1    2    0    0 -0.26750093733E+02  0.13853292972E+02  0.10450653630E+02  0.59302307249E+02  0.50000662425E+02 0.  0.
        -12    1    1    2    0    0  0.26750093733E+02 -0.13853292972E+02 -0.10450653630E+02  0.31885692751E+02  0.00000000000E+00 0.  1.
         11    1    3    3    0    0  0.27963750857E+01 -0.10412070533E+02 -0.81152694006E+01  0.13494018086E+02  0.51100000000E-03 0.  1.
        -11    1    3    3    0    0 -0.31228853840E+02  0.21199180290E+02  0.19046794797E+02  0.42277972390E+02  0.51100000000E-03 0. -1.
         12    1    3    3    0    0  0.16823850213E+01  0.30661832142E+01 -0.48087176658E+00  0.35303167731E+01  0.00000000000E+00 0. -1.
</event>
<event>
 7    1  0.1113211E-011  0.5930197E+02  0.7816164E-02  0.1266605E+00
        -11   -1    0    0    0    0  0.00000000000E+00  0.00000000000E+00  0.45593999997E+02  0.45594000000E+02  0.51100000000E-03 0. -1.
         11   -1    0    0    0    0 -0.00000000000E+00 -0.00000000000E+00 -0.45593999997E+02  0.45594000000E+02  0.51100000000E-03 0.  1.
    9900012    2    1    2    0    0 -0.17966943036E+02 -0.41441129449E+01  0.26014110186E+02  0.59301974174E+02  0.50000054980E+02 0.  0.
        -12    1    1    2    0    0  0.17966943036E+02  0.41441129449E+01 -0.26014110186E+02  0.31886025826E+02  0.00000000000E+00 0.  1.
         11    1    3    3    0    0 -0.75718445138E+01 -0.13591090220E+02  0.23887260225E+02  0.28507047620E+02  0.51100000000E-03 0. -1.
        -11    1    3    3    0    0 -0.18240894321E+02  0.87138738463E+01 -0.42507779048E+01  0.20657466836E+02  0.51100000000E-03 0.  1.
         12    1    3    3    0    0  0.78457957980E+01  0.73310342879E+00  0.63776278659E+01  0.10137459718E+02  0.00000000000E+00 0. -1.
</event>
<event>
 7    1  0.1113211E-011  0.5930200E+02  0.7816164E-02  0.1266605E+00
        -11   -1    0    0    0    0  0.00000000000E+00  0.00000000000E+00  0.45593999997E+02  0.45594000000E+02  0.51100000000E-03 0. -1.
         11   -1    0    0    0    0 -0.00000000000E+00 -0.00000000000E+00 -0.45593999997E+02  0.45594000000E+02  0.51100000000E-03 0.  1.
    9900012    2    1    2    0    0 -0.14819229048E+02  0.21345230787E+02  0.18479416532E+02  0.59301995824E+02  0.50000094464E+02 0.  0.
        -12    1    1    2    0    0  0.14819229048E+02 -0.21345230787E+02 -0.18479416532E+02  0.31886004176E+02  0.00000000000E+00 0.  1.
         11    1    3    3    0    0  0.37830229991E+01  0.57725471025E+01  0.21041164232E-02  0.69017075967E+01  0.51100000000E-03 0. -1.
        -11    1    3    3    0    0 -0.18533458181E+02 -0.11340818820E+02  0.49777680956E+01  0.22290837112E+02  0.51100000000E-03 0.  1.
        -12    1    3    3    0    0 -0.68793866553E-01  0.26913502505E+02  0.13499544320E+02  0.30109451116E+02  0.00000000000E+00 0.  1.
</event>
<event>
 7    1  0.1113211E-011  0.5930196E+02  0.7816164E-02  0.1266605E+00
        -11   -1    0    0    0    0  0.00000000000E+00  0.00000000000E+00  0.45593999997E+02  0.45594000000E+02  0.51100000000E-03 0.  1.
         11   -1    0    0    0    0 -0.00000000000E+00 -0.00000000000E+00 -0.45593999997E+02  0.45594000000E+02  0.51100000000E-03 0. -1.
    9900012    2    1    2    0    0 -0.16459087564E+02 -0.15756412263E+02 -0.22305913381E+02  0.59301955049E+02  0.50000020100E+02 0.  0.
        -12    1    1    2    0    0  0.16459087564E+02  0.15756412263E+02  0.22305913381E+02  0.31886044951E+02  0.00000000000E+00 0.  1.
         11    1    3    3    0    0  0.10369499993E+02 -0.51985952912E+00 -0.56963684340E+01  0.11842524969E+02  0.51100000000E-03 0. -1.
        -11    1    3    3    0    0 -0.13419495576E+02 -0.14594099297E+02  0.63886098669E+01  0.20829904755E+02  0.51100000000E-03 0.  1.
        -12    1    3    3    0    0 -0.13409091981E+02 -0.64245343647E+00 -0.22998154814E+02  0.26629525325E+02  0.00000000000E+00 0.  1.
</event>
<event>
 7    1  0.1113211E-011  0.5930195E+02  0.7816164E-02  0.1266605E+00
        -11   -1    0    0    0    0  0.00000000000E+00  0.00000000000E+00  0.45593999997E+02  0.45594000000E+02  0.51100000000E-03 0.  1.
         11   -1    0    0    0    0 -0.00000000000E+00 -0.00000000000E+00 -0.45593999997E+02  0.45594000000E+02  0.51100000000E-03 0. -1.
    9900012    2    1    2    0    0 -0.20146369432E+02  0.20949958397E+02 -0.13112714138E+02  0.59301949285E+02  0.50000009588E+02 0.  0.
        -12    1    1    2    0    0  0.20146369432E+02 -0.20949958397E+02  0.13112714138E+02  0.31886050715E+02  0.00000000000E+00 0.  1.
         11    1    3    3    0    0  0.70449714785E-01 -0.59600418925E+01  0.47173271230E+01  0.76013313287E+01  0.51100000000E-03 0.  1.
        -11    1    3    3    0    0 -0.12200349389E+02  0.35040678159E+02 -0.14002049635E+02  0.39657975809E+02  0.51100000000E-03 0. -1.
        -12    1    3    3    0    0 -0.80164697576E+01 -0.81306778693E+01 -0.38279916264E+01  0.12042642147E+02  0.00000000000E+00 0.  1.
</event>
<event>
 7    1  0.1113211E-011  0.5930194E+02  0.7816164E-02  0.1266605E+00
        -11   -1    0    0    0    0  0.00000000000E+00  0.00000000000E+00  0.45593999997E+02  0.45594000000E+02  0.51100000000E-03 0.  1.
         11   -1    0    0    0    0 -0.00000000000E+00 -0.00000000000E+00 -0.45593999997E+02  0.45594000000E+02  0.51100000000E-03 0. -1.
    9900012    2    1    2    0    0  0.30260941213E+02 -0.93443926986E+01 -0.36984180776E+01  0.59301944516E+02  0.50000000891E+02 0.  0.
        -12    1    1    2    0    0 -0.30260941213E+02  0.93443926986E+01  0.36984180776E+01  0.31886055484E+02  0.00000000000E+00 0.  1.
         11    1    3    3    0    0  0.13390881382E+02  0.12519411896E+02 -0.18509336316E+02  0.26050852376E+02  0.51100000000E-03 0. -1.
        -11    1    3    3    0    0  0.37504712425E+01 -0.10125069719E+02  0.10640518991E+02  0.15159278215E+02  0.51100000000E-03 0.  1.
         12    1    3    3    0    0  0.13119588589E+02 -0.11738734876E+02  0.41703992475E+01  0.18091813925E+02  0.00000000000E+00 0. -1.
</event>
<event>
 7    1  0.1113211E-011  0.5930194E+02  0.7816164E-02  0.1266605E+00
        -11   -1    0    0    0    0  0.00000000000E+00  0.00000000000E+00  0.45593999997E+02  0.45594000000E+02  0.51100000000E-03 0.  1.
         11   -1    0    0    0    0 -0.00000000000E+00 -0.00000000000E+00 -0.45593999997E+02  0.45594000000E+02  0.51100000000E-03 0. -1.
    9900012    2    1    2    0    0 -0.48765846657E+00  0.64626256883E+01 -0.31220468901E+02  0.59301936901E+02  0.49999987003E+02 0.  0.
        -12    1    1    2    0    0  0.48765846657E+00 -0.64626256883E+01  0.31220468901E+02  0.31886063099E+02  0.00000000000E+00 0.  1.
         11    1    3    3    0    0  0.99317472033E+01  0.16367006535E+02 -0.16584739487E+02  0.25329273372E+02  0.51100000000E-03 0. -1.
        -11    1    3    3    0    0 -0.83692013495E+01  0.21366521501E+01  0.56301503459E+01  0.10310548328E+02  0.51100000000E-03 0.  1.
         12    1    3    3    0    0 -0.20502043204E+01 -0.12041032997E+02 -0.20265879760E+02  0.23662115202E+02  0.00000000000E+00 0. -1.
</event>
<event>
 7    1  0.1113211E-011  0.5930193E+02  0.7816164E-02  0.1266605E+00
        -11   -1    0    0    0    0  0.00000000000E+00  0.00000000000E+00  0.45593999997E+02  0.45594000000E+02  0.51100000000E-03 0.  1.
         11   -1    0    0    0    0 -0.00000000000E+00 -0.00000000000E+00 -0.45593999997E+02  0.45594000000E+02  0.51100000000E-03 0. -1.
    9900012    2    1    2    0    0  0.11518619096E+02 -0.26617575206E+02  0.13249425136E+02  0.59301934671E+02  0.49999982936E+02 0.  0.
        -12    1    1    2    0    0 -0.11518619096E+02  0.26617575206E+02 -0.13249425136E+02  0.31886065329E+02  0.00000000000E+00 0.  1.
         11    1    3    3    0    0 -0.14663048665E+02 -0.14562547946E+02  0.17967423840E+01  0.20743699822E+02  0.51100000000E-03 0. -1.
        -11    1    3    3    0    0  0.19788614424E+02 -0.33930191409E+01  0.17125701758E+02  0.26389230771E+02  0.51100000000E-03 0.  1.
        -12    1    3    3    0    0  0.63930533370E+01 -0.86620081193E+01 -0.56730190058E+01  0.12169004079E+02  0.00000000000E+00 0.  1.
</event>
<event>
 7    1  0.1113211E-011  0.5930198E+02  0.7816164E-02  0.1266605E+00
        -11   -1    0    0    0    0  0.00000000000E+00  0.00000000000E+00  0.45593999997E+02  0.45594000000E+02  0.51100000000E-03 0.  1.
         11   -1    0    0    0    0 -0.00000000000E+00 -0.00000000000E+00 -0.45593999997E+02  0.45594000000E+02  0.51100000000E-03 0. -1.
    9900012    2    1    2    0    0 -0.29381429264E+01 -0.16674642205E+02 -0.27019291316E+02  0.59301976734E+02  0.50000059647E+02 0.  0.
        -12    1    1    2    0    0  0.29381429264E+01  0.16674642205E+02  0.27019291316E+02  0.31886023266E+02  0.00000000000E+00 0.  1.
         11    1    3    3    0    0 -0.18319676327E+01  0.89627599977E+01 -0.12814704661E+02  0.15744961987E+02  0.51100000000E-03 0. -1.
        -11    1    3    3    0    0  0.10594228765E+02 -0.24697733472E+02 -0.25156166730E+01  0.26991555148E+02  0.51100000000E-03 0.  1.
         12    1    3    3    0    0 -0.11700404059E+02 -0.93966873121E+00 -0.11688969982E+02  0.16565459599E+02  0.00000000000E+00 0. -1.
</event>
<event>
 7    1  0.1113211E-011  0.5930191E+02  0.7816164E-02  0.1266605E+00
        -11   -1    0    0    0    0  0.00000000000E+00  0.00000000000E+00  0.45593999997E+02  0.45594000000E+02  0.51100000000E-03 0. -1.
         11   -1    0    0    0    0 -0.00000000000E+00 -0.00000000000E+00 -0.45593999997E+02  0.45594000000E+02  0.51100000000E-03 0.  1.
    9900012    2    1    2    0    0 -0.16553076794E+02 -0.26187363732E+02 -0.75458762488E+01  0.59301911827E+02  0.49999941274E+02 0.  0.
        -12    1    1    2    0    0  0.16553076794E+02  0.26187363732E+02  0.75458762488E+01  0.31886088173E+02  0.00000000000E+00 0.  1.
         11    1    3    3    0    0  0.82191724577E+01 -0.48099839112E+01  0.79379383682E+01  0.12397645217E+02  0.51100000000E-03 0. -1.
        -11    1    3    3    0    0 -0.19478225874E+02 -0.21850086219E+02 -0.23327117463E+02  0.37429693565E+02  0.51100000000E-03 0.  1.
        -12    1    3    3    0    0 -0.52940233775E+01  0.47270639774E+00  0.78433028460E+01  0.94745730455E+01  0.00000000000E+00 0.  1.
</event>
<event>
 7    1  0.1113211E-011  0.5930199E+02  0.7816164E-02  0.1266605E+00
        -11   -1    0    0    0    0  0.00000000000E+00  0.00000000000E+00  0.45593999997E+02  0.45594000000E+02  0.51100000000E-03 0.  1.
         11   -1    0    0    0    0 -0.00000000000E+00 -0.00000000000E+00 -0.45593999997E+02  0.45594000000E+02  0.51100000000E-03 0. -1.
    9900012    2    1    2    0    0 -0.18717530730E+02  0.42119646198E+01 -0.25468240684E+02  0.59301986042E+02  0.50000076624E+02 0.  0.
        -12    1    1    2    0    0  0.18717530730E+02 -0.42119646198E+01  0.25468240684E+02  0.31886013958E+02  0.00000000000E+00 0.  1.
         11    1    3    3    0    0  0.31591935271E+00  0.10675818233E+01 -0.56478971599E-01  0.11147762655E+01  0.51100000000E-03 0. -1.
        -11    1    3    3    0    0 -0.13932654243E+01  0.39535570944E+01  0.14206303379E+02  0.14811848575E+02  0.51100000000E-03 0.  1.
        -12    1    3    3    0    0 -0.17640184659E+02 -0.80917429788E+00 -0.39618065091E+02  0.43375361202E+02  0.00000000000E+00 0.  1.
</event>
<event>
 7    1  0.1113211E-011  0.5930193E+02  0.7816164E-02  0.1266605E+00
        -11   -1    0    0    0    0  0.00000000000E+00  0.00000000000E+00  0.45593999997E+02  0.45594000000E+02  0.51100000000E-03 0.  1.
         11   -1    0    0    0    0 -0.00000000000E+00 -0.00000000000E+00 -0.45593999997E+02  0.45594000000E+02  0.51100000000E-03 0. -1.
    9900012    2    1    2    0    0  0.28207815405E+01 -0.29116940162E+02 -0.12687346282E+02  0.59301925162E+02  0.49999965593E+02 0.  0.
        -12    1    1    2    0    0 -0.28207815405E+01  0.29116940162E+02  0.12687346282E+02  0.31886074838E+02  0.00000000000E+00 0.  1.
         11    1    3    3    0    0  0.19272789659E+01 -0.29792196688E+02 -0.20328277836E+01  0.29923598994E+02  0.51100000000E-03 0. -1.
        -11    1    3    3    0    0 -0.11147847254E+02  0.37590388137E+01 -0.12085746614E+02  0.16866242696E+02  0.51100000000E-03 0.  1.
         12    1    3    3    0    0  0.12041349828E+02 -0.30837822883E+01  0.14312281152E+01  0.12512083472E+02  0.00000000000E+00 0. -1.
</event>
<event>
 7    1  0.1113211E-011  0.5930193E+02  0.7816164E-02  0.1266605E+00
        -11   -1    0    0    0    0  0.00000000000E+00  0.00000000000E+00  0.45593999997E+02  0.45594000000E+02  0.51100000000E-03 0. -1.
         11   -1    0    0    0    0 -0.00000000000E+00 -0.00000000000E+00 -0.45593999997E+02  0.45594000000E+02  0.51100000000E-03 0.  1.
    9900012    2    1    2    0    0 -0.20175176729E+02 -0.17747067395E+02 -0.17167559886E+02  0.59301932986E+02  0.49999979863E+02 0.  0.
        -12    1    1    2    0    0  0.20175176729E+02  0.17747067395E+02  0.17167559886E+02  0.31886067014E+02  0.00000000000E+00 0.  1.
         11    1    3    3    0    0 -0.64746514095E+01 -0.14015117785E+02  0.13207859398E+02  0.20317287898E+02  0.51100000000E-03 0. -1.
        -11    1    3    3    0    0 -0.10254237708E+02  0.49443668186E+01 -0.59697190364E+01  0.12854326114E+02  0.51100000000E-03 0.  1.
         12    1    3    3    0    0 -0.34462876109E+01 -0.86763164290E+01 -0.24405700248E+02  0.26130318974E+02  0.00000000000E+00 0. -1.
</event>
<event>
 7    1  0.1113211E-011  0.5930195E+02  0.7816164E-02  0.1266605E+00
        -11   -1    0    0    0    0  0.00000000000E+00  0.00000000000E+00  0.45593999997E+02  0.45594000000E+02  0.51100000000E-03 0. -1.
         11   -1    0    0    0    0 -0.00000000000E+00 -0.00000000000E+00 -0.45593999997E+02  0.45594000000E+02  0.51100000000E-03 0.  1.
    9900012    2    1    2    0    0  0.30018962634E+02 -0.93340503570E+01  0.53345733454E+01  0.59301948403E+02  0.50000007979E+02 0.  0.
        -12    1    1    2    0    0 -0.30018962634E+02  0.93340503570E+01 -0.53345733454E+01  0.31886051597E+02  0.00000000000E+00 0.  1.
         11    1    3    3    0    0  0.65374123872E+01 -0.27939842121E+02  0.57286444554E+01  0.29260722924E+02  0.51100000000E-03 0. -1.
        -11    1    3    3    0    0  0.41946710794E+01  0.36906985662E+01 -0.87494432227E+00  0.56552673853E+01  0.51100000000E-03 0.  1.
         12    1    3    3    0    0  0.19286879167E+02  0.14915093198E+02  0.48087321220E+00  0.24385958094E+02  0.00000000000E+00 0. -1.
</event>
<event>
 7    1  0.1113211E-011  0.5930194E+02  0.7816164E-02  0.1266605E+00
        -11   -1    0    0    0    0  0.00000000000E+00  0.00000000000E+00  0.45593999997E+02  0.45594000000E+02  0.51100000000E-03 0.  1.
         11   -1    0    0    0    0 -0.00000000000E+00 -0.00000000000E+00 -0.45593999997E+02  0.45594000000E+02  0.51100000000E-03 0. -1.
    9900012    2    1    2    0    0  0.29195921209E+02 -0.44624049232E+01 -0.12016913741E+02  0.59301935821E+02  0.49999985033E+02 0.  0.
        -12    1    1    2    0    0 -0.29195921209E+02  0.44624049232E+01  0.12016913741E+02  0.31886064179E+02  0.00000000000E+00 0.  1.
         11    1    3    3    0    0 -0.71499234307E+01 -0.12735091995E+02 -0.92781754062E+01  0.17302846943E+02  0.51100000000E-03 0. -1.
        -11    1    3    3    0    0  0.11396503936E+02 -0.55247130774E+01  0.27626985859E+01  0.12962841520E+02  0.51100000000E-03 0.  1.
         12    1    3    3    0    0  0.24949340704E+02  0.13797400149E+02 -0.55014369209E+01  0.29036247358E+02  0.00000000000E+00 0. -1.
</event>
<event>
 7    1  0.1113211E-011  0.5930193E+02  0.7816164E-02  0.1266605E+00
        -11   -1    0    0    0    0  0.00000000000E+00  0.00000000000E+00  0.45593999997E+02  0.45594000000E+02  0.51100000000E-03 0. -1.
         11   -1    0    0    0    0 -0.00000000000E+00 -0.00000000000E+00 -0.45593999997E+02  0.45594000000E+02  0.51100000000E-03 0.  1.
    9900012    2    1    2    0    0  0.87567451484E+01  0.24892315173E+02  0.17900102681E+02  0.59301927551E+02  0.49999969950E+02 0.  0.
        -12    1    1    2    0    0 -0.87567451484E+01 -0.24892315173E+02 -0.17900102681E+02  0.31886072449E+02  0.00000000000E+00 0.  1.
         11    1    3    3    0    0 -0.10388210333E+02  0.22833031864E+02  0.80496509341E+01  0.26345002153E+02  0.51100000000E-03 0. -1.
        -11    1    3    3    0    0  0.16280445256E+02 -0.63587605682E+01 -0.25861111622E+01  0.17668466399E+02  0.51100000000E-03 0.  1.
         12    1    3    3    0    0  0.28645102259E+01  0.84180438769E+01  0.12436562909E+02  0.15288458998E+02  0.00000000000E+00 0. -1.
</event>
<event>
 7    1  0.1113211E-011  0.5930195E+02  0.7816164E-02  0.1266605E+00
        -11   -1    0    0    0    0  0.00000000000E+00  0.00000000000E+00  0.45593999997E+02  0.45594000000E+02  0.51100000000E-03 0.  1.
         11   -1    0    0    0    0 -0.00000000000E+00 -0.00000000000E+00 -0.45593999997E+02  0.45594000000E+02  0.51100000000E-03 0. -1.
    9900012    2    1    2    0    0  0.90397100541E+01  0.17466113751E+02 -0.25098580841E+02  0.59301949011E+02  0.50000009088E+02 0.  0.
        -12    1    1    2    0    0 -0.90397100541E+01 -0.17466113751E+02  0.25098580841E+02  0.31886050989E+02  0.00000000000E+00 0.  1.
         11    1    3    3    0    0 -0.45256898698E+01  0.12550472591E+02 -0.32273114706E+02  0.34922058418E+02  0.51100000000E-03 0. -1.
        -11    1    3    3    0    0  0.31365424110E+01  0.95008005371E+01 -0.14251736509E+01  0.10106148096E+02  0.51100000000E-03 0.  1.
         12    1    3    3    0    0  0.10428857513E+02 -0.45851593769E+01  0.85997075154E+01  0.14273742498E+02  0.00000000000E+00 0. -1.
</event>
<event>
 7    1  0.1113211E-011  0.5930196E+02  0.7816164E-02  0.1266605E+00
        -11   -1    0    0    0    0  0.00000000000E+00  0.00000000000E+00  0.45593999997E+02  0.45594000000E+02  0.51100000000E-03 0.  1.
         11   -1    0    0    0    0 -0.00000000000E+00 -0.00000000000E+00 -0.45593999997E+02  0.45594000000E+02  0.51100000000E-03 0. -1.
    9900012    2    1    2    0    0 -0.20657810730E+01 -0.58142491994E+00 -0.31813738948E+02  0.59301960857E+02  0.50000030692E+02 0.  0.
        -12    1    1    2    0    0  0.20657810730E+01  0.58142491994E+00  0.31813738948E+02  0.31886039143E+02  0.00000000000E+00 0.  1.
         11    1    3    3    0    0 -0.94350938798E+01 -0.19081942337E+01 -0.80698736224E+01  0.12561252417E+02  0.51100000000E-03 0. -1.
        -11    1    3    3    0    0  0.12440803783E+02  0.16869486458E+02 -0.44078144295E+01  0.21419197007E+02  0.51100000000E-03 0.  1.
        -12    1    3    3    0    0 -0.50714909760E+01 -0.15542717144E+02 -0.19336050896E+02  0.25321511432E+02  0.00000000000E+00 0.  1.
</event>
<event>
 7    1  0.1113211E-011  0.5930198E+02  0.7816164E-02  0.1266605E+00
        -11   -1    0    0    0    0  0.00000000000E+00  0.00000000000E+00  0.45593999997E+02  0.45594000000E+02  0.51100000000E-03 0.  1.
         11   -1    0    0    0    0 -0.00000000000E+00 -0.00000000000E+00 -0.45593999997E+02  0.45594000000E+02  0.51100000000E-03 0. -1.
    9900012    2    1    2    0    0  0.43527860289E+01  0.12261912590E+02 -0.29110426087E+02  0.59301981849E+02  0.50000068976E+02 0.  0.
        -12    1    1    2    0    0 -0.43527860289E+01 -0.12261912590E+02  0.29110426087E+02  0.31886018151E+02  0.00000000000E+00 0.  1.
         11    1    3    3    0    0 -0.17912447201E+02 -0.31128564209E+01 -0.16408800131E+02  0.24490699497E+02  0.51100000000E-03 0. -1.
        -11    1    3    3    0    0  0.24005506797E+02  0.10196174105E+02 -0.13368178266E+02  0.29307584570E+02  0.51100000000E-03 0.  1.
         12    1    3    3    0    0 -0.17402735665E+01  0.51785949062E+01  0.66655230989E+00  0.55036977816E+01  0.00000000000E+00 0. -1.
</event>
<event>
 7    1  0.1113211E-011  0.5930194E+02  0.7816164E-02  0.1266605E+00
        -11   -1    0    0    0    0  0.00000000000E+00  0.00000000000E+00  0.45593999997E+02  0.45594000000E+02  0.51100000000E-03 0.  1.
         11   -1    0    0    0    0 -0.00000000000E+00 -0.00000000000E+00 -0.45593999997E+02  0.45594000000E+02  0.51100000000E-03 0. -1.
    9900012    2    1    2    0    0 -0.21509998123E+02 -0.21123951871E+02 -0.10383605650E+02  0.59301943044E+02  0.49999998206E+02 0.  0.
        -12    1    1    2    0    0  0.21509998123E+02  0.21123951871E+02  0.10383605650E+02  0.31886056956E+02  0.00000000000E+00 0.  1.
         11    1    3    3    0    0 -0.88310816533E+01 -0.10739215651E+00 -0.44119441237E+01  0.98724256115E+01  0.51100000000E-03 0. -1.
        -11    1    3    3    0    0  0.74299335860E+01 -0.16620219315E+02 -0.17989591197E+02  0.25594159389E+02  0.51100000000E-03 0.  1.
        -12    1    3    3    0    0 -0.20108850056E+02 -0.43963403992E+01  0.12017929671E+02  0.23835358043E+02  0.00000000000E+00 0.  1.
</event>
<event>
 7    1  0.1113211E-011  0.5930193E+02  0.7816164E-02  0.1266605E+00
        -11   -1    0    0    0    0  0.00000000000E+00  0.00000000000E+00  0.45593999997E+02  0.45594000000E+02  0.51100000000E-03 0.  1.
         11   -1    0    0    0    0 -0.00000000000E+00 -0.00000000000E+00 -0.45593999997E+02  0.45594000000E+02  0.51100000000E-03 0. -1.
    9900012    2    1    2    0    0  0.18829082422E+02  0.27507239439E+01 -0.25585555379E+02  0.59301929826E+02  0.49999974100E+02 0.  0.
        -12    1    1    2    0    0 -0.18829082422E+02 -0.27507239439E+01  0.25585555379E+02  0.31886070174E+02  0.00000000000E+00 0.  1.
         11    1    3    3    0    0  0.26260514984E+02 -0.47376281972E+01 -0.12287150930E+02  0.29377437710E+02  0.51100000000E-03 0. -1.
        -11    1    3    3    0    0 -0.13030947641E+02 -0.35358182902E+01 -0.29967995032E+01  0.13830705511E+02  0.51100000000E-03 0.  1.
         12    1    3    3    0    0  0.55995150785E+01  0.11024170431E+02 -0.10301604946E+02  0.16093786605E+02  0.00000000000E+00 0. -1.
</event>
<event>
 7    1  0.1113211E-011  0.5930196E+02  0.7816164E-02  0.1266605E+00
        -11   -1    0    0    0    0  0.00000000000E+00  0.00000000000E+00  0.45593999997E+02  0.45594000000E+02  0.51100000000E-03 0.  1.
         11   -1    0    0    0    0 -0.00000000000E+00 -0.00000000000E+00 -0.45593999997E+02  0.45594000000E+02  0.51100000000E-03 0. -1.
    9900012    2    1    2    0    0 -0.66578251503E+01 -0.30978406477E+02 -0.35681136372E+01  0.59301956995E+02  0.50000023650E+02 0.  0.
        -12    1    1    2    0    0  0.66578251503E+01  0.30978406477E+02  0.35681136372E+01  0.31886043005E+02  0.00000000000E+00 0.  1.
         11    1    3    3    0    0  0.10486499733E+02 -0.20005017737E+02 -0.16536309442E+02  0.27993158834E+02  0.51100000000E-03 0. -1.
        -11    1    3    3    0    0 -0.18769744931E+02 -0.41047766296E+01  0.14518868681E+02  0.24082152396E+02  0.51100000000E-03 0.  1.
         12    1    3    3    0    0  0.16254200478E+01 -0.68686121097E+01 -0.15506728769E+01  0.72266457652E+01  0.00000000000E+00 0. -1.
</event>
<event>
 7    1  0.1113211E-011  0.5930196E+02  0.7816164E-02  0.1266605E+00
        -11   -1    0    0    0    0  0.00000000000E+00  0.00000000000E+00  0.45593999997E+02  0.45594000000E+02  0.51100000000E-03 0.  1.
         11   -1    0    0    0    0 -0.00000000000E+00 -0.00000000000E+00 -0.45593999997E+02  0.45594000000E+02  0.51100000000E-03 0. -1.
    9900012    2    1    2    0    0 -0.13269967592E+02 -0.27194179247E+02 -0.10055052303E+02  0.59301960710E+02  0.50000030424E+02 0.  0.
        -12    1    1    2    0    0  0.13269967592E+02  0.27194179247E+02  0.10055052303E+02  0.31886039290E+02  0.00000000000E+00 0.  1.
         11    1    3    3    0    0 -0.30153607124E+02 -0.10143412121E+02 -0.51890033354E+01  0.32234369668E+02  0.51100000000E-03 0. -1.
        -11    1    3    3    0    0  0.76415360699E+01 -0.41613869859E+01  0.32037732159E+01  0.92722369596E+01  0.51100000000E-03 0.  1.
         12    1    3    3    0    0  0.92421034625E+01 -0.12889380141E+02 -0.80698221832E+01  0.17795354082E+02  0.00000000000E+00 0. -1.
</event>
<event>
 7    1  0.1113211E-011  0.5930194E+02  0.7816164E-02  0.1266605E+00
        -11   -1    0    0    0    0  0.00000000000E+00  0.00000000000E+00  0.45593999997E+02  0.45594000000E+02  0.51100000000E-03 0.  1.
         11   -1    0    0    0    0 -0.00000000000E+00 -0.00000000000E+00 -0.45593999997E+02  0.45594000000E+02  0.51100000000E-03 0. -1.
    9900012    2    1    2    0    0 -0.11343709040E+02 -0.23880887834E+02 -0.17825376091E+02  0.59301943937E+02  0.49999999834E+02 0.  0.
        -12    1    1    2    0    0  0.11343709040E+02  0.23880887834E+02  0.17825376091E+02  0.31886056063E+02  0.00000000000E+00 0.  1.
         11    1    3    3    0    0  0.95526502621E+01 -0.10825037274E+02 -0.26522161083E+02  0.30197012895E+02  0.51100000000E-03 0. -1.
        -11    1    3    3    0    0 -0.64513162375E+01 -0.61052856778E+01  0.95625496408E+01  0.13051296882E+02  0.51100000000E-03 0.  1.
        -12    1    3    3    0    0 -0.14445043064E+02 -0.69505648818E+01 -0.86576464877E+00  0.16053634160E+02  0.00000000000E+00 0.  1.
</event>
<event>
 7    1  0.1113211E-011  0.5930195E+02  0.7816164E-02  0.1266605E+00
        -11   -1    0    0    0    0  0.00000000000E+00  0.00000000000E+00  0.45593999997E+02  0.45594000000E+02  0.51100000000E-03 0. -1.
         11   -1    0    0    0    0 -0.00000000000E+00 -0.00000000000E+00 -0.45593999997E+02  0.45594000000E+02  0.51100000000E-03 0.  1.
    9900012    2    1    2    0    0 -0.27555180954E+01  0.29050311354E+02  0.12853281650E+02  0.59301947893E+02  0.50000007050E+02 0.  0.
        -12    1    1    2    0    0  0.27555180954E+01 -0.29050311354E+02 -0.12853281650E+02  0.31886052107E+02  0.00000000000E+00 0.  1.
         11    1    3    3    0    0 -0.12901357156E+02  0.14019473044E+02  0.10249311864E+02  0.21634209827E+02  0.51100000000E-03 0. -1.
        -11    1    3    3    0    0  0.12306243639E+02  0.19513968361E+02 -0.92159137372E+01  0.24842939841E+02  0.51100000000E-03 0.  1.
         12    1    3    3    0    0 -0.21604045787E+01 -0.44831300504E+01  0.11819883524E+02  0.12824798225E+02  0.00000000000E+00 0. -1.
</event>
<event>
 7    1  0.1113211E-011  0.5930195E+02  0.7816164E-02  0.1266605E+00
        -11   -1    0    0    0    0  0.00000000000E+00  0.00000000000E+00  0.45593999997E+02  0.45594000000E+02  0.51100000000E-03 0.  1.
         11   -1    0    0    0    0 -0.00000000000E+00 -0.00000000000E+00 -0.45593999997E+02  0.45594000000E+02  0.51100000000E-03 0. -1.
    9900012    2    1    2    0    0 -0.24210861282E+02  0.15492185078E+02 -0.13803855921E+02  0.59301952255E+02  0.50000015005E+02 0.  0.
        -12    1    1    2    0    0  0.24210861282E+02 -0.15492185078E+02  0.13803855921E+02  0.31886047745E+02  0.00000000000E+00 0.  1.
         11    1    3    3    0    0  0.10618258117E+02 -0.14847180167E+01  0.40949140055E+01  0.11476938354E+02  0.51100000000E-03 0. -1.
        -11    1    3    3    0    0 -0.22149273296E+02  0.12985210128E+02 -0.18205185286E+00  0.25675652528E+02  0.51100000000E-03 0.  1.
         12    1    3    3    0    0 -0.12679846102E+02  0.39916929667E+01 -0.17716718074E+02  0.22149361373E+02  0.00000000000E+00 0. -1.
</event>
<event>
 7    1  0.1113211E-011  0.5930194E+02  0.7816164E-02  0.1266605E+00
        -11   -1    0    0    0    0  0.00000000000E+00  0.00000000000E+00  0.45593999997E+02  0.45594000000E+02  0.51100000000E-03 0.  1.
         11   -1    0    0    0    0 -0.00000000000E+00 -0.00000000000E+00 -0.45593999997E+02  0.45594000000E+02  0.51100000000E-03 0. -1.
    9900012    2    1    2    0    0 -0.56717541030E+01 -0.10297202352E+02 -0.29639833529E+02  0.59301938743E+02  0.49999990361E+02 0.  0.
        -12    1    1    2    0    0  0.56717541030E+01  0.10297202352E+02  0.29639833529E+02  0.31886061257E+02  0.00000000000E+00 0.  1.
         11    1    3    3    0    0  0.15642118666E+02  0.41332524017E+00 -0.12755939771E+02  0.20188132995E+02  0.51100000000E-03 0. -1.
        -11    1    3    3    0    0 -0.24895435575E+02 -0.25694117622E+01 -0.73705742616E+01  0.26090418825E+02  0.51100000000E-03 0.  1.
         12    1    3    3    0    0  0.35815628061E+01 -0.81411158303E+01 -0.95133194961E+01  0.13023386922E+02  0.00000000000E+00 0. -1.
</event>
<event>
 7    1  0.1113211E-011  0.5930193E+02  0.7816164E-02  0.1266605E+00
        -11   -1    0    0    0    0  0.00000000000E+00  0.00000000000E+00  0.45593999997E+02  0.45594000000E+02  0.51100000000E-03 0.  1.
         11   -1    0    0    0    0 -0.00000000000E+00 -0.00000000000E+00 -0.45593999997E+02  0.45594000000E+02  0.51100000000E-03 0. -1.
    9900012    2    1    2    0    0  0.11615581922E+02 -0.13897491756E+02 -0.26242323469E+02  0.59301928409E+02  0.49999971515E+02 0.  0.
        -12    1    1    2    0    0 -0.11615581922E+02  0.13897491756E+02  0.26242323469E+02  0.31886071591E+02  0.00000000000E+00 0.  1.
         11    1    3    3    0    0  0.50469515548E+00 -0.33715696060E+01 -0.12257267524E+02  0.12722531439E+02  0.51100000000E-03 0. -1.
        -11    1    3    3    0    0 -0.32323310987E+00  0.10319496897E+02  0.88616189923E+01  0.13606057007E+02  0.51100000000E-03 0.  1.
        -12    1    3    3    0    0  0.11434119876E+02 -0.20845419047E+02 -0.22846674937E+02  0.32973339962E+02  0.00000000000E+00 0.  1.
</event>
<event>
 7    1  0.1113211E-011  0.5930197E+02  0.7816164E-02  0.1266605E+00
        -11   -1    0    0    0    0  0.00000000000E+00  0.00000000000E+00  0.45593999997E+02  0.45594000000E+02  0.51100000000E-03 0. -1.
         11   -1    0    0    0    0 -0.00000000000E+00 -0.00000000000E+00 -0.45593999997E+02  0.45594000000E+02  0.51100000000E-03 0.  1.
    9900012    2    1    2    0    0 -0.28333000451E+02 -0.13525511650E+02 -0.55696113747E+01  0.59301969347E+02  0.50000046176E+02 0.  0.
        -12    1    1    2    0    0  0.28333000451E+02  0.13525511650E+02  0.55696113747E+01  0.31886030653E+02  0.00000000000E+00 0.  1.
         11    1    3    3    0    0 -0.20184381273E+02 -0.22817640132E+02 -0.58878707200E+01  0.31027745172E+02  0.51100000000E-03 0. -1.
        -11    1    3    3    0    0 -0.25581683045E+01  0.16935362899E+02  0.48147363134E+01  0.17791358229E+02  0.51100000000E-03 0.  1.
        -12    1    3    3    0    0 -0.55904508735E+01 -0.76432344170E+01 -0.44964769680E+01  0.10482865946E+02  0.00000000000E+00 0.  1.
</event>
<event>
 7    1  0.1113211E-011  0.5930194E+02  0.7816164E-02  0.1266605E+00
        -11   -1    0    0    0    0  0.00000000000E+00  0.00000000000E+00  0.45593999997E+02  0.45594000000E+02  0.51100000000E-03 0.  1.
         11   -1    0    0    0    0 -0.00000000000E+00 -0.00000000000E+00 -0.45593999997E+02  0.45594000000E+02  0.51100000000E-03 0. -1.
    9900012    2    1    2    0    0 -0.15066997155E+02 -0.20564777593E+02 -0.19151931943E+02  0.59301937561E+02  0.49999988207E+02 0.  0.
        -12    1    1    2    0    0  0.15066997155E+02  0.20564777593E+02  0.19151931943E+02  0.31886062439E+02  0.00000000000E+00 0.  1.
         11    1    3    3    0    0 -0.17956042499E+02 -0.16922960947E+02 -0.86282412338E+01  0.26139101294E+02  0.51100000000E-03 0.  1.
        -11    1    3    3    0    0  0.11786064517E+02  0.94731061921E+01 -0.22581078054E+01  0.15288888411E+02  0.51100000000E-03 0. -1.
        -12    1    3    3    0    0 -0.88970191731E+01 -0.13114922838E+02 -0.82655829039E+01  0.17873947856E+02  0.00000000000E+00 0.  1.
</event>
<event>
 7    1  0.1113211E-011  0.5930200E+02  0.7816164E-02  0.1266605E+00
        -11   -1    0    0    0    0  0.00000000000E+00  0.00000000000E+00  0.45593999997E+02  0.45594000000E+02  0.51100000000E-03 0.  1.
         11   -1    0    0    0    0 -0.00000000000E+00 -0.00000000000E+00 -0.45593999997E+02  0.45594000000E+02  0.51100000000E-03 0. -1.
    9900012    2    1    2    0    0  0.11490501062E+01  0.96195806908E+01 -0.30378617751E+02  0.59301998913E+02  0.50000100098E+02 0.  0.
        -12    1    1    2    0    0 -0.11490501062E+01 -0.96195806908E+01  0.30378617751E+02  0.31886001087E+02  0.00000000000E+00 0.  1.
         11    1    3    3    0    0 -0.99633144523E+00 -0.11375122483E+01 -0.24531037512E+01  0.28817232239E+01  0.51100000000E-03 0. -1.
        -11    1    3    3    0    0  0.95222933797E+01 -0.50908534560E+01  0.99640632686E+01  0.14692631391E+02  0.51100000000E-03 0.  1.
        -12    1    3    3    0    0 -0.73769118283E+01  0.15847946395E+02 -0.37889577269E+02  0.41727644298E+02  0.00000000000E+00 0.  1.
</event>
<event>
 7    1  0.1113211E-011  0.5930192E+02  0.7816164E-02  0.1266605E+00
        -11   -1    0    0    0    0  0.00000000000E+00  0.00000000000E+00  0.45593999997E+02  0.45594000000E+02  0.51100000000E-03 0.  1.
         11   -1    0    0    0    0 -0.00000000000E+00 -0.00000000000E+00 -0.45593999997E+02  0.45594000000E+02  0.51100000000E-03 0. -1.
    9900012    2    1    2    0    0  0.29891087376E+02 -0.83265898327E+01 -0.73425415181E+01  0.59301919672E+02  0.49999955581E+02 0.  0.
        -12    1    1    2    0    0 -0.29891087376E+02  0.83265898327E+01  0.73425415181E+01  0.31886080328E+02  0.00000000000E+00 0.  1.
         11    1    3    3    0    0  0.22462790711E+02 -0.18279994343E+02 -0.20492685380E+02  0.35477955325E+02  0.51100000000E-03 0. -1.
        -11    1    3    3    0    0 -0.11635095053E+01  0.31680138497E+01  0.12399033208E+02  0.12850139722E+02  0.51100000000E-03 0.  1.
         12    1    3    3    0    0  0.85918061705E+01  0.67853906603E+01  0.75111065433E+00  0.10973824625E+02  0.00000000000E+00 0. -1.
</event>
<event>
 7    1  0.1113211E-011  0.5930195E+02  0.7816164E-02  0.1266605E+00
        -11   -1    0    0    0    0  0.00000000000E+00  0.00000000000E+00  0.45593999997E+02  0.45594000000E+02  0.51100000000E-03 0.  1.
         11   -1    0    0    0    0 -0.00000000000E+00 -0.00000000000E+00 -0.45593999997E+02  0.45594000000E+02  0.51100000000E-03 0. -1.
    9900012    2    1    2    0    0  0.20712032450E+02  0.23795640706E+02  0.46367264261E+01  0.59301952318E+02  0.50000015120E+02 0.  0.
        -12    1    1    2    0    0 -0.20712032450E+02 -0.23795640706E+02 -0.46367264261E+01  0.31886047682E+02  0.00000000000E+00 0.  1.
         11    1    3    3    0    0  0.48328366444E+01  0.12944622833E+02 -0.98719252326E+01  0.16981592339E+02  0.51100000000E-03 0. -1.
        -11    1    3    3    0    0  0.37639404292E+01 -0.12656959737E+02  0.33978917985E+01  0.13634938441E+02  0.51100000000E-03 0.  1.
        -12    1    3    3    0    0  0.12115255376E+02  0.23507977611E+02  0.11110759860E+02  0.28685421539E+02  0.00000000000E+00 0.  1.
</event>
<event>
 7    1  0.1113211E-011  0.5930194E+02  0.7816164E-02  0.1266605E+00
        -11   -1    0    0    0    0  0.00000000000E+00  0.00000000000E+00  0.45593999997E+02  0.45594000000E+02  0.51100000000E-03 0.  1.
         11   -1    0    0    0    0 -0.00000000000E+00 -0.00000000000E+00 -0.45593999997E+02  0.45594000000E+02  0.51100000000E-03 0. -1.
    9900012    2    1    2    0    0 -0.72731344748E+01 -0.29914333738E+02  0.83039175481E+01  0.59301938864E+02  0.49999990583E+02 0.  0.
        -12    1    1    2    0    0  0.72731344748E+01  0.29914333738E+02 -0.83039175481E+01  0.31886061136E+02  0.00000000000E+00 0.  1.
         11    1    3    3    0    0 -0.10513995491E+02 -0.15238434612E+02 -0.97162857511E+01  0.20908376304E+02  0.51100000000E-03 0. -1.
        -11    1    3    3    0    0 -0.12839700205E+02 -0.69516652492E+01  0.13736778610E+02  0.20047010698E+02  0.51100000000E-03 0.  1.
        -12    1    3    3    0    0  0.16080561221E+02 -0.77242338771E+01  0.42834246894E+01  0.18346551863E+02  0.00000000000E+00 0.  1.
</event>
<event>
 7    1  0.1113211E-011  0.5930195E+02  0.7816164E-02  0.1266605E+00
        -11   -1    0    0    0    0  0.00000000000E+00  0.00000000000E+00  0.45593999997E+02  0.45594000000E+02  0.51100000000E-03 0.  1.
         11   -1    0    0    0    0 -0.00000000000E+00 -0.00000000000E+00 -0.45593999997E+02  0.45594000000E+02  0.51100000000E-03 0. -1.
    9900012    2    1    2    0    0  0.15024434811E+02  0.64071607115E+01 -0.27384935988E+02  0.59301951815E+02  0.50000014203E+02 0.  0.
        -12    1    1    2    0    0 -0.15024434811E+02 -0.64071607115E+01  0.27384935988E+02  0.31886048185E+02  0.00000000000E+00 0.  1.
         11    1    3    3    0    0 -0.21275219274E+01 -0.17888955236E+02 -0.20207180739E+02  0.27071594387E+02  0.51100000000E-03 0. -1.
        -11    1    3    3    0    0  0.21688645488E+01  0.14202032343E+01  0.21179691993E+01  0.33476475991E+01  0.51100000000E-03 0.  1.
         12    1    3    3    0    0  0.14983092190E+02  0.22875912713E+02 -0.92957244482E+01  0.28882709829E+02  0.00000000000E+00 0. -1.
</event>
<event>
 7    1  0.1113211E-011  0.5930195E+02  0.7816164E-02  0.1266605E+00
        -11   -1    0    0    0    0  0.00000000000E+00  0.00000000000E+00  0.45593999997E+02  0.45594000000E+02  0.51100000000E-03 0.  1.
         11   -1    0    0    0    0 -0.00000000000E+00 -0.00000000000E+00 -0.45593999997E+02  0.45594000000E+02  0.51100000000E-03 0. -1.
    9900012    2    1    2    0    0  0.26324589865E+02 -0.53900663039E+01 -0.17166337747E+02  0.59301952927E+02  0.50000016229E+02 0.  0.
        -12    1    1    2    0    0 -0.26324589865E+02  0.53900663039E+01  0.17166337747E+02  0.31886047073E+02  0.00000000000E+00 0.  1.
         11    1    3    3    0    0  0.48994699357E+01 -0.10562564900E+02  0.75048815687E+00  0.11667725384E+02  0.51100000000E-03 0. -1.
        -11    1    3    3    0    0  0.15392971605E+02  0.68451600431E+01 -0.29783466537E+02  0.34217753727E+02  0.51100000000E-03 0.  1.
        -12    1    3    3    0    0  0.60321483244E+01 -0.16726614473E+01  0.11866640633E+02  0.13416473816E+02  0.00000000000E+00 0.  1.
</event>
<event>
 7    1  0.1113211E-011  0.5930193E+02  0.7816164E-02  0.1266605E+00
        -11   -1    0    0    0    0  0.00000000000E+00  0.00000000000E+00  0.45593999997E+02  0.45594000000E+02  0.51100000000E-03 0. -1.
         11   -1    0    0    0    0 -0.00000000000E+00 -0.00000000000E+00 -0.45593999997E+02  0.45594000000E+02  0.51100000000E-03 0.  1.
    9900012    2    1    2    0    0  0.25321107569E+02  0.11690358651E+02  0.15456333345E+02  0.59301933852E+02  0.49999981442E+02 0.  0.
        -12    1    1    2    0    0 -0.25321107569E+02 -0.11690358651E+02 -0.15456333345E+02  0.31886066148E+02  0.00000000000E+00 0.  1.
         11    1    3    3    0    0  0.11982164940E+02 -0.60137995994E+01  0.20472703906E+02  0.24471813741E+02  0.51100000000E-03 0. -1.
        -11    1    3    3    0    0  0.11262976620E+02  0.21516825417E+02 -0.11623350190E+02  0.26924536919E+02  0.51100000000E-03 0.  1.
        -12    1    3    3    0    0  0.20759660085E+01 -0.38126671671E+01  0.66069796294E+01  0.79055831928E+01  0.00000000000E+00 0.  1.
</event>
<event>
 7    1  0.1113211E-011  0.5930195E+02  0.7816164E-02  0.1266605E+00
        -11   -1    0    0    0    0  0.00000000000E+00  0.00000000000E+00  0.45593999997E+02  0.45594000000E+02  0.51100000000E-03 0. -1.
         11   -1    0    0    0    0 -0.00000000000E+00 -0.00000000000E+00 -0.45593999997E+02  0.45594000000E+02  0.51100000000E-03 0.  1.
    9900012    2    1    2    0    0  0.21299814507E+02 -0.19182450412E+02  0.13966817732E+02  0.59301945064E+02  0.50000001889E+02 0.  0.
        -12    1    1    2    0    0 -0.21299814507E+02  0.19182450412E+02 -0.13966817732E+02  0.31886054936E+02  0.00000000000E+00 0.  1.
         11    1    3    3    0    0  0.20833023803E+02  0.10881630475E+02 -0.37240643244E+01  0.23796920345E+02  0.51100000000E-03 0. -1.
        -11    1    3    3    0    0 -0.19134362074E+01 -0.18215412730E+02  0.13346323491E+02  0.22662454634E+02  0.51100000000E-03 0.  1.
         12    1    3    3    0    0  0.23802269115E+01 -0.11848668157E+02  0.43445585662E+01  0.12842570085E+02  0.00000000000E+00 0. -1.
</event>
<event>
 7    1  0.1113211E-011  0.5930195E+02  0.7816164E-02  0.1266605E+00
        -11   -1    0    0    0    0  0.00000000000E+00  0.00000000000E+00  0.45593999997E+02  0.45594000000E+02  0.51100000000E-03 0. -1.
         11   -1    0    0    0    0 -0.00000000000E+00 -0.00000000000E+00 -0.45593999997E+02  0.45594000000E+02  0.51100000000E-03 0.  1.
    9900012    2    1    2    0    0  0.28991279415E+02 -0.12780639545E+02  0.35889972166E+01  0.59301953987E+02  0.50000018164E+02 0.  0.
        -12    1    1    2    0    0 -0.28991279415E+02  0.12780639545E+02 -0.35889972166E+01  0.31886046013E+02  0.00000000000E+00 0.  1.
         11    1    3    3    0    0  0.23665741277E+02 -0.87498299099E+01  0.42026460186E+01  0.25579074797E+02  0.51100000000E-03 0. -1.
        -11    1    3    3    0    0 -0.46616994222E+01  0.22702364068E+01 -0.14555837048E+02  0.15451789776E+02  0.51100000000E-03 0.  1.
        -12    1    3    3    0    0  0.99872375606E+01 -0.63010460419E+01  0.13942188246E+02  0.18271089415E+02  0.00000000000E+00 0.  1.
</event>
<event>
 7    1  0.1113211E-011  0.5930195E+02  0.7816164E-02  0.1266605E+00
        -11   -1    0    0    0    0  0.00000000000E+00  0.00000000000E+00  0.45593999997E+02  0.45594000000E+02  0.51100000000E-03 0.  1.
         11   -1    0    0    0    0 -0.00000000000E+00 -0.00000000000E+00 -0.45593999997E+02  0.45594000000E+02  0.51100000000E-03 0. -1.
    9900012    2    1    2    0    0  0.15417955466E+02 -0.17166276385E+02 -0.22007401067E+02  0.59301951368E+02  0.50000013386E+02 0.  0.
        -12    1    1    2    0    0 -0.15417955466E+02  0.17166276385E+02  0.22007401067E+02  0.31886048632E+02  0.00000000000E+00 0.  1.
         11    1    3    3    0    0  0.19553624806E+02 -0.12120352556E+02 -0.15810705946E+02  0.27914612874E+02  0.51100000000E-03 0. -1.
        -11    1    3    3    0    0 -0.16056627504E+02 -0.77642332756E+01 -0.36060050082E+00  0.17838964044E+02  0.51100000000E-03 0.  1.
        -12    1    3    3    0    0  0.11920958165E+02  0.27183094468E+01 -0.58360946193E+01  0.13548374450E+02  0.00000000000E+00 0.  1.
</event>
<event>
 7    1  0.1113211E-011  0.5930193E+02  0.7816164E-02  0.1266605E+00
        -11   -1    0    0    0    0  0.00000000000E+00  0.00000000000E+00  0.45593999997E+02  0.45594000000E+02  0.51100000000E-03 0. -1.
         11   -1    0    0    0    0 -0.00000000000E+00 -0.00000000000E+00 -0.45593999997E+02  0.45594000000E+02  0.51100000000E-03 0.  1.
    9900012    2    1    2    0    0  0.22728560764E+02  0.19946372989E+02 -0.10113173456E+02  0.59301928634E+02  0.49999971926E+02 0.  0.
        -12    1    1    2    0    0 -0.22728560764E+02 -0.19946372989E+02  0.10113173456E+02  0.31886071366E+02  0.00000000000E+00 0.  1.
         11    1    3    3    0    0  0.21497584582E+02  0.12560472621E+01  0.61100906394E+01  0.22384302658E+02  0.51100000000E-03 0. -1.
        -11    1    3    3    0    0 -0.11391022896E+02  0.13993637801E+02 -0.34790816994E+01  0.18376107076E+02  0.51100000000E-03 0.  1.
         12    1    3    3    0    0  0.12621999078E+02  0.46966879259E+01 -0.12744182396E+02  0.18541518901E+02  0.00000000000E+00 0. -1.
</event>
<event>
 7    1  0.1113211E-011  0.5930204E+02  0.7816164E-02  0.1266604E+00
        -11   -1    0    0    0    0  0.00000000000E+00  0.00000000000E+00  0.45593999997E+02  0.45594000000E+02  0.51100000000E-03 0. -1.
         11   -1    0    0    0    0 -0.00000000000E+00 -0.00000000000E+00 -0.45593999997E+02  0.45594000000E+02  0.51100000000E-03 0.  1.
    9900012    2    1    2    0    0  0.14637327346E+02 -0.27611244212E+02 -0.63310459690E+01  0.59302042247E+02  0.50000179127E+02 0.  0.
        -12    1    1    2    0    0 -0.14637327346E+02  0.27611244212E+02  0.63310459690E+01  0.31885957753E+02  0.00000000000E+00 0.  1.
         11    1    3    3    0    0  0.68506873601E+01 -0.35865473028E+02 -0.62937299292E+00  0.36519312472E+02  0.51100000000E-03 0. -1.
        -11    1    3    3    0    0  0.26149025332E+01  0.36405234673E+01 -0.12374896566E+02  0.13161656113E+02  0.51100000000E-03 0.  1.
         12    1    3    3    0    0  0.51717374529E+01  0.46137053480E+01  0.66732235895E+01  0.96210736613E+01  0.00000000000E+00 0. -1.
</event>
<event>
 7    1  0.1113211E-011  0.5930188E+02  0.7816164E-02  0.1266605E+00
        -11   -1    0    0    0    0  0.00000000000E+00  0.00000000000E+00  0.45593999997E+02  0.45594000000E+02  0.51100000000E-03 0. -1.
         11   -1    0    0    0    0 -0.00000000000E+00 -0.00000000000E+00 -0.45593999997E+02  0.45594000000E+02  0.51100000000E-03 0.  1.
    9900012    2    1    2    0    0 -0.20827945075E+02  0.95399642648E+01  0.22179052368E+02  0.59301881106E+02  0.49999885246E+02 0.  0.
        -12    1    1    2    0    0  0.20827945075E+02 -0.95399642648E+01 -0.22179052368E+02  0.31886118894E+02  0.00000000000E+00 0.  1.
         11    1    3    3    0    0 -0.43993519865E+01  0.39953721622E+01  0.20653963884E+02  0.21491940838E+02  0.51100000000E-03 0. -1.
        -11    1    3    3    0    0 -0.16191796485E+01 -0.15335300271E+01 -0.14618407254E+02  0.14787538266E+02  0.51100000000E-03 0.  1.
        -12    1    3    3    0    0 -0.14809413440E+02  0.70781221298E+01  0.16143495737E+02  0.23022402002E+02  0.00000000000E+00 0.  1.
</event>
<event>
 7    1  0.1113211E-011  0.5930195E+02  0.7816164E-02  0.1266605E+00
        -11   -1    0    0    0    0  0.00000000000E+00  0.00000000000E+00  0.45593999997E+02  0.45594000000E+02  0.51100000000E-03 0.  1.
         11   -1    0    0    0    0 -0.00000000000E+00 -0.00000000000E+00 -0.45593999997E+02  0.45594000000E+02  0.51100000000E-03 0. -1.
    9900012    2    1    2    0    0 -0.96099907344E+01  0.16129694659E+02 -0.25772098303E+02  0.59301952540E+02  0.50000015524E+02 0.  0.
        -12    1    1    2    0    0  0.96099907344E+01 -0.16129694659E+02  0.25772098303E+02  0.31886047460E+02  0.00000000000E+00 0.  1.
         11    1    3    3    0    0  0.12937018488E+02  0.17508941041E+02  0.14794344945E+01  0.21820132686E+02  0.51100000000E-03 0.  1.
        -11    1    3    3    0    0 -0.17303419651E+02 -0.16708736486E+01 -0.27138582296E+02  0.32228912480E+02  0.51100000000E-03 0. -1.
        -12    1    3    3    0    0 -0.52435895721E+01  0.29162726644E+00 -0.11295050215E+00  0.52529073740E+01  0.00000000000E+00 0.  1.
</event>
<event>
 7    1  0.1113211E-011  0.5930200E+02  0.7816164E-02  0.1266605E+00
        -11   -1    0    0    0    0  0.00000000000E+00  0.00000000000E+00  0.45593999997E+02  0.45594000000E+02  0.51100000000E-03 0. -1.
         11   -1    0    0    0    0 -0.00000000000E+00 -0.00000000000E+00 -0.45593999997E+02  0.45594000000E+02  0.51100000000E-03 0.  1.
    9900012    2    1    2    0    0 -0.11213814339E+01  0.27775149079E+02  0.15620527280E+02  0.59301995622E+02  0.50000094095E+02 0.  0.
        -12    1    1    2    0    0  0.11213814339E+01 -0.27775149079E+02 -0.15620527280E+02  0.31886004378E+02  0.00000000000E+00 0.  1.
         11    1    3    3    0    0  0.61328368492E+01  0.14267655484E+02  0.32432826109E+02  0.35959225388E+02  0.51100000000E-03 0. -1.
        -11    1    3    3    0    0 -0.15945025033E+01  0.33408064198E+01 -0.77691673503E+01  0.86060087930E+01  0.51100000000E-03 0.  1.
         12    1    3    3    0    0 -0.56597157798E+01  0.10166687176E+02 -0.90431314780E+01  0.14736761441E+02  0.00000000000E+00 0. -1.
</event>
<event>
 7    1  0.1113211E-011  0.5930193E+02  0.7816164E-02  0.1266605E+00
        -11   -1    0    0    0    0  0.00000000000E+00  0.00000000000E+00  0.45593999997E+02  0.45594000000E+02  0.51100000000E-03 0.  1.
         11   -1    0    0    0    0 -0.00000000000E+00 -0.00000000000E+00 -0.45593999997E+02  0.45594000000E+02  0.51100000000E-03 0. -1.
    9900012    2    1    2    0    0 -0.29488350456E+01 -0.29054000476E+02 -0.12801981179E+02  0.59301932606E+02  0.49999979169E+02 0.  0.
        -12    1    1    2    0    0  0.29488350456E+01  0.29054000476E+02  0.12801981179E+02  0.31886067394E+02  0.00000000000E+00 0.  1.
         11    1    3    3    0    0  0.53170253388E+01 -0.64263040756E+01  0.11861560976E+02  0.14500509355E+02  0.51100000000E-03 0. -1.
        -11    1    3    3    0    0 -0.30686038030E+01 -0.28896174676E+02 -0.17272660539E+02  0.33804586118E+02  0.51100000000E-03 0.  1.
         12    1    3    3    0    0 -0.51972565814E+01  0.62684782761E+01 -0.73908816149E+01  0.10996837132E+02  0.00000000000E+00 0. -1.
</event>
<event>
 7    1  0.1113211E-011  0.5930207E+02  0.7816164E-02  0.1266604E+00
        -11   -1    0    0    0    0  0.00000000000E+00  0.00000000000E+00  0.45593999997E+02  0.45594000000E+02  0.51100000000E-03 0.  1.
         11   -1    0    0    0    0 -0.00000000000E+00 -0.00000000000E+00 -0.45593999997E+02  0.45594000000E+02  0.51100000000E-03 0. -1.
    9900012    2    1    2    0    0 -0.24130095125E+02 -0.12225615905E+02 -0.16881517602E+02  0.59302065616E+02  0.50000221748E+02 0.  0.
        -12    1    1    2    0    0  0.24130095125E+02  0.12225615905E+02  0.16881517602E+02  0.31885934384E+02  0.00000000000E+00 0.  1.
         11    1    3    3    0    0 -0.22256245244E+02  0.72615540325E+01 -0.23285594530E+02  0.33019532586E+02  0.51100000000E-03 0. -1.
        -11    1    3    3    0    0  0.70751626605E+01 -0.59664867805E+01  0.28450684862E+01  0.96825258134E+01  0.51100000000E-03 0.  1.
         12    1    3    3    0    0 -0.89490125416E+01 -0.13520683157E+02  0.35590084421E+01  0.16600007217E+02  0.00000000000E+00 0. -1.
</event>
<event>
 7    1  0.1113211E-011  0.5930193E+02  0.7816164E-02  0.1266605E+00
        -11   -1    0    0    0    0  0.00000000000E+00  0.00000000000E+00  0.45593999997E+02  0.45594000000E+02  0.51100000000E-03 0.  1.
         11   -1    0    0    0    0 -0.00000000000E+00 -0.00000000000E+00 -0.45593999997E+02  0.45594000000E+02  0.51100000000E-03 0. -1.
    9900012    2    1    2    0    0 -0.21297215030E+02 -0.13121824252E+02 -0.19772902490E+02  0.59301932312E+02  0.49999978633E+02 0.  0.
        -12    1    1    2    0    0  0.21297215030E+02  0.13121824252E+02  0.19772902490E+02  0.31886067688E+02  0.00000000000E+00 0.  1.
         11    1    3    3    0    0 -0.78284773385E+01 -0.92802816280E+01 -0.87648952583E+01  0.14974380578E+02  0.51100000000E-03 0. -1.
        -11    1    3    3    0    0 -0.13563322606E+02  0.11890626132E+02  0.79330519763E+01  0.19704923848E+02  0.51100000000E-03 0.  1.
        -12    1    3    3    0    0  0.94584914486E-01 -0.15732168757E+02 -0.18941059208E+02  0.24622627886E+02  0.00000000000E+00 0.  1.
</event>
<event>
 7    1  0.1113211E-011  0.5930194E+02  0.7816164E-02  0.1266605E+00
        -11   -1    0    0    0    0  0.00000000000E+00  0.00000000000E+00  0.45593999997E+02  0.45594000000E+02  0.51100000000E-03 0.  1.
         11   -1    0    0    0    0 -0.00000000000E+00 -0.00000000000E+00 -0.45593999997E+02  0.45594000000E+02  0.51100000000E-03 0. -1.
    9900012    2    1    2    0    0 -0.27759257217E+02  0.50957782346E+01  0.14838380939E+02  0.59301939316E+02  0.49999991407E+02 0.  0.
        -12    1    1    2    0    0  0.27759257217E+02 -0.50957782346E+01 -0.14838380939E+02  0.31886060684E+02  0.00000000000E+00 0.  1.
         11    1    3    3    0    0 -0.12453223712E+02 -0.87059048026E+01  0.38315772067E+00  0.15199420034E+02  0.51100000000E-03 0. -1.
        -11    1    3    3    0    0  0.16053727067E+01  0.11266587603E+02  0.22492415280E+02  0.25207577495E+02  0.51100000000E-03 0.  1.
        -12    1    3    3    0    0 -0.16911406211E+02  0.25350954340E+01 -0.80371920618E+01  0.18894941787E+02  0.00000000000E+00 0.  1.
</event>
<event>
 7    1  0.1113211E-011  0.5930195E+02  0.7816164E-02  0.1266605E+00
        -11   -1    0    0    0    0  0.00000000000E+00  0.00000000000E+00  0.45593999997E+02  0.45594000000E+02  0.51100000000E-03 0. -1.
         11   -1    0    0    0    0 -0.00000000000E+00 -0.00000000000E+00 -0.45593999997E+02  0.45594000000E+02  0.51100000000E-03 0.  1.
    9900012    2    1    2    0    0 -0.10157850022E+02 -0.78178861942E+01  0.29196219507E+02  0.59301945131E+02  0.50000002012E+02 0.  0.
        -12    1    1    2    0    0  0.10157850022E+02  0.78178861942E+01 -0.29196219507E+02  0.31886054869E+02  0.00000000000E+00 0.  1.
         11    1    3    3    0    0 -0.58566123982E+01 -0.16554344479E+02  0.25521298788E+02  0.30978749523E+02  0.51100000000E-03 0. -1.
        -11    1    3    3    0    0 -0.15168338097E+02  0.66099652242E+01 -0.32641253371E+00  0.16549219507E+02  0.51100000000E-03 0.  1.
        -12    1    3    3    0    0  0.10867100473E+02  0.21264930602E+01  0.40013332523E+01  0.11773976101E+02  0.00000000000E+00 0.  1.
</event>
<event>
 7    1  0.1113211E-011  0.5930216E+02  0.7816164E-02  0.1266604E+00
        -11   -1    0    0    0    0  0.00000000000E+00  0.00000000000E+00  0.45593999997E+02  0.45594000000E+02  0.51100000000E-03 0.  1.
         11   -1    0    0    0    0 -0.00000000000E+00 -0.00000000000E+00 -0.45593999997E+02  0.45594000000E+02  0.51100000000E-03 0. -1.
    9900012    2    1    2    0    0  0.40657010907E+01  0.25777855707E+02 -0.18321542474E+02  0.59302161625E+02  0.50000396844E+02 0.  0.
        -12    1    1    2    0    0 -0.40657010907E+01 -0.25777855707E+02  0.18321542474E+02  0.31885838375E+02  0.00000000000E+00 0.  1.
         11    1    3    3    0    0  0.57598227736E+01  0.19260211542E+02 -0.11586867818E+02  0.23203163860E+02  0.51100000000E-03 0. -1.
        -11    1    3    3    0    0 -0.16629354279E+02  0.14129995999E+00 -0.10179607089E+02  0.19498199664E+02  0.51100000000E-03 0.  1.
        -12    1    3    3    0    0  0.14935232596E+02  0.63763442050E+01  0.34449324327E+01  0.16600798101E+02  0.00000000000E+00 0.  1.
</event>
<event>
 7    1  0.1113211E-011  0.5930197E+02  0.7816164E-02  0.1266605E+00
        -11   -1    0    0    0    0  0.00000000000E+00  0.00000000000E+00  0.45593999997E+02  0.45594000000E+02  0.51100000000E-03 0. -1.
         11   -1    0    0    0    0 -0.00000000000E+00 -0.00000000000E+00 -0.45593999997E+02  0.45594000000E+02  0.51100000000E-03 0.  1.
    9900012    2    1    2    0    0  0.54346649377E+01  0.22355605936E+02  0.22077361894E+02  0.59301974723E+02  0.50000055982E+02 0.  0.
        -12    1    1    2    0    0 -0.54346649377E+01 -0.22355605936E+02 -0.22077361894E+02  0.31886025277E+02  0.00000000000E+00 0.  1.
         11    1    3    3    0    0 -0.18293856245E+02  0.52345162751E+01  0.80336584043E+01  0.20654418524E+02  0.51100000000E-03 0. -1.
        -11    1    3    3    0    0  0.11353530076E+02  0.12167072781E+02 -0.31037558947E+01  0.16928485052E+02  0.51100000000E-03 0.  1.
         12    1    3    3    0    0  0.12374991108E+02  0.49540168798E+01  0.17147459385E+02  0.21719071147E+02  0.00000000000E+00 0. -1.
</event>
<event>
 7    1  0.1113211E-011  0.5930200E+02  0.7816164E-02  0.1266605E+00
        -11   -1    0    0    0    0  0.00000000000E+00  0.00000000000E+00  0.45593999997E+02  0.45594000000E+02  0.51100000000E-03 0.  1.
         11   -1    0    0    0    0 -0.00000000000E+00 -0.00000000000E+00 -0.45593999997E+02  0.45594000000E+02  0.51100000000E-03 0. -1.
    9900012    2    1    2    0    0  0.15960594885E+02 -0.98572709066E+01 -0.25783918139E+02  0.59302002863E+02  0.50000107301E+02 0.  0.
        -12    1    1    2    0    0 -0.15960594885E+02  0.98572709066E+01  0.25783918139E+02  0.31885997137E+02  0.00000000000E+00 0.  1.
         11    1    3    3    0    0 -0.15231563025E+02 -0.42882772364E+01 -0.72071838955E+01  0.17387735155E+02  0.51100000000E-03 0. -1.
        -11    1    3    3    0    0  0.21504812267E+02 -0.10020506419E+02 -0.43244610469E+01  0.24115730616E+02  0.51100000000E-03 0.  1.
         12    1    3    3    0    0  0.96873456430E+01  0.44515127484E+01 -0.14252273197E+02  0.17798537092E+02  0.00000000000E+00 0. -1.
</event>
<event>
 7    1  0.1113211E-011  0.5930196E+02  0.7816164E-02  0.1266605E+00
        -11   -1    0    0    0    0  0.00000000000E+00  0.00000000000E+00  0.45593999997E+02  0.45594000000E+02  0.51100000000E-03 0. -1.
         11   -1    0    0    0    0 -0.00000000000E+00 -0.00000000000E+00 -0.45593999997E+02  0.45594000000E+02  0.51100000000E-03 0.  1.
    9900012    2    1    2    0    0 -0.19189295334E+02  0.76575660711E+01  0.24286876026E+02  0.59301957275E+02  0.50000024161E+02 0.  0.
        -12    1    1    2    0    0  0.19189295334E+02 -0.76575660711E+01 -0.24286876026E+02  0.31886042725E+02  0.00000000000E+00 0.  1.
         11    1    3    3    0    0 -0.49544458783E+01 -0.41199457309E+01  0.17749182645E+02  0.18882636776E+02  0.51100000000E-03 0. -1.
        -11    1    3    3    0    0  0.12808298189E+01  0.21194508114E+02  0.67116057246E+01  0.22268662979E+02  0.51100000000E-03 0.  1.
        -12    1    3    3    0    0 -0.15515679275E+02 -0.94169963121E+01 -0.17391234421E+00  0.18150657520E+02  0.00000000000E+00 0.  1.
</event>
<event>
 7    1  0.1113211E-011  0.5930192E+02  0.7816164E-02  0.1266605E+00
        -11   -1    0    0    0    0  0.00000000000E+00  0.00000000000E+00  0.45593999997E+02  0.45594000000E+02  0.51100000000E-03 0. -1.
         11   -1    0    0    0    0 -0.00000000000E+00 -0.00000000000E+00 -0.45593999997E+02  0.45594000000E+02  0.51100000000E-03 0.  1.
    9900012    2    1    2    0    0 -0.17461233089E+02 -0.24015172460E+02  0.11623210342E+02  0.59301918586E+02  0.49999953601E+02 0.  0.
        -12    1    1    2    0    0  0.17461233089E+02  0.24015172460E+02 -0.11623210342E+02  0.31886081414E+02  0.00000000000E+00 0.  1.
         11    1    3    3    0    0 -0.62197240516E+00 -0.13868034309E+02  0.10080869376E+02  0.17156140385E+02  0.51100000000E-03 0. -1.
        -11    1    3    3    0    0 -0.78790925504E+01  0.11536112469E+02  0.10028163125E+02  0.17196687072E+02  0.51100000000E-03 0.  1.
        -12    1    3    3    0    0 -0.89601681333E+01 -0.21683250621E+02 -0.84858221591E+01  0.24949091129E+02  0.00000000000E+00 0.  1.
</event>
<event>
 7    1  0.1113211E-011  0.5930195E+02  0.7816164E-02  0.1266605E+00
        -11   -1    0    0    0    0  0.00000000000E+00  0.00000000000E+00  0.45593999997E+02  0.45594000000E+02  0.51100000000E-03 0. -1.
         11   -1    0    0    0    0 -0.00000000000E+00 -0.00000000000E+00 -0.45593999997E+02  0.45594000000E+02  0.51100000000E-03 0.  1.
    9900012    2    1    2    0    0  0.23906551010E+02 -0.26077350885E+01  0.20937930092E+02  0.59301946936E+02  0.50000005303E+02 0.  0.
        -12    1    1    2    0    0 -0.23906551010E+02  0.26077350885E+01 -0.20937930092E+02  0.31886053064E+02  0.00000000000E+00 0.  1.
         11    1    3    3    0    0 -0.10988986255E+00 -0.62245029530E+01  0.44105158165E+01  0.76294929597E+01  0.51100000000E-03 0. -1.
        -11    1    3    3    0    0  0.92497491539E+00  0.18960471673E+02 -0.76283111239E+00  0.18998341407E+02  0.51100000000E-03 0.  1.
        -12    1    3    3    0    0  0.23091465957E+02 -0.15343703808E+02  0.17290245388E+02  0.32674112569E+02  0.00000000000E+00 0.  1.
</event>
