<event>
 7    1  0.5441610E-013  0.5052886E+02  0.7816164E-02  0.1300439E+00
        -11   -1    0    0    0    0  0.00000000000E+00  0.00000000000E+00  0.45593999997E+02  0.45594000000E+02  0.51100000000E-03 0. -1.
         11   -1    0    0    0    0 -0.00000000000E+00 -0.00000000000E+00 -0.45593999997E+02  0.45594000000E+02  0.51100000000E-03 0.  1.
    9900012    2    1    2    0    0 -0.37247752350E+02 -0.15302937163E+02  0.56205739043E+01  0.50528858445E+02  0.29999995731E+02 0.  0.
        -12    1    1    2    0    0  0.37247752350E+02  0.15302937163E+02 -0.56205739043E+01  0.40659141555E+02  0.00000000000E+00 0.  1.
         11    1    3    3    0    0 -0.24113478223E+02 -0.47927198880E+01  0.32340327002E+01  0.24796954726E+02  0.51100000000E-03 0. -1.
        -11    1    3    3    0    0 -0.99923218540E+01  0.35264542797E+01 -0.18064316179E+01  0.10749212588E+02  0.51100000000E-03 0.  1.
         12    1    3    3    0    0 -0.31419522729E+01 -0.14036671555E+02  0.41929728221E+01  0.14982691131E+02  0.00000000000E+00 0. -1.
</event>
<event>
 7    1  0.5441610E-013  0.5052885E+02  0.7816164E-02  0.1300439E+00
        -11   -1    0    0    0    0  0.00000000000E+00  0.00000000000E+00  0.45593999997E+02  0.45594000000E+02  0.51100000000E-03 0.  1.
         11   -1    0    0    0    0 -0.00000000000E+00 -0.00000000000E+00 -0.45593999997E+02  0.45594000000E+02  0.51100000000E-03 0. -1.
    9900012    2    1    2    0    0 -0.11286607887E+02 -0.13111701549E+02 -0.36794867822E+02  0.50528849331E+02  0.29999968025E+02 0.  0.
        -12    1    1    2    0    0  0.11286607887E+02  0.13111701549E+02  0.36794867822E+02  0.40659150669E+02  0.00000000000E+00 0.  1.
         11    1    3    3    0    0 -0.48774086372E+01  0.74031531957E+01 -0.11637602638E+02  0.14629750089E+02  0.51100000000E-03 0. -1.
        -11    1    3    3    0    0  0.36969274223E+01 -0.14768564139E+01 -0.49684132029E+01  0.63665930645E+01  0.51100000000E-03 0.  1.
         12    1    3    3    0    0 -0.10106126672E+02 -0.19037998331E+02 -0.20188851981E+02  0.29532506177E+02  0.00000000000E+00 0. -1.
</event>
<event>
 7    1  0.5441610E-013  0.5052887E+02  0.7816164E-02  0.1300439E+00
        -11   -1    0    0    0    0  0.00000000000E+00  0.00000000000E+00  0.45593999997E+02  0.45594000000E+02  0.51100000000E-03 0.  1.
         11   -1    0    0    0    0 -0.00000000000E+00 -0.00000000000E+00 -0.45593999997E+02  0.45594000000E+02  0.51100000000E-03 0. -1.
    9900012    2    1    2    0    0  0.12839652586E+02  0.83383040846E+01 -0.37666712626E+02  0.50528865312E+02  0.30000016603E+02 0.  0.
        -12    1    1    2    0    0 -0.12839652586E+02 -0.83383040846E+01  0.37666712626E+02  0.40659134688E+02  0.00000000000E+00 0.  1.
         11    1    3    3    0    0  0.63940190009E+01  0.39165129843E+00  0.10450892315E+01  0.64906919112E+01  0.51100000000E-03 0. -1.
        -11    1    3    3    0    0  0.87479175052E+01  0.12153073019E+02 -0.21711134096E+02  0.26374165171E+02  0.51100000000E-03 0.  1.
        -12    1    3    3    0    0 -0.23022839202E+01 -0.42064202330E+01 -0.17000667761E+02  0.17664008230E+02  0.00000000000E+00 0.  1.
</event>
<event>
 7    1  0.5441610E-013  0.5052886E+02  0.7816164E-02  0.1300439E+00
        -11   -1    0    0    0    0  0.00000000000E+00  0.00000000000E+00  0.45593999997E+02  0.45594000000E+02  0.51100000000E-03 0.  1.
         11   -1    0    0    0    0 -0.00000000000E+00 -0.00000000000E+00 -0.45593999997E+02  0.45594000000E+02  0.51100000000E-03 0. -1.
    9900012    2    1    2    0    0 -0.55096353437E+01 -0.31162588472E+02 -0.25528466534E+02  0.50528860739E+02  0.30000002702E+02 0.  0.
        -12    1    1    2    0    0  0.55096353437E+01  0.31162588472E+02  0.25528466534E+02  0.40659139261E+02  0.00000000000E+00 0.  1.
         11    1    3    3    0    0 -0.86624622504E+01 -0.83839853766E+01 -0.80819259802E+01  0.14513682884E+02  0.51100000000E-03 0. -1.
        -11    1    3    3    0    0 -0.33152271969E+01  0.97581824011E-01  0.31401231356E+01  0.45673435547E+01  0.51100000000E-03 0.  1.
        -12    1    3    3    0    0  0.64680541035E+01 -0.22876184919E+02 -0.20586663689E+02  0.31447834301E+02  0.00000000000E+00 0.  1.
</event>
<event>
 7    1  0.5441610E-013  0.5052887E+02  0.7816164E-02  0.1300439E+00
        -11   -1    0    0    0    0  0.00000000000E+00  0.00000000000E+00  0.45593999997E+02  0.45594000000E+02  0.51100000000E-03 0.  1.
         11   -1    0    0    0    0 -0.00000000000E+00 -0.00000000000E+00 -0.45593999997E+02  0.45594000000E+02  0.51100000000E-03 0. -1.
    9900012    2    1    2    0    0 -0.86468713494E+01  0.59791404650E+01 -0.39276536147E+02  0.50528870686E+02  0.30000032938E+02 0.  0.
        -12    1    1    2    0    0  0.86468713494E+01 -0.59791404650E+01  0.39276536147E+02  0.40659129314E+02  0.00000000000E+00 0.  1.
         11    1    3    3    0    0 -0.25259969014E+01 -0.21952733910E+01 -0.12729492328E+02  0.13162061419E+02  0.51100000000E-03 0. -1.
        -11    1    3    3    0    0 -0.13464131874E+02 -0.79763269018E+00 -0.85857299323E+01  0.15988552898E+02  0.51100000000E-03 0.  1.
        -12    1    3    3    0    0  0.73432574264E+01  0.89720465461E+01 -0.17961313887E+02  0.21378256370E+02  0.00000000000E+00 0.  1.
</event>
<event>
 7    1  0.5441610E-013  0.5052886E+02  0.7816164E-02  0.1300439E+00
        -11   -1    0    0    0    0  0.00000000000E+00  0.00000000000E+00  0.45593999997E+02  0.45594000000E+02  0.51100000000E-03 0. -1.
         11   -1    0    0    0    0 -0.00000000000E+00 -0.00000000000E+00 -0.45593999997E+02  0.45594000000E+02  0.51100000000E-03 0.  1.
    9900012    2    1    2    0    0  0.31468374386E+02 -0.22629273722E+02  0.12280994483E+02  0.50528862760E+02  0.30000008844E+02 0.  0.
        -12    1    1    2    0    0 -0.31468374386E+02  0.22629273722E+02 -0.12280994483E+02  0.40659137240E+02  0.00000000000E+00 0.  1.
         11    1    3    3    0    0  0.69571092648E+01  0.50616887492E+01  0.13184312364E+01  0.87040406423E+01  0.51100000000E-03 0. -1.
        -11    1    3    3    0    0  0.41112055386E+01 -0.92290882031E+01 -0.35617266698E+01  0.10712795021E+02  0.51100000000E-03 0.  1.
         12    1    3    3    0    0  0.20400059582E+02 -0.18461874268E+02  0.14524289917E+02  0.31112027096E+02  0.00000000000E+00 0. -1.
</event>
<event>
 7    1  0.5441610E-013  0.5052886E+02  0.7816164E-02  0.1300439E+00
        -11   -1    0    0    0    0  0.00000000000E+00  0.00000000000E+00  0.45593999997E+02  0.45594000000E+02  0.51100000000E-03 0.  1.
         11   -1    0    0    0    0 -0.00000000000E+00 -0.00000000000E+00 -0.45593999997E+02  0.45594000000E+02  0.51100000000E-03 0. -1.
    9900012    2    1    2    0    0 -0.24294869730E+02  0.13151790275E+02 -0.29832126164E+02  0.50528855468E+02  0.29999986680E+02 0.  0.
        -12    1    1    2    0    0  0.24294869730E+02 -0.13151790275E+02  0.29832126164E+02  0.40659144532E+02  0.00000000000E+00 0.  1.
         11    1    3    3    0    0 -0.15570208585E+02 -0.21014944686E+01 -0.17162671400E+02  0.23268110456E+02  0.51100000000E-03 0. -1.
        -11    1    3    3    0    0 -0.11901319025E+02  0.11853354899E+02 -0.14568833322E+02  0.22234979683E+02  0.51100000000E-03 0.  1.
        -12    1    3    3    0    0  0.31766578796E+01  0.33999298447E+01  0.18993785577E+01  0.50257653286E+01  0.00000000000E+00 0.  1.
</event>
<event>
 7    1  0.5441610E-013  0.5052891E+02  0.7816164E-02  0.1300439E+00
        -11   -1    0    0    0    0  0.00000000000E+00  0.00000000000E+00  0.45593999997E+02  0.45594000000E+02  0.51100000000E-03 0.  1.
         11   -1    0    0    0    0 -0.00000000000E+00 -0.00000000000E+00 -0.45593999997E+02  0.45594000000E+02  0.51100000000E-03 0. -1.
    9900012    2    1    2    0    0 -0.12290446837E+02  0.27821680529E+02 -0.26982600234E+02  0.50528908688E+02  0.30000148449E+02 0.  0.
        -12    1    1    2    0    0  0.12290446837E+02 -0.27821680529E+02  0.26982600234E+02  0.40659091312E+02  0.00000000000E+00 0.  1.
         11    1    3    3    0    0  0.49273036178E+01  0.35047193912E+00 -0.12521485690E+00  0.49413389424E+01  0.51100000000E-03 0. -1.
        -11    1    3    3    0    0 -0.27811065423E+01  0.15493466078E+02 -0.44364183541E+01  0.16354322144E+02  0.51100000000E-03 0.  1.
         12    1    3    3    0    0 -0.14436643913E+02  0.11977742512E+02 -0.22420967023E+02  0.29233247602E+02  0.00000000000E+00 0. -1.
</event>
<event>
 7    1  0.5441610E-013  0.5052887E+02  0.7816164E-02  0.1300439E+00
        -11   -1    0    0    0    0  0.00000000000E+00  0.00000000000E+00  0.45593999997E+02  0.45594000000E+02  0.51100000000E-03 0. -1.
         11   -1    0    0    0    0 -0.00000000000E+00 -0.00000000000E+00 -0.45593999997E+02  0.45594000000E+02  0.51100000000E-03 0.  1.
    9900012    2    1    2    0    0  0.75547062123E+01  0.38665157603E+02  0.10054699813E+02  0.50528868348E+02  0.30000025830E+02 0.  0.
        -12    1    1    2    0    0 -0.75547062123E+01 -0.38665157603E+02 -0.10054699813E+02  0.40659131652E+02  0.00000000000E+00 0.  1.
         11    1    3    3    0    0  0.20072234506E+01  0.89204268534E+01 -0.12466007290E+01  0.92280536879E+01  0.51100000000E-03 0. -1.
        -11    1    3    3    0    0  0.60721255248E+01  0.89321301135E+01 -0.75798484593E+01  0.13194989946E+02  0.51100000000E-03 0.  1.
        -12    1    3    3    0    0 -0.52464276305E+00  0.20812600636E+02  0.18881149001E+02  0.28105824714E+02  0.00000000000E+00 0.  1.
</event>
<event>
 7    1  0.5441610E-013  0.5052885E+02  0.7816164E-02  0.1300439E+00
        -11   -1    0    0    0    0  0.00000000000E+00  0.00000000000E+00  0.45593999997E+02  0.45594000000E+02  0.51100000000E-03 0.  1.
         11   -1    0    0    0    0 -0.00000000000E+00 -0.00000000000E+00 -0.45593999997E+02  0.45594000000E+02  0.51100000000E-03 0. -1.
    9900012    2    1    2    0    0 -0.25753581821E+02  0.30619613720E+02 -0.72359399146E+01  0.50528849155E+02  0.29999967493E+02 0.  0.
        -12    1    1    2    0    0  0.25753581821E+02 -0.30619613720E+02  0.72359399146E+01  0.40659150845E+02  0.00000000000E+00 0.  1.
         11    1    3    3    0    0 -0.24996426477E+01  0.11453836338E+02 -0.13674351583E+01  0.11802900465E+02  0.51100000000E-03 0. -1.
        -11    1    3    3    0    0 -0.31386645121E+01  0.15708546042E+02  0.32927792780E+01  0.16353960661E+02  0.51100000000E-03 0.  1.
         12    1    3    3    0    0 -0.20115274661E+02  0.34572313403E+01 -0.91612840343E+01  0.22371988029E+02  0.00000000000E+00 0. -1.
</event>
<event>
 7    1  0.5441610E-013  0.5052886E+02  0.7816164E-02  0.1300439E+00
        -11   -1    0    0    0    0  0.00000000000E+00  0.00000000000E+00  0.45593999997E+02  0.45594000000E+02  0.51100000000E-03 0.  1.
         11   -1    0    0    0    0 -0.00000000000E+00 -0.00000000000E+00 -0.45593999997E+02  0.45594000000E+02  0.51100000000E-03 0. -1.
    9900012    2    1    2    0    0 -0.12071426511E+02  0.18855113812E+02 -0.33940109083E+02  0.50528860075E+02  0.30000000684E+02 0.  0.
        -12    1    1    2    0    0  0.12071426511E+02 -0.18855113812E+02  0.33940109083E+02  0.40659139925E+02  0.00000000000E+00 0.  1.
         11    1    3    3    0    0 -0.37551856805E+01  0.86736247461E+01 -0.59511122172E+01  0.11169105721E+02  0.51100000000E-03 0. -1.
        -11    1    3    3    0    0  0.39597229199E+00 -0.52948715170E+01  0.96127372737E+00  0.53959712636E+01  0.51100000000E-03 0.  1.
         12    1    3    3    0    0 -0.87122131224E+01  0.15476360583E+02 -0.28950270593E+02  0.33963783090E+02  0.00000000000E+00 0. -1.
</event>
<event>
 7    1  0.5441610E-013  0.5052886E+02  0.7816164E-02  0.1300439E+00
        -11   -1    0    0    0    0  0.00000000000E+00  0.00000000000E+00  0.45593999997E+02  0.45594000000E+02  0.51100000000E-03 0.  1.
         11   -1    0    0    0    0 -0.00000000000E+00 -0.00000000000E+00 -0.45593999997E+02  0.45594000000E+02  0.51100000000E-03 0. -1.
    9900012    2    1    2    0    0  0.29701607741E+02  0.13555134425E+02 -0.24233005417E+02  0.50528859290E+02  0.29999998299E+02 0.  0.
        -12    1    1    2    0    0 -0.29701607741E+02 -0.13555134425E+02  0.24233005417E+02  0.40659140710E+02  0.00000000000E+00 0.  1.
         11    1    3    3    0    0  0.10802757176E+01  0.17893031841E+01  0.43132440550E+01  0.47929819580E+01  0.51100000000E-03 0. -1.
        -11    1    3    3    0    0  0.12103217878E+02 -0.39734321528E+01 -0.80768169884E+01  0.15083468401E+02  0.51100000000E-03 0.  1.
         12    1    3    3    0    0  0.16518114146E+02  0.15739263394E+02 -0.20469432483E+02  0.30652408932E+02  0.00000000000E+00 0. -1.
</event>
<event>
 7    1  0.5441610E-013  0.5052885E+02  0.7816164E-02  0.1300439E+00
        -11   -1    0    0    0    0  0.00000000000E+00  0.00000000000E+00  0.45593999997E+02  0.45594000000E+02  0.51100000000E-03 0.  1.
         11   -1    0    0    0    0 -0.00000000000E+00 -0.00000000000E+00 -0.45593999997E+02  0.45594000000E+02  0.51100000000E-03 0. -1.
    9900012    2    1    2    0    0 -0.25371983076E+02 -0.31760690539E+02 -0.82920392376E+00  0.50528848904E+02  0.29999966727E+02 0.  0.
        -12    1    1    2    0    0  0.25371983076E+02  0.31760690539E+02  0.82920392376E+00  0.40659151096E+02  0.00000000000E+00 0.  1.
         11    1    3    3    0    0 -0.12278180309E+02 -0.74204464193E+01 -0.80971218894E+01  0.16473618908E+02  0.51100000000E-03 0. -1.
        -11    1    3    3    0    0 -0.11416876757E+02 -0.26584787735E+02  0.31905351321E+01  0.29107997673E+02  0.51100000000E-03 0.  1.
         12    1    3    3    0    0 -0.16769260100E+01  0.22445436158E+01  0.40773828335E+01  0.49472323230E+01  0.00000000000E+00 0. -1.
</event>
<event>
 7    1  0.5441610E-013  0.5052886E+02  0.7816164E-02  0.1300439E+00
        -11   -1    0    0    0    0  0.00000000000E+00  0.00000000000E+00  0.45593999997E+02  0.45594000000E+02  0.51100000000E-03 0.  1.
         11   -1    0    0    0    0 -0.00000000000E+00 -0.00000000000E+00 -0.45593999997E+02  0.45594000000E+02  0.51100000000E-03 0. -1.
    9900012    2    1    2    0    0 -0.33733550467E+02 -0.56396414057E+01 -0.21986543282E+02  0.50528855054E+02  0.29999985422E+02 0.  0.
        -12    1    1    2    0    0  0.33733550467E+02  0.56396414057E+01  0.21986543282E+02  0.40659144946E+02  0.00000000000E+00 0.  1.
         11    1    3    3    0    0 -0.27667050555E+02  0.31325981896E+01 -0.13157019512E+02  0.30795876681E+02  0.51100000000E-03 0. -1.
        -11    1    3    3    0    0 -0.94976418008E+01 -0.10102693017E+02 -0.60867923738E+01  0.15143270705E+02  0.51100000000E-03 0.  1.
        -12    1    3    3    0    0  0.34311418893E+01  0.13304534219E+01 -0.27427313958E+01  0.45897076685E+01  0.00000000000E+00 0.  1.
</event>
<event>
 7    1  0.5441610E-013  0.5052886E+02  0.7816164E-02  0.1300439E+00
        -11   -1    0    0    0    0  0.00000000000E+00  0.00000000000E+00  0.45593999997E+02  0.45594000000E+02  0.51100000000E-03 0.  1.
         11   -1    0    0    0    0 -0.00000000000E+00 -0.00000000000E+00 -0.45593999997E+02  0.45594000000E+02  0.51100000000E-03 0. -1.
    9900012    2    1    2    0    0  0.10233030693E+02  0.10412657386E+02 -0.37947697062E+02  0.50528855109E+02  0.29999985588E+02 0.  0.
        -12    1    1    2    0    0 -0.10233030693E+02 -0.10412657386E+02  0.37947697062E+02  0.40659144891E+02  0.00000000000E+00 0.  1.
         11    1    3    3    0    0  0.40626915172E+00 -0.72503721770E+01 -0.15728042632E+01  0.74301187635E+01  0.51100000000E-03 0.  1.
        -11    1    3    3    0    0  0.39985994701E+01  0.18463479557E+01 -0.16304559462E+02  0.16888944846E+02  0.51100000000E-03 0. -1.
        -12    1    3    3    0    0  0.58281620710E+01  0.15816681607E+02 -0.20070333337E+02  0.26209791499E+02  0.00000000000E+00 0.  1.
</event>
<event>
 7    1  0.5441610E-013  0.5052886E+02  0.7816164E-02  0.1300439E+00
        -11   -1    0    0    0    0  0.00000000000E+00  0.00000000000E+00  0.45593999997E+02  0.45594000000E+02  0.51100000000E-03 0.  1.
         11   -1    0    0    0    0 -0.00000000000E+00 -0.00000000000E+00 -0.45593999997E+02  0.45594000000E+02  0.51100000000E-03 0. -1.
    9900012    2    1    2    0    0 -0.26532283955E+02 -0.21723906277E+02 -0.21846630254E+02  0.50528862659E+02  0.30000008539E+02 0.  0.
        -12    1    1    2    0    0  0.26532283955E+02  0.21723906277E+02  0.21846630254E+02  0.40659137341E+02  0.00000000000E+00 0.  1.
         11    1    3    3    0    0 -0.63551524969E+01 -0.49336698274E+01  0.34771137838E+01  0.87646666651E+01  0.51100000000E-03 0.  1.
        -11    1    3    3    0    0  0.35647502437E+01 -0.45030849503E+00 -0.62301775546E+01  0.71920327213E+01  0.51100000000E-03 0. -1.
         12    1    3    3    0    0 -0.23741881702E+02 -0.16339927955E+02 -0.19093566483E+02  0.34572163273E+02  0.00000000000E+00 0. -1.
</event>
<event>
 7    1  0.5441610E-013  0.5052887E+02  0.7816164E-02  0.1300439E+00
        -11   -1    0    0    0    0  0.00000000000E+00  0.00000000000E+00  0.45593999997E+02  0.45594000000E+02  0.51100000000E-03 0.  1.
         11   -1    0    0    0    0 -0.00000000000E+00 -0.00000000000E+00 -0.45593999997E+02  0.45594000000E+02  0.51100000000E-03 0. -1.
    9900012    2    1    2    0    0  0.33853453213E+02 -0.84039752353E+00 -0.22503392492E+02  0.50528865281E+02  0.30000016508E+02 0.  0.
        -12    1    1    2    0    0 -0.33853453213E+02  0.84039752353E+00  0.22503392492E+02  0.40659134719E+02  0.00000000000E+00 0.  1.
         11    1    3    3    0    0 -0.50685688745E+01  0.14097658113E+01 -0.43464308616E+01  0.68241696619E+01  0.51100000000E-03 0. -1.
        -11    1    3    3    0    0  0.11688556924E+02  0.23412963003E+01 -0.34232184017E+01  0.12402518124E+02  0.51100000000E-03 0.  1.
        -12    1    3    3    0    0  0.27233465164E+02 -0.45914596352E+01 -0.14733743229E+02  0.31302177495E+02  0.00000000000E+00 0.  1.
</event>
<event>
 7    1  0.5441610E-013  0.5052886E+02  0.7816164E-02  0.1300439E+00
        -11   -1    0    0    0    0  0.00000000000E+00  0.00000000000E+00  0.45593999997E+02  0.45594000000E+02  0.51100000000E-03 0. -1.
         11   -1    0    0    0    0 -0.00000000000E+00 -0.00000000000E+00 -0.45593999997E+02  0.45594000000E+02  0.51100000000E-03 0.  1.
    9900012    2    1    2    0    0  0.33828583432E+02  0.20617473388E+02 -0.91494542725E+01  0.50528858600E+02  0.29999996200E+02 0.  0.
        -12    1    1    2    0    0 -0.33828583432E+02 -0.20617473388E+02  0.91494542725E+01  0.40659141400E+02  0.00000000000E+00 0.  1.
         11    1    3    3    0    0  0.17704948195E+02  0.21636230358E+02 -0.76575154937E+01  0.28986707272E+02  0.51100000000E-03 0. -1.
        -11    1    3    3    0    0  0.96914173540E+01  0.17655673236E+00  0.61521862146E+01  0.11480598333E+02  0.51100000000E-03 0.  1.
        -12    1    3    3    0    0  0.64322178828E+01 -0.11953137021E+01 -0.76441249934E+01  0.10061552994E+02  0.00000000000E+00 0.  1.
</event>
<event>
 7    1  0.5441610E-013  0.5052887E+02  0.7816164E-02  0.1300439E+00
        -11   -1    0    0    0    0  0.00000000000E+00  0.00000000000E+00  0.45593999997E+02  0.45594000000E+02  0.51100000000E-03 0. -1.
         11   -1    0    0    0    0 -0.00000000000E+00 -0.00000000000E+00 -0.45593999997E+02  0.45594000000E+02  0.51100000000E-03 0.  1.
    9900012    2    1    2    0    0 -0.23968484929E+02 -0.26722811735E+02  0.19093661451E+02  0.50528870097E+02  0.30000031148E+02 0.  0.
        -12    1    1    2    0    0  0.23968484929E+02  0.26722811735E+02 -0.19093661451E+02  0.40659129903E+02  0.00000000000E+00 0.  1.
         11    1    3    3    0    0 -0.13995036304E+02  0.20879867040E+01  0.73803603629E+01  0.15959024061E+02  0.51100000000E-03 0. -1.
        -11    1    3    3    0    0 -0.27611114843E+01 -0.49547709377E+01  0.73243767747E+01  0.92639077647E+01  0.51100000000E-03 0.  1.
        -12    1    3    3    0    0 -0.72123371408E+01 -0.23856027502E+02  0.43889243134E+01  0.25305938272E+02  0.00000000000E+00 0.  1.
</event>
<event>
 7    1  0.5441610E-013  0.5052888E+02  0.7816164E-02  0.1300439E+00
        -11   -1    0    0    0    0  0.00000000000E+00  0.00000000000E+00  0.45593999997E+02  0.45594000000E+02  0.51100000000E-03 0. -1.
         11   -1    0    0    0    0 -0.00000000000E+00 -0.00000000000E+00 -0.45593999997E+02  0.45594000000E+02  0.51100000000E-03 0.  1.
    9900012    2    1    2    0    0 -0.37683363024E+02  0.91803788599E+01  0.12200372272E+02  0.50528876935E+02  0.30000051932E+02 0.  0.
        -12    1    1    2    0    0  0.37683363024E+02 -0.91803788599E+01 -0.12200372272E+02  0.40659123065E+02  0.00000000000E+00 0.  1.
         11    1    3    3    0    0 -0.16100353433E+02  0.12527479976E+01 -0.14390619830E+01  0.16213008909E+02  0.51100000000E-03 0. -1.
        -11    1    3    3    0    0 -0.22659791679E+02 -0.71798388694E+00  0.11089041319E+02  0.25237838605E+02  0.51100000000E-03 0.  1.
        -12    1    3    3    0    0  0.10767820881E+01  0.86456147492E+01  0.25503929357E+01  0.90780294218E+01  0.00000000000E+00 0.  1.
</event>
<event>
 7    1  0.5441610E-013  0.5052886E+02  0.7816164E-02  0.1300439E+00
        -11   -1    0    0    0    0  0.00000000000E+00  0.00000000000E+00  0.45593999997E+02  0.45594000000E+02  0.51100000000E-03 0.  1.
         11   -1    0    0    0    0 -0.00000000000E+00 -0.00000000000E+00 -0.45593999997E+02  0.45594000000E+02  0.51100000000E-03 0. -1.
    9900012    2    1    2    0    0  0.13671310251E+02  0.33946246950E+02  0.17717603252E+02  0.50528857474E+02  0.29999992777E+02 0.  0.
        -12    1    1    2    0    0 -0.13671310251E+02 -0.33946246950E+02 -0.17717603252E+02  0.40659142526E+02  0.00000000000E+00 0.  1.
         11    1    3    3    0    0 -0.47005335621E+00  0.16625855326E+01  0.74380854990E+01  0.76361153057E+01  0.51100000000E-03 0. -1.
        -11    1    3    3    0    0  0.27127568278E+01  0.28710712452E+01  0.10625484329E+02  0.11335917130E+02  0.51100000000E-03 0.  1.
         12    1    3    3    0    0  0.11428606779E+02  0.29412590173E+02 -0.34596657632E+00  0.31556825037E+02  0.00000000000E+00 0. -1.
</event>
<event>
 7    1  0.5441610E-013  0.5052888E+02  0.7816164E-02  0.1300439E+00
        -11   -1    0    0    0    0  0.00000000000E+00  0.00000000000E+00  0.45593999997E+02  0.45594000000E+02  0.51100000000E-03 0. -1.
         11   -1    0    0    0    0 -0.00000000000E+00 -0.00000000000E+00 -0.45593999997E+02  0.45594000000E+02  0.51100000000E-03 0.  1.
    9900012    2    1    2    0    0 -0.93035101672E+01 -0.64374394807E+01  0.39053405667E+02  0.50528875283E+02  0.30000046911E+02 0.  0.
        -12    1    1    2    0    0  0.93035101672E+01  0.64374394807E+01 -0.39053405667E+02  0.40659124717E+02  0.00000000000E+00 0.  1.
         11    1    3    3    0    0  0.24440453660E+01  0.45907916855E+01  0.40289847114E+00  0.52164215215E+01  0.51100000000E-03 0. -1.
        -11    1    3    3    0    0  0.14353787786E+01  0.35654618443E+01  0.46384010365E+01  0.60239185617E+01  0.51100000000E-03 0.  1.
        -12    1    3    3    0    0 -0.13182934312E+02 -0.14593693010E+02  0.34012106160E+02  0.39288535200E+02  0.00000000000E+00 0.  1.
</event>
<event>
 7    1  0.5441610E-013  0.5052878E+02  0.7816164E-02  0.1300439E+00
        -11   -1    0    0    0    0  0.00000000000E+00  0.00000000000E+00  0.45593999997E+02  0.45594000000E+02  0.51100000000E-03 0.  1.
         11   -1    0    0    0    0 -0.00000000000E+00 -0.00000000000E+00 -0.45593999997E+02  0.45594000000E+02  0.51100000000E-03 0. -1.
    9900012    2    1    2    0    0  0.11673253718E+02  0.10379196670E+02 -0.37539036027E+02  0.50528784541E+02  0.29999771090E+02 0.  0.
        -12    1    1    2    0    0 -0.11673253718E+02 -0.10379196670E+02  0.37539036027E+02  0.40659215459E+02  0.00000000000E+00 0.  1.
         11    1    3    3    0    0  0.12258915347E+02  0.15702134828E+02 -0.25787420826E+02  0.32585719522E+02  0.51100000000E-03 0. -1.
        -11    1    3    3    0    0 -0.58257271152E+01 -0.61586387801E+00 -0.26381442978E+01  0.64248105291E+01  0.51100000000E-03 0.  1.
        -12    1    3    3    0    0  0.52400654862E+01 -0.47070742805E+01 -0.91134709041E+01  0.11518254490E+02  0.00000000000E+00 0.  1.
</event>
<event>
 7    1  0.5441610E-013  0.5052887E+02  0.7816164E-02  0.1300439E+00
        -11   -1    0    0    0    0  0.00000000000E+00  0.00000000000E+00  0.45593999997E+02  0.45594000000E+02  0.51100000000E-03 0.  1.
         11   -1    0    0    0    0 -0.00000000000E+00 -0.00000000000E+00 -0.45593999997E+02  0.45594000000E+02  0.51100000000E-03 0. -1.
    9900012    2    1    2    0    0  0.16300832464E+02  0.14681293783E+02 -0.34233134660E+02  0.50528867756E+02  0.30000024033E+02 0.  0.
        -12    1    1    2    0    0 -0.16300832464E+02 -0.14681293783E+02  0.34233134660E+02  0.40659132244E+02  0.00000000000E+00 0.  1.
         11    1    3    3    0    0 -0.65918712062E+01  0.31451038678E+01 -0.15399313169E+02  0.17043570362E+02  0.51100000000E-03 0.  1.
        -11    1    3    3    0    0  0.11259503213E+01  0.95328903178E+00 -0.58225194521E+01  0.60065178877E+01  0.51100000000E-03 0. -1.
        -12    1    3    3    0    0  0.21766753349E+02  0.10582900883E+02 -0.13011302039E+02  0.27478779507E+02  0.00000000000E+00 0.  1.
</event>
<event>
 7    1  0.5441610E-013  0.5052879E+02  0.7816164E-02  0.1300439E+00
        -11   -1    0    0    0    0  0.00000000000E+00  0.00000000000E+00  0.45593999997E+02  0.45594000000E+02  0.51100000000E-03 0.  1.
         11   -1    0    0    0    0 -0.00000000000E+00 -0.00000000000E+00 -0.45593999997E+02  0.45594000000E+02  0.51100000000E-03 0. -1.
    9900012    2    1    2    0    0 -0.19679696512E+02  0.56594538448E+01 -0.35126216899E+02  0.50528794570E+02  0.29999801573E+02 0.  0.
        -12    1    1    2    0    0  0.19679696512E+02 -0.56594538448E+01  0.35126216899E+02  0.40659205430E+02  0.00000000000E+00 0.  1.
         11    1    3    3    0    0 -0.12115904538E+02  0.86615638898E+01 -0.12969428107E+02  0.19749022696E+02  0.51100000000E-03 0. -1.
        -11    1    3    3    0    0  0.16704396914E+00  0.51587969541E+01  0.79556098317E+00  0.52224522248E+01  0.51100000000E-03 0.  1.
        -12    1    3    3    0    0 -0.77308359434E+01 -0.81609069991E+01 -0.22952349775E+02  0.25557319649E+02  0.00000000000E+00 0.  1.
</event>
<event>
 7    1  0.5441610E-013  0.5052887E+02  0.7816164E-02  0.1300439E+00
        -11   -1    0    0    0    0  0.00000000000E+00  0.00000000000E+00  0.45593999997E+02  0.45594000000E+02  0.51100000000E-03 0.  1.
         11   -1    0    0    0    0 -0.00000000000E+00 -0.00000000000E+00 -0.45593999997E+02  0.45594000000E+02  0.51100000000E-03 0. -1.
    9900012    2    1    2    0    0 -0.26535365317E+02  0.15053372974E+01 -0.30769685475E+02  0.50528865761E+02  0.30000017967E+02 0.  0.
        -12    1    1    2    0    0  0.26535365317E+02 -0.15053372974E+01  0.30769685475E+02  0.40659134239E+02  0.00000000000E+00 0.  1.
         11    1    3    3    0    0 -0.79034134907E+01 -0.60143496147E+00 -0.13384377528E+02  0.15555295911E+02  0.51100000000E-03 0. -1.
        -11    1    3    3    0    0 -0.52418998149E+01  0.10408064744E+02 -0.15069417292E+02  0.19049741814E+02  0.51100000000E-03 0.  1.
        -12    1    3    3    0    0 -0.13390052011E+02 -0.83012924855E+01 -0.23158906550E+01  0.15923828036E+02  0.00000000000E+00 0.  1.
</event>
<event>
 7    1  0.5441610E-013  0.5052887E+02  0.7816164E-02  0.1300439E+00
        -11   -1    0    0    0    0  0.00000000000E+00  0.00000000000E+00  0.45593999997E+02  0.45594000000E+02  0.51100000000E-03 0.  1.
         11   -1    0    0    0    0 -0.00000000000E+00 -0.00000000000E+00 -0.45593999997E+02  0.45594000000E+02  0.51100000000E-03 0. -1.
    9900012    2    1    2    0    0 -0.98097578517E+01  0.21219455685E+02 -0.33266622785E+02  0.50528870150E+02  0.30000031308E+02 0.  0.
        -12    1    1    2    0    0  0.98097578517E+01 -0.21219455685E+02  0.33266622785E+02  0.40659129850E+02  0.00000000000E+00 0.  1.
         11    1    3    3    0    0 -0.57780914279E+01  0.11274416758E+02 -0.31532708690E+01  0.13055341099E+02  0.51100000000E-03 0. -1.
        -11    1    3    3    0    0  0.70277601102E+01  0.38586418895E+01 -0.52333762488E+01  0.95742757752E+01  0.51100000000E-03 0.  1.
         12    1    3    3    0    0 -0.11059426534E+02  0.60863970378E+01 -0.24879975667E+02  0.27899253276E+02  0.00000000000E+00 0. -1.
</event>
<event>
 7    1  0.5441610E-013  0.5052886E+02  0.7816164E-02  0.1300439E+00
        -11   -1    0    0    0    0  0.00000000000E+00  0.00000000000E+00  0.45593999997E+02  0.45594000000E+02  0.51100000000E-03 0. -1.
         11   -1    0    0    0    0 -0.00000000000E+00 -0.00000000000E+00 -0.45593999997E+02  0.45594000000E+02  0.51100000000E-03 0.  1.
    9900012    2    1    2    0    0 -0.22645788300E+02 -0.33246488439E+02  0.59165178441E+01  0.50528857059E+02  0.29999991517E+02 0.  0.
        -12    1    1    2    0    0  0.22645788300E+02  0.33246488439E+02 -0.59165178441E+01  0.40659142941E+02  0.00000000000E+00 0.  1.
         11    1    3    3    0    0 -0.43071075596E+01 -0.20837453058E+02 -0.19202277027E+01  0.21364407321E+02  0.51100000000E-03 0. -1.
        -11    1    3    3    0    0 -0.12468197491E+02 -0.90233712124E+01 -0.36590937268E+01  0.15819802270E+02  0.51100000000E-03 0.  1.
        -12    1    3    3    0    0 -0.58704832504E+01 -0.33856641688E+01  0.11495839274E+02  0.13344647469E+02  0.00000000000E+00 0.  1.
</event>
<event>
 7    1  0.5441610E-013  0.5052886E+02  0.7816164E-02  0.1300439E+00
        -11   -1    0    0    0    0  0.00000000000E+00  0.00000000000E+00  0.45593999997E+02  0.45594000000E+02  0.51100000000E-03 0.  1.
         11   -1    0    0    0    0 -0.00000000000E+00 -0.00000000000E+00 -0.45593999997E+02  0.45594000000E+02  0.51100000000E-03 0. -1.
    9900012    2    1    2    0    0  0.30840255451E+02 -0.10532563318E+02 -0.24312750030E+02  0.50528855144E+02  0.29999985697E+02 0.  0.
        -12    1    1    2    0    0 -0.30840255451E+02  0.10532563318E+02  0.24312750030E+02  0.40659144856E+02  0.00000000000E+00 0.  1.
         11    1    3    3    0    0  0.21571241482E+01 -0.25876227195E+01  0.13497288399E+01  0.36291519852E+01  0.51100000000E-03 0. -1.
        -11    1    3    3    0    0  0.13952205777E+01 -0.27158610684E+00  0.49669632039E+01  0.51663452463E+01  0.51100000000E-03 0.  1.
         12    1    3    3    0    0  0.27287910725E+02 -0.76733544919E+01 -0.30629442074E+02  0.41733357913E+02  0.00000000000E+00 0. -1.
</event>
<event>
 7    1  0.5441610E-013  0.5052886E+02  0.7816164E-02  0.1300439E+00
        -11   -1    0    0    0    0  0.00000000000E+00  0.00000000000E+00  0.45593999997E+02  0.45594000000E+02  0.51100000000E-03 0. -1.
         11   -1    0    0    0    0 -0.00000000000E+00 -0.00000000000E+00 -0.45593999997E+02  0.45594000000E+02  0.51100000000E-03 0.  1.
    9900012    2    1    2    0    0  0.39179957992E+02 -0.66264177263E+01  0.86131882119E+01  0.50528861651E+02  0.30000005475E+02 0.  0.
        -12    1    1    2    0    0 -0.39179957992E+02  0.66264177263E+01 -0.86131882119E+01  0.40659138349E+02  0.00000000000E+00 0.  1.
         11    1    3    3    0    0  0.28828129983E+02  0.61799694363E+01  0.19314544321E+01  0.29546296164E+02  0.51100000000E-03 0. -1.
        -11    1    3    3    0    0  0.29976720219E+01 -0.28567002459E+01 -0.31308295704E+01  0.51912299030E+01  0.51100000000E-03 0.  1.
        -12    1    3    3    0    0  0.73541559866E+01 -0.99496869167E+01  0.98125633502E+01  0.15791335584E+02  0.00000000000E+00 0.  1.
</event>
<event>
 7    1  0.5441610E-013  0.5052899E+02  0.7816164E-02  0.1300438E+00
        -11   -1    0    0    0    0  0.00000000000E+00  0.00000000000E+00  0.45593999997E+02  0.45594000000E+02  0.51100000000E-03 0.  1.
         11   -1    0    0    0    0 -0.00000000000E+00 -0.00000000000E+00 -0.45593999997E+02  0.45594000000E+02  0.51100000000E-03 0. -1.
    9900012    2    1    2    0    0 -0.77547385628E+01  0.20916125721E+02 -0.33993154015E+02  0.50528993553E+02  0.30000406401E+02 0.  0.
        -12    1    1    2    0    0  0.77547385628E+01 -0.20916125721E+02  0.33993154015E+02  0.40659006447E+02  0.00000000000E+00 0.  1.
         11    1    3    3    0    0 -0.11699664732E+02  0.22970903435E+01 -0.14521127527E+02  0.18788877662E+02  0.51100000000E-03 0. -1.
        -11    1    3    3    0    0 -0.39444363129E+01  0.51241060157E+01  0.37380956166E+00  0.64772505074E+01  0.51100000000E-03 0.  1.
        -12    1    3    3    0    0  0.78893624823E+01  0.13494929361E+02 -0.19845836050E+02  0.25262865383E+02  0.00000000000E+00 0.  1.
</event>
<event>
 7    1  0.5441610E-013  0.5052886E+02  0.7816164E-02  0.1300439E+00
        -11   -1    0    0    0    0  0.00000000000E+00  0.00000000000E+00  0.45593999997E+02  0.45594000000E+02  0.51100000000E-03 0. -1.
         11   -1    0    0    0    0 -0.00000000000E+00 -0.00000000000E+00 -0.45593999997E+02  0.45594000000E+02  0.51100000000E-03 0.  1.
    9900012    2    1    2    0    0  0.28668844156E+02 -0.60408384168E+01  0.28191685374E+02  0.50528862303E+02  0.30000007456E+02 0.  0.
        -12    1    1    2    0    0 -0.28668844156E+02  0.60408384168E+01 -0.28191685374E+02  0.40659137697E+02  0.00000000000E+00 0.  1.
         11    1    3    3    0    0  0.11607702451E+02 -0.11252190035E+02  0.12669267620E+02  0.20539252155E+02  0.51100000000E-03 0. -1.
        -11    1    3    3    0    0  0.96388300154E+01  0.19716715920E+01  0.18827121821E+02  0.21242764633E+02  0.51100000000E-03 0.  1.
        -12    1    3    3    0    0  0.74223116899E+01  0.32396800264E+01 -0.33047040672E+01  0.87468455152E+01  0.00000000000E+00 0.  1.
</event>
<event>
 7    1  0.7845048E-013  0.5052886E+02  0.7816164E-02  0.1300439E+00
        -11   -1    0    0    0    0  0.00000000000E+00  0.00000000000E+00  0.45593999997E+02  0.45594000000E+02  0.51100000000E-03 0.  1.
         11   -1    0    0    0    0 -0.00000000000E+00 -0.00000000000E+00 -0.45593999997E+02  0.45594000000E+02  0.51100000000E-03 0. -1.
    9900012    2    1    2    0    0  0.11461164944E+02  0.37913841522E+02 -0.91840975828E+01  0.50528864136E+02  0.30000013027E+02 0.  0.
        -12    1    1    2    0    0 -0.11461164944E+02 -0.37913841522E+02  0.91840975828E+01  0.40659135864E+02  0.00000000000E+00 0.  1.
         11    1    3    3    0    0  0.11510281371E+02  0.16496121394E+02 -0.23474470245E+01  0.20251397633E+02  0.51100000000E-03 0. -1.
        -11    1    3    3    0    0  0.50812815618E+01  0.18255543332E+02 -0.11925446701E+02  0.22389742382E+02  0.51100000000E-03 0.  1.
        -12    1    3    3    0    0 -0.51303979891E+01  0.31621767959E+01  0.50887961431E+01  0.78877241205E+01  0.00000000000E+00 0.  1.
</event>
<event>
 7    1  0.5441610E-013  0.5052886E+02  0.7816164E-02  0.1300439E+00
        -11   -1    0    0    0    0  0.00000000000E+00  0.00000000000E+00  0.45593999997E+02  0.45594000000E+02  0.51100000000E-03 0. -1.
         11   -1    0    0    0    0 -0.00000000000E+00 -0.00000000000E+00 -0.45593999997E+02  0.45594000000E+02  0.51100000000E-03 0.  1.
    9900012    2    1    2    0    0 -0.40303049280E+02  0.39933270749E+01  0.35893433937E+01  0.50528857998E+02  0.29999994369E+02 0.  0.
        -12    1    1    2    0    0  0.40303049280E+02 -0.39933270749E+01 -0.35893433937E+01  0.40659142002E+02  0.00000000000E+00 0.  1.
         11    1    3    3    0    0 -0.21656481042E+02  0.76809926467E+01  0.77327052007E+01  0.24244495234E+02  0.51100000000E-03 0. -1.
        -11    1    3    3    0    0 -0.19129478022E+01  0.60875399299E+01  0.35018293844E+00  0.63906290805E+01  0.51100000000E-03 0.  1.
         12    1    3    3    0    0 -0.16733620436E+02 -0.97752055017E+01 -0.44935447454E+01  0.19893733683E+02  0.00000000000E+00 0. -1.
</event>
<event>
 7    1  0.5441610E-013  0.5052887E+02  0.7816164E-02  0.1300439E+00
        -11   -1    0    0    0    0  0.00000000000E+00  0.00000000000E+00  0.45593999997E+02  0.45594000000E+02  0.51100000000E-03 0.  1.
         11   -1    0    0    0    0 -0.00000000000E+00 -0.00000000000E+00 -0.45593999997E+02  0.45594000000E+02  0.51100000000E-03 0. -1.
    9900012    2    1    2    0    0 -0.16338543363E+02 -0.16347974616E+02 -0.33450866737E+02  0.50528871151E+02  0.30000034352E+02 0.  0.
        -12    1    1    2    0    0  0.16338543363E+02  0.16347974616E+02  0.33450866737E+02  0.40659128849E+02  0.00000000000E+00 0.  1.
         11    1    3    3    0    0  0.26994468637E+01  0.66334055604E+01 -0.49833325478E+01  0.87248315882E+01  0.51100000000E-03 0. -1.
        -11    1    3    3    0    0 -0.11003910607E+01 -0.46856112453E+01 -0.29633378156E+01  0.56521840469E+01  0.51100000000E-03 0.  1.
         12    1    3    3    0    0 -0.17937599166E+02 -0.18295768931E+02 -0.25504196374E+02  0.36151855516E+02  0.00000000000E+00 0. -1.
</event>
<event>
 7    1  0.5441610E-013  0.5052888E+02  0.7816164E-02  0.1300439E+00
        -11   -1    0    0    0    0  0.00000000000E+00  0.00000000000E+00  0.45593999997E+02  0.45594000000E+02  0.51100000000E-03 0.  1.
         11   -1    0    0    0    0 -0.00000000000E+00 -0.00000000000E+00 -0.45593999997E+02  0.45594000000E+02  0.51100000000E-03 0. -1.
    9900012    2    1    2    0    0 -0.40366203615E+02 -0.47122143305E+01 -0.12364684814E+01  0.50528877868E+02  0.30000054768E+02 0.  0.
        -12    1    1    2    0    0  0.40366203615E+02  0.47122143305E+01  0.12364684814E+01  0.40659122132E+02  0.00000000000E+00 0.  1.
         11    1    3    3    0    0 -0.11054822752E+02 -0.65117835617E+01  0.88658426724E+01  0.15595371037E+02  0.51100000000E-03 0. -1.
        -11    1    3    3    0    0  0.37221179697E+00 -0.23447673752E+00 -0.46672834301E+01  0.46879692661E+01  0.51100000000E-03 0.  1.
         12    1    3    3    0    0 -0.29683592661E+02  0.20340459687E+01 -0.54350277236E+01  0.30245537565E+02  0.00000000000E+00 0. -1.
</event>
<event>
 7    1  0.5441610E-013  0.5052887E+02  0.7816164E-02  0.1300439E+00
        -11   -1    0    0    0    0  0.00000000000E+00  0.00000000000E+00  0.45593999997E+02  0.45594000000E+02  0.51100000000E-03 0. -1.
         11   -1    0    0    0    0 -0.00000000000E+00 -0.00000000000E+00 -0.45593999997E+02  0.45594000000E+02  0.51100000000E-03 0.  1.
    9900012    2    1    2    0    0  0.14503522100E+01 -0.34587358760E+02  0.21325468410E+02  0.50528874205E+02  0.30000043633E+02 0.  0.
        -12    1    1    2    0    0 -0.14503522100E+01  0.34587358760E+02 -0.21325468410E+02  0.40659125795E+02  0.00000000000E+00 0.  1.
         11    1    3    3    0    0 -0.22417557373E+01 -0.30094878712E+02  0.21424898626E+02  0.37010180692E+02  0.51100000000E-03 0. -1.
        -11    1    3    3    0    0  0.20409080338E+01 -0.21588491138E+01  0.60484493356E+01  0.67386701006E+01  0.51100000000E-03 0.  1.
         12    1    3    3    0    0  0.16511999136E+01 -0.23336309345E+01 -0.61478795516E+01  0.67800234125E+01  0.00000000000E+00 0. -1.
</event>
<event>
 7    1  0.5441610E-013  0.5052885E+02  0.7816164E-02  0.1300439E+00
        -11   -1    0    0    0    0  0.00000000000E+00  0.00000000000E+00  0.45593999997E+02  0.45594000000E+02  0.51100000000E-03 0.  1.
         11   -1    0    0    0    0 -0.00000000000E+00 -0.00000000000E+00 -0.45593999997E+02  0.45594000000E+02  0.51100000000E-03 0. -1.
    9900012    2    1    2    0    0 -0.74402550276E+01  0.15464255564E+02 -0.36860088718E+02  0.50528846844E+02  0.29999960468E+02 0.  0.
        -12    1    1    2    0    0  0.74402550276E+01 -0.15464255564E+02  0.36860088718E+02  0.40659153156E+02  0.00000000000E+00 0.  1.
         11    1    3    3    0    0  0.59431785369E+01  0.31987704376E+01 -0.57966680855E+01  0.88969019658E+01  0.51100000000E-03 0. -1.
        -11    1    3    3    0    0 -0.25786156321E+01  0.63782325317E+01  0.13060853501E+01  0.70026400743E+01  0.51100000000E-03 0.  1.
         12    1    3    3    0    0 -0.10804817932E+02  0.58872525951E+01 -0.32369505983E+02  0.34629304804E+02  0.00000000000E+00 0. -1.
</event>
<event>
 7    1  0.5441610E-013  0.5052886E+02  0.7816164E-02  0.1300439E+00
        -11   -1    0    0    0    0  0.00000000000E+00  0.00000000000E+00  0.45593999997E+02  0.45594000000E+02  0.51100000000E-03 0.  1.
         11   -1    0    0    0    0 -0.00000000000E+00 -0.00000000000E+00 -0.45593999997E+02  0.45594000000E+02  0.51100000000E-03 0. -1.
    9900012    2    1    2    0    0 -0.17986964055E+02  0.17777678375E+02 -0.31836916314E+02  0.50528856321E+02  0.29999989274E+02 0.  0.
        -12    1    1    2    0    0  0.17986964055E+02 -0.17777678375E+02  0.31836916314E+02  0.40659143679E+02  0.00000000000E+00 0.  1.
         11    1    3    3    0    0 -0.13528019843E+02  0.17322291766E+02 -0.24538717616E+02  0.32942643722E+02  0.51100000000E-03 0. -1.
        -11    1    3    3    0    0 -0.23661865453E+01  0.77859114022E+01 -0.22499045407E+01  0.84428268863E+01  0.51100000000E-03 0.  1.
         12    1    3    3    0    0 -0.20927576665E+01 -0.73305247932E+01 -0.50482941574E+01  0.91433857128E+01  0.00000000000E+00 0. -1.
</event>
<event>
 7    1  0.5441610E-013  0.5052886E+02  0.7816164E-02  0.1300439E+00
        -11   -1    0    0    0    0  0.00000000000E+00  0.00000000000E+00  0.45593999997E+02  0.45594000000E+02  0.51100000000E-03 0.  1.
         11   -1    0    0    0    0 -0.00000000000E+00 -0.00000000000E+00 -0.45593999997E+02  0.45594000000E+02  0.51100000000E-03 0. -1.
    9900012    2    1    2    0    0  0.27987458170E+02  0.20764278353E+02 -0.20945462207E+02  0.50528862560E+02  0.30000008237E+02 0.  0.
        -12    1    1    2    0    0 -0.27987458170E+02 -0.20764278353E+02  0.20945462207E+02  0.40659137440E+02  0.00000000000E+00 0.  1.
         11    1    3    3    0    0  0.29417337377E+01  0.24176753457E+01 -0.10525053261E+02  0.11192662680E+02  0.51100000000E-03 0. -1.
        -11    1    3    3    0    0 -0.36550587137E+01  0.13225827591E+01  0.10899271195E+01  0.40369073240E+01  0.51100000000E-03 0.  1.
         12    1    3    3    0    0  0.28700783146E+02  0.17024020248E+02 -0.11510336065E+02  0.35299292556E+02  0.00000000000E+00 0. -1.
</event>
<event>
 7    1  0.5441610E-013  0.5052885E+02  0.7816164E-02  0.1300439E+00
        -11   -1    0    0    0    0  0.00000000000E+00  0.00000000000E+00  0.45593999997E+02  0.45594000000E+02  0.51100000000E-03 0.  1.
         11   -1    0    0    0    0 -0.00000000000E+00 -0.00000000000E+00 -0.45593999997E+02  0.45594000000E+02  0.51100000000E-03 0. -1.
    9900012    2    1    2    0    0  0.36753067140E+02  0.59424728673E+01 -0.16342131945E+02  0.50528853373E+02  0.29999980312E+02 0.  0.
        -12    1    1    2    0    0 -0.36753067140E+02 -0.59424728673E+01  0.16342131945E+02  0.40659146627E+02  0.00000000000E+00 0.  1.
         11    1    3    3    0    0 -0.82673287729E+00  0.94791518147E+00  0.21672977286E+01  0.25058352195E+01  0.51100000000E-03 0. -1.
        -11    1    3    3    0    0  0.24727614184E+02 -0.79878841469E+01 -0.96468376348E+01  0.27718634039E+02  0.51100000000E-03 0.  1.
         12    1    3    3    0    0  0.12852185833E+02  0.12982441833E+02 -0.88625920386E+01  0.20304384114E+02  0.00000000000E+00 0. -1.
</event>
<event>
 7    1  0.5441610E-013  0.5052886E+02  0.7816164E-02  0.1300439E+00
        -11   -1    0    0    0    0  0.00000000000E+00  0.00000000000E+00  0.45593999997E+02  0.45594000000E+02  0.51100000000E-03 0.  1.
         11   -1    0    0    0    0 -0.00000000000E+00 -0.00000000000E+00 -0.45593999997E+02  0.45594000000E+02  0.51100000000E-03 0. -1.
    9900012    2    1    2    0    0  0.33717451888E+02 -0.86572169019E+01 -0.21008370757E+02  0.50528860705E+02  0.30000002599E+02 0.  0.
        -12    1    1    2    0    0 -0.33717451888E+02  0.86572169019E+01  0.21008370757E+02  0.40659139295E+02  0.00000000000E+00 0.  1.
         11    1    3    3    0    0  0.13266041435E+02 -0.68256096568E+01 -0.25435451055E+01  0.15134279781E+02  0.51100000000E-03 0. -1.
        -11    1    3    3    0    0  0.17340610921E+02  0.34116222409E+01 -0.19378209846E+01  0.17778951147E+02  0.51100000000E-03 0.  1.
        -12    1    3    3    0    0  0.31107995324E+01 -0.52432294859E+01 -0.16527004667E+02  0.17615629777E+02  0.00000000000E+00 0.  1.
</event>
<event>
 7    1  0.5441610E-013  0.5052886E+02  0.7816164E-02  0.1300439E+00
        -11   -1    0    0    0    0  0.00000000000E+00  0.00000000000E+00  0.45593999997E+02  0.45594000000E+02  0.51100000000E-03 0.  1.
         11   -1    0    0    0    0 -0.00000000000E+00 -0.00000000000E+00 -0.45593999997E+02  0.45594000000E+02  0.51100000000E-03 0. -1.
    9900012    2    1    2    0    0  0.29718286528E+02  0.68685302565E+01 -0.26885169973E+02  0.50528860480E+02  0.30000001916E+02 0.  0.
        -12    1    1    2    0    0 -0.29718286528E+02 -0.68685302565E+01  0.26885169973E+02  0.40659139520E+02  0.00000000000E+00 0.  1.
         11    1    3    3    0    0  0.21205581538E+02  0.80487363678E+01 -0.27509045198E+02  0.35653981734E+02  0.51100000000E-03 0. -1.
        -11    1    3    3    0    0 -0.95504583389E+00  0.83179407628E+00 -0.39654693669E+01  0.41628045223E+01  0.51100000000E-03 0.  1.
        -12    1    3    3    0    0  0.94677508232E+01 -0.20120001876E+01  0.45893445920E+01  0.10712074224E+02  0.00000000000E+00 0.  1.
</event>
<event>
 7    1  0.5441610E-013  0.5052884E+02  0.7816164E-02  0.1300439E+00
        -11   -1    0    0    0    0  0.00000000000E+00  0.00000000000E+00  0.45593999997E+02  0.45594000000E+02  0.51100000000E-03 0. -1.
         11   -1    0    0    0    0 -0.00000000000E+00 -0.00000000000E+00 -0.45593999997E+02  0.45594000000E+02  0.51100000000E-03 0.  1.
    9900012    2    1    2    0    0 -0.26551045424E+02  0.19422945138E+01  0.30731687435E+02  0.50528841946E+02  0.29999945578E+02 0.  0.
        -12    1    1    2    0    0  0.26551045424E+02 -0.19422945138E+01 -0.30731687435E+02  0.40659158054E+02  0.00000000000E+00 0.  1.
         11    1    3    3    0    0 -0.59279560975E+01 -0.13969294198E+01  0.65277288868E+01  0.89276715877E+01  0.51100000000E-03 0. -1.
        -11    1    3    3    0    0 -0.12775397007E+02  0.14169407289E+02  0.19859350878E+02  0.27538639930E+02  0.51100000000E-03 0.  1.
         12    1    3    3    0    0 -0.78476923192E+01 -0.10830183355E+02  0.43446076700E+01  0.14062530428E+02  0.00000000000E+00 0. -1.
</event>
<event>
 7    1  0.5441610E-013  0.5052887E+02  0.7816164E-02  0.1300439E+00
        -11   -1    0    0    0    0  0.00000000000E+00  0.00000000000E+00  0.45593999997E+02  0.45594000000E+02  0.51100000000E-03 0. -1.
         11   -1    0    0    0    0 -0.00000000000E+00 -0.00000000000E+00 -0.45593999997E+02  0.45594000000E+02  0.51100000000E-03 0.  1.
    9900012    2    1    2    0    0  0.37944939915E+02 -0.95354612910E+01 -0.11064428933E+02  0.50528867265E+02  0.30000022538E+02 0.  0.
        -12    1    1    2    0    0 -0.37944939915E+02  0.95354612910E+01  0.11064428933E+02  0.40659132735E+02  0.00000000000E+00 0.  1.
         11    1    3    3    0    0  0.24907278718E+02 -0.73548720311E+01 -0.12045030890E+02  0.28627774016E+02  0.51100000000E-03 0. -1.
        -11    1    3    3    0    0  0.21894340642E+01  0.49926195555E+01 -0.51712916262E+01  0.75141286182E+01  0.51100000000E-03 0.  1.
         12    1    3    3    0    0  0.10848227133E+02 -0.71732088154E+01  0.61518935829E+01  0.14386964631E+02  0.00000000000E+00 0. -1.
</event>
<event>
 7    1  0.5441610E-013  0.5052886E+02  0.7816164E-02  0.1300439E+00
        -11   -1    0    0    0    0  0.00000000000E+00  0.00000000000E+00  0.45593999997E+02  0.45594000000E+02  0.51100000000E-03 0.  1.
         11   -1    0    0    0    0 -0.00000000000E+00 -0.00000000000E+00 -0.45593999997E+02  0.45594000000E+02  0.51100000000E-03 0. -1.
    9900012    2    1    2    0    0  0.26402866802E+02 -0.30837852913E+02 -0.22541002149E+01  0.50528861846E+02  0.30000006067E+02 0.  0.
        -12    1    1    2    0    0 -0.26402866802E+02  0.30837852913E+02  0.22541002149E+01  0.40659138154E+02  0.00000000000E+00 0.  1.
         11    1    3    3    0    0 -0.16449320060E+01 -0.60206249174E+01 -0.18661028770E+01  0.65142970387E+01  0.51100000000E-03 0. -1.
        -11    1    3    3    0    0  0.38837411332E+01  0.44779709704E+01  0.10136367704E+01  0.60135787153E+01  0.51100000000E-03 0.  1.
         12    1    3    3    0    0  0.24164057675E+02 -0.29295198966E+02 -0.14016341083E+01  0.38000986092E+02  0.00000000000E+00 0. -1.
</event>
<event>
 7    1  0.5441610E-013  0.5052884E+02  0.7816164E-02  0.1300439E+00
        -11   -1    0    0    0    0  0.00000000000E+00  0.00000000000E+00  0.45593999997E+02  0.45594000000E+02  0.51100000000E-03 0.  1.
         11   -1    0    0    0    0 -0.00000000000E+00 -0.00000000000E+00 -0.45593999997E+02  0.45594000000E+02  0.51100000000E-03 0. -1.
    9900012    2    1    2    0    0 -0.40597262531E+02 -0.21448696074E+01  0.65528529264E+00  0.50528836341E+02  0.29999928541E+02 0.  0.
        -12    1    1    2    0    0  0.40597262531E+02  0.21448696074E+01 -0.65528529264E+00  0.40659163659E+02  0.00000000000E+00 0.  1.
         11    1    3    3    0    0 -0.21243082375E+02 -0.29865612029E+01 -0.42012121208E+01  0.21859512349E+02  0.51100000000E-03 0. -1.
        -11    1    3    3    0    0 -0.96163746245E+01  0.10675648343E+02  0.33028653495E+01  0.14742898231E+02  0.51100000000E-03 0.  1.
         12    1    3    3    0    0 -0.97378055322E+01 -0.98339567473E+01  0.15536320639E+01  0.13926425761E+02  0.00000000000E+00 0. -1.
</event>
<event>
 7    1  0.5441610E-013  0.5052886E+02  0.7816164E-02  0.1300439E+00
        -11   -1    0    0    0    0  0.00000000000E+00  0.00000000000E+00  0.45593999997E+02  0.45594000000E+02  0.51100000000E-03 0. -1.
         11   -1    0    0    0    0 -0.00000000000E+00 -0.00000000000E+00 -0.45593999997E+02  0.45594000000E+02  0.51100000000E-03 0.  1.
    9900012    2    1    2    0    0  0.16889477518E+02  0.44153268208E+01  0.36720784770E+02  0.50528860857E+02  0.30000003059E+02 0.  0.
        -12    1    1    2    0    0 -0.16889477518E+02 -0.44153268208E+01 -0.36720784770E+02  0.40659139143E+02  0.00000000000E+00 0.  1.
         11    1    3    3    0    0  0.19315091552E+02 -0.24603883323E+01  0.13517627559E+02  0.23703428602E+02  0.51100000000E-03 0. -1.
        -11    1    3    3    0    0  0.14747682396E+01  0.89298901777E+01  0.15354280322E+02  0.17823349977E+02  0.51100000000E-03 0.  1.
        -12    1    3    3    0    0 -0.39003822733E+01 -0.20541750246E+01  0.78488768891E+01  0.90020822775E+01  0.00000000000E+00 0.  1.
</event>
<event>
 7    1  0.5441610E-013  0.5052886E+02  0.7816164E-02  0.1300439E+00
        -11   -1    0    0    0    0  0.00000000000E+00  0.00000000000E+00  0.45593999997E+02  0.45594000000E+02  0.51100000000E-03 0.  1.
         11   -1    0    0    0    0 -0.00000000000E+00 -0.00000000000E+00 -0.45593999997E+02  0.45594000000E+02  0.51100000000E-03 0. -1.
    9900012    2    1    2    0    0  0.24843413644E+02  0.22089834713E+02 -0.23409608887E+02  0.50528858502E+02  0.29999995902E+02 0.  0.
        -12    1    1    2    0    0 -0.24843413644E+02 -0.22089834713E+02  0.23409608887E+02  0.40659141498E+02  0.00000000000E+00 0.  1.
         11    1    3    3    0    0  0.25426348305E+02  0.17047421073E+02 -0.16494427321E+02  0.34773263958E+02  0.51100000000E-03 0. -1.
        -11    1    3    3    0    0  0.53396048233E+01 -0.77865432128E+00 -0.82801136593E+00  0.54592385278E+01  0.51100000000E-03 0.  1.
         12    1    3    3    0    0 -0.59225394847E+01  0.58210679618E+01 -0.60871702004E+01  0.10296356016E+02  0.00000000000E+00 0. -1.
</event>
<event>
 7    1  0.5441610E-013  0.5052883E+02  0.7816164E-02  0.1300439E+00
        -11   -1    0    0    0    0  0.00000000000E+00  0.00000000000E+00  0.45593999997E+02  0.45594000000E+02  0.51100000000E-03 0.  1.
         11   -1    0    0    0    0 -0.00000000000E+00 -0.00000000000E+00 -0.45593999997E+02  0.45594000000E+02  0.51100000000E-03 0. -1.
    9900012    2    1    2    0    0 -0.11175119396E+02  0.90383930460E+01 -0.38034088432E+02  0.50528834672E+02  0.29999923468E+02 0.  0.
        -12    1    1    2    0    0  0.11175119396E+02 -0.90383930460E+01  0.38034088432E+02  0.40659165328E+02  0.00000000000E+00 0.  1.
         11    1    3    3    0    0  0.42704391642E+01 -0.17127921067E+01 -0.19254938491E+02  0.19797044325E+02  0.51100000000E-03 0. -1.
        -11    1    3    3    0    0 -0.32549021232E+01  0.22568195566E+01  0.25697587470E+01  0.47213644873E+01  0.51100000000E-03 0.  1.
        -12    1    3    3    0    0 -0.12190656437E+02  0.84943655960E+01 -0.21348908688E+02  0.26010425859E+02  0.00000000000E+00 0.  1.
</event>
<event>
 7    1  0.5441610E-013  0.5052886E+02  0.7816164E-02  0.1300439E+00
        -11   -1    0    0    0    0  0.00000000000E+00  0.00000000000E+00  0.45593999997E+02  0.45594000000E+02  0.51100000000E-03 0.  1.
         11   -1    0    0    0    0 -0.00000000000E+00 -0.00000000000E+00 -0.45593999997E+02  0.45594000000E+02  0.51100000000E-03 0. -1.
    9900012    2    1    2    0    0 -0.22233873265E+02 -0.18582802833E+02 -0.28521919580E+02  0.50528861077E+02  0.30000003729E+02 0.  0.
        -12    1    1    2    0    0  0.22233873265E+02  0.18582802833E+02  0.28521919580E+02  0.40659138923E+02  0.00000000000E+00 0.  1.
         11    1    3    3    0    0 -0.13357831025E+02  0.24535349416E+01 -0.92447077320E+01  0.16429123675E+02  0.51100000000E-03 0. -1.
        -11    1    3    3    0    0 -0.11632361989E+02 -0.13176658587E+02 -0.18830251991E+02  0.25758776510E+02  0.51100000000E-03 0.  1.
        -12    1    3    3    0    0  0.27563197494E+01 -0.78596791878E+01 -0.44695985640E+00  0.83409608924E+01  0.00000000000E+00 0.  1.
</event>
<event>
 7    1  0.5441610E-013  0.5052885E+02  0.7816164E-02  0.1300439E+00
        -11   -1    0    0    0    0  0.00000000000E+00  0.00000000000E+00  0.45593999997E+02  0.45594000000E+02  0.51100000000E-03 0.  1.
         11   -1    0    0    0    0 -0.00000000000E+00 -0.00000000000E+00 -0.45593999997E+02  0.45594000000E+02  0.51100000000E-03 0. -1.
    9900012    2    1    2    0    0 -0.56780522530E+01  0.29985439998E+02 -0.26866321816E+02  0.50528854200E+02  0.29999982826E+02 0.  0.
        -12    1    1    2    0    0  0.56780522530E+01 -0.29985439998E+02  0.26866321816E+02  0.40659145800E+02  0.00000000000E+00 0.  1.
         11    1    3    3    0    0 -0.87635082580E+01  0.14461415918E+01 -0.72790897764E+01  0.11483708056E+02  0.51100000000E-03 0.  1.
        -11    1    3    3    0    0  0.64623075165E+01  0.23943372552E+02 -0.21709635943E+02  0.32959896854E+02  0.51100000000E-03 0. -1.
         12    1    3    3    0    0 -0.33768515115E+01  0.45959258537E+01  0.21224039027E+01  0.60852492890E+01  0.00000000000E+00 0. -1.
</event>
<event>
 7    1  0.5642386E-013  0.5052887E+02  0.7816164E-02  0.1300439E+00
        -11   -1    0    0    0    0  0.00000000000E+00  0.00000000000E+00  0.45593999997E+02  0.45594000000E+02  0.51100000000E-03 0. -1.
         11   -1    0    0    0    0 -0.00000000000E+00 -0.00000000000E+00 -0.45593999997E+02  0.45594000000E+02  0.51100000000E-03 0.  1.
    9900012    2    1    2    0    0 -0.12628381420E+02 -0.26337752926E+02  0.28284482777E+02  0.50528865572E+02  0.30000017394E+02 0.  0.
        -12    1    1    2    0    0  0.12628381420E+02  0.26337752926E+02 -0.28284482777E+02  0.40659134428E+02  0.00000000000E+00 0.  1.
         11    1    3    3    0    0 -0.43668335876E+01 -0.18216490518E+02  0.10613300443E+02  0.21530255663E+02  0.51100000000E-03 0. -1.
        -11    1    3    3    0    0  0.10071977791E+01 -0.42970556890E+01 -0.34607745979E+01  0.56085734406E+01  0.51100000000E-03 0.  1.
        -12    1    3    3    0    0 -0.92687456115E+01 -0.38242067189E+01  0.21131956932E+02  0.23390036469E+02  0.00000000000E+00 0.  1.
</event>
<event>
 7    1  0.5441610E-013  0.5052886E+02  0.7816164E-02  0.1300439E+00
        -11   -1    0    0    0    0  0.00000000000E+00  0.00000000000E+00  0.45593999997E+02  0.45594000000E+02  0.51100000000E-03 0.  1.
         11   -1    0    0    0    0 -0.00000000000E+00 -0.00000000000E+00 -0.45593999997E+02  0.45594000000E+02  0.51100000000E-03 0. -1.
    9900012    2    1    2    0    0 -0.32389727314E+02 -0.77611265591E+01 -0.23320301698E+02  0.50528855983E+02  0.29999988246E+02 0.  0.
        -12    1    1    2    0    0  0.32389727314E+02  0.77611265591E+01  0.23320301698E+02  0.40659144017E+02  0.00000000000E+00 0.  1.
         11    1    3    3    0    0 -0.26461207867E+02 -0.23209699339E+01 -0.21142667630E+02  0.33949886863E+02  0.51100000000E-03 0. -1.
        -11    1    3    3    0    0 -0.61789714203E+01  0.16845716046E+01  0.36495423998E+01  0.73713383651E+01  0.51100000000E-03 0.  1.
        -12    1    3    3    0    0  0.25045197350E+00 -0.71247282298E+01 -0.58271764675E+01  0.92076307551E+01  0.00000000000E+00 0.  1.
</event>
<event>
 7    1  0.5441610E-013  0.5052886E+02  0.7816164E-02  0.1300439E+00
        -11   -1    0    0    0    0  0.00000000000E+00  0.00000000000E+00  0.45593999997E+02  0.45594000000E+02  0.51100000000E-03 0.  1.
         11   -1    0    0    0    0 -0.00000000000E+00 -0.00000000000E+00 -0.45593999997E+02  0.45594000000E+02  0.51100000000E-03 0. -1.
    9900012    2    1    2    0    0  0.38806851054E+02 -0.20217936191E+01 -0.11962711958E+02  0.50528858155E+02  0.29999994848E+02 0.  0.
        -12    1    1    2    0    0 -0.38806851054E+02  0.20217936191E+01  0.11962711958E+02  0.40659141845E+02  0.00000000000E+00 0.  1.
         11    1    3    3    0    0  0.22741636601E+02 -0.27134243438E+01 -0.48854745212E+01  0.23418210191E+02  0.51100000000E-03 0. -1.
        -11    1    3    3    0    0  0.11414586647E+02  0.84620253389E+01  0.19282504160E+01  0.14339344862E+02  0.51100000000E-03 0.  1.
        -12    1    3    3    0    0  0.46506278064E+01 -0.77703946142E+01 -0.90054878530E+01  0.12771303102E+02  0.00000000000E+00 0.  1.
</event>
<event>
 7    1  0.5441610E-013  0.5052885E+02  0.7816164E-02  0.1300439E+00
        -11   -1    0    0    0    0  0.00000000000E+00  0.00000000000E+00  0.45593999997E+02  0.45594000000E+02  0.51100000000E-03 0.  1.
         11   -1    0    0    0    0 -0.00000000000E+00 -0.00000000000E+00 -0.45593999997E+02  0.45594000000E+02  0.51100000000E-03 0. -1.
    9900012    2    1    2    0    0  0.10026412428E+02  0.34839684746E+01 -0.39249201209E+02  0.50528846319E+02  0.29999958870E+02 0.  0.
        -12    1    1    2    0    0 -0.10026412428E+02 -0.34839684746E+01  0.39249201209E+02  0.40659153681E+02  0.00000000000E+00 0.  1.
         11    1    3    3    0    0 -0.21989049331E+00  0.17153736590E+01 -0.12606175958E+02  0.12724249729E+02  0.51100000000E-03 0. -1.
        -11    1    3    3    0    0  0.21229323869E+01 -0.11001882980E+02 -0.14927523006E+02  0.18664919350E+02  0.51100000000E-03 0.  1.
         12    1    3    3    0    0  0.81233705342E+01  0.12770477795E+02 -0.11715502245E+02  0.19139677239E+02  0.00000000000E+00 0. -1.
</event>
<event>
 7    1  0.5441610E-013  0.5052887E+02  0.7816164E-02  0.1300439E+00
        -11   -1    0    0    0    0  0.00000000000E+00  0.00000000000E+00  0.45593999997E+02  0.45594000000E+02  0.51100000000E-03 0. -1.
         11   -1    0    0    0    0 -0.00000000000E+00 -0.00000000000E+00 -0.45593999997E+02  0.45594000000E+02  0.51100000000E-03 0.  1.
    9900012    2    1    2    0    0  0.13595069190E+02 -0.35976584407E+01  0.38149652547E+02  0.50528867668E+02  0.30000023765E+02 0.  0.
        -12    1    1    2    0    0 -0.13595069190E+02  0.35976584407E+01 -0.38149652547E+02  0.40659132332E+02  0.00000000000E+00 0.  1.
         11    1    3    3    0    0 -0.58771383655E+00  0.25167393587E+01  0.23842554689E+02  0.23982218391E+02  0.51100000000E-03 0. -1.
        -11    1    3    3    0    0  0.11202639183E+02 -0.25936829124E+01  0.17497788325E+02  0.20937977750E+02  0.51100000000E-03 0.  1.
        -12    1    3    3    0    0  0.29801438442E+01 -0.35207148870E+01 -0.31906904682E+01  0.56086715282E+01  0.00000000000E+00 0.  1.
</event>
<event>
 7    1  0.5441610E-013  0.5052886E+02  0.7816164E-02  0.1300439E+00
        -11   -1    0    0    0    0  0.00000000000E+00  0.00000000000E+00  0.45593999997E+02  0.45594000000E+02  0.51100000000E-03 0. -1.
         11   -1    0    0    0    0 -0.00000000000E+00 -0.00000000000E+00 -0.45593999997E+02  0.45594000000E+02  0.51100000000E-03 0.  1.
    9900012    2    1    2    0    0 -0.26774743568E+02  0.29523657553E+02  0.80394429857E+01  0.50528857215E+02  0.29999991991E+02 0.  0.
        -12    1    1    2    0    0  0.26774743568E+02 -0.29523657553E+02 -0.80394429857E+01  0.40659142785E+02  0.00000000000E+00 0.  1.
         11    1    3    3    0    0  0.96961372043E+00  0.47210519184E+01  0.58281355537E+01  0.75627803272E+01  0.51100000000E-03 0. -1.
        -11    1    3    3    0    0 -0.39626764153E+00  0.11748882514E+02 -0.31991931670E+01  0.12183107385E+02  0.51100000000E-03 0.  1.
         12    1    3    3    0    0 -0.27348089647E+02  0.13053723121E+02  0.54105005990E+01  0.30782969503E+02  0.00000000000E+00 0. -1.
</event>
<event>
 7    1  0.5441610E-013  0.5052886E+02  0.7816164E-02  0.1300439E+00
        -11   -1    0    0    0    0  0.00000000000E+00  0.00000000000E+00  0.45593999997E+02  0.45594000000E+02  0.51100000000E-03 0. -1.
         11   -1    0    0    0    0 -0.00000000000E+00 -0.00000000000E+00 -0.45593999997E+02  0.45594000000E+02  0.51100000000E-03 0.  1.
    9900012    2    1    2    0    0  0.25014452377E+01 -0.18013205708E+02  0.36365275259E+02  0.50528855237E+02  0.29999985979E+02 0.  0.
        -12    1    1    2    0    0 -0.25014452377E+01  0.18013205708E+02 -0.36365275259E+02  0.40659144763E+02  0.00000000000E+00 0.  1.
         11    1    3    3    0    0 -0.37144790667E+01 -0.11287017185E+02  0.21973803985E+02  0.24980836125E+02  0.51100000000E-03 0. -1.
        -11    1    3    3    0    0 -0.17804007320E+01  0.16084160308E+01  0.13773919397E+02  0.13981333438E+02  0.51100000000E-03 0.  1.
         12    1    3    3    0    0  0.79963250364E+01 -0.83346045544E+01  0.61755187714E+00  0.11566685674E+02  0.00000000000E+00 0. -1.
</event>
<event>
 7    1  0.5441610E-013  0.5052886E+02  0.7816164E-02  0.1300439E+00
        -11   -1    0    0    0    0  0.00000000000E+00  0.00000000000E+00  0.45593999997E+02  0.45594000000E+02  0.51100000000E-03 0.  1.
         11   -1    0    0    0    0 -0.00000000000E+00 -0.00000000000E+00 -0.45593999997E+02  0.45594000000E+02  0.51100000000E-03 0. -1.
    9900012    2    1    2    0    0  0.13146986718E+02  0.38545544359E+01 -0.38281388901E+02  0.50528860980E+02  0.30000003436E+02 0.  0.
        -12    1    1    2    0    0 -0.13146986718E+02 -0.38545544359E+01  0.38281388901E+02  0.40659139020E+02  0.00000000000E+00 0.  1.
         11    1    3    3    0    0  0.67857145700E+01 -0.77461096208E+00 -0.16155409770E+02  0.17539760815E+02  0.51100000000E-03 0. -1.
        -11    1    3    3    0    0  0.58658939092E+01  0.52739253023E+01  0.25573764013E+01  0.82923563458E+01  0.51100000000E-03 0.  1.
         12    1    3    3    0    0  0.49537823850E+00 -0.64475990425E+00 -0.24683355532E+02  0.24696743819E+02  0.00000000000E+00 0. -1.
</event>
<event>
 7    1  0.5441610E-013  0.5052885E+02  0.7816164E-02  0.1300439E+00
        -11   -1    0    0    0    0  0.00000000000E+00  0.00000000000E+00  0.45593999997E+02  0.45594000000E+02  0.51100000000E-03 0.  1.
         11   -1    0    0    0    0 -0.00000000000E+00 -0.00000000000E+00 -0.45593999997E+02  0.45594000000E+02  0.51100000000E-03 0. -1.
    9900012    2    1    2    0    0 -0.20602519374E+02 -0.68459775995E+01 -0.34377828848E+02  0.50528851827E+02  0.29999975614E+02 0.  0.
        -12    1    1    2    0    0  0.20602519374E+02  0.68459775995E+01  0.34377828848E+02  0.40659148173E+02  0.00000000000E+00 0.  1.
         11    1    3    3    0    0 -0.10756876401E+02 -0.10064055660E+01 -0.14186163464E+01  0.10896591883E+02  0.51100000000E-03 0. -1.
        -11    1    3    3    0    0 -0.13806246119E+02 -0.63321034370E+01 -0.15419303664E+02  0.21644003594E+02  0.51100000000E-03 0.  1.
        -12    1    3    3    0    0  0.39606031464E+01  0.49253140351E+00 -0.17539908838E+02  0.17988256350E+02  0.00000000000E+00 0.  1.
</event>
<event>
 7    1  0.5441610E-013  0.5052889E+02  0.7816164E-02  0.1300439E+00
        -11   -1    0    0    0    0  0.00000000000E+00  0.00000000000E+00  0.45593999997E+02  0.45594000000E+02  0.51100000000E-03 0. -1.
         11   -1    0    0    0    0 -0.00000000000E+00 -0.00000000000E+00 -0.45593999997E+02  0.45594000000E+02  0.51100000000E-03 0.  1.
    9900012    2    1    2    0    0 -0.30264157587E+02  0.26905555142E+02 -0.36517642247E+01  0.50528886460E+02  0.30000080883E+02 0.  0.
        -12    1    1    2    0    0  0.30264157587E+02 -0.26905555142E+02  0.36517642247E+01  0.40659113540E+02  0.00000000000E+00 0.  1.
         11    1    3    3    0    0 -0.60470690412E+01  0.19005024130E+01 -0.51854414603E+01  0.81894906320E+01  0.51100000000E-03 0.  1.
        -11    1    3    3    0    0  0.93752922511E+00  0.12499451815E+02 -0.50047856615E+01  0.13496782450E+02  0.51100000000E-03 0. -1.
         12    1    3    3    0    0 -0.25154617770E+02  0.12505600914E+02  0.65384628972E+01  0.28842613378E+02  0.00000000000E+00 0. -1.
</event>
<event>
 7    1  0.5441610E-013  0.5052886E+02  0.7816164E-02  0.1300439E+00
        -11   -1    0    0    0    0  0.00000000000E+00  0.00000000000E+00  0.45593999997E+02  0.45594000000E+02  0.51100000000E-03 0. -1.
         11   -1    0    0    0    0 -0.00000000000E+00 -0.00000000000E+00 -0.45593999997E+02  0.45594000000E+02  0.51100000000E-03 0.  1.
    9900012    2    1    2    0    0  0.19027693739E+02 -0.35932037790E+02 -0.34073351104E-01  0.50528860440E+02  0.30000001794E+02 0.  0.
        -12    1    1    2    0    0 -0.19027693739E+02  0.35932037790E+02  0.34073351104E-01  0.40659139560E+02  0.00000000000E+00 0.  1.
         11    1    3    3    0    0  0.19074671692E+02 -0.26007877985E+02  0.10099569714E+01  0.32268759363E+02  0.51100000000E-03 0. -1.
        -11    1    3    3    0    0  0.13722520366E+01 -0.13408668369E+02 -0.32951373249E+01  0.13875640286E+02  0.51100000000E-03 0.  1.
        -12    1    3    3    0    0 -0.14192299896E+01  0.34845085648E+01  0.22511070025E+01  0.43844607922E+01  0.00000000000E+00 0.  1.
</event>
<event>
 7    1  0.5441610E-013  0.5052886E+02  0.7816164E-02  0.1300439E+00
        -11   -1    0    0    0    0  0.00000000000E+00  0.00000000000E+00  0.45593999997E+02  0.45594000000E+02  0.51100000000E-03 0.  1.
         11   -1    0    0    0    0 -0.00000000000E+00 -0.00000000000E+00 -0.45593999997E+02  0.45594000000E+02  0.51100000000E-03 0. -1.
    9900012    2    1    2    0    0  0.13687715048E+02  0.27282723918E+02 -0.26860108077E+02  0.50528856213E+02  0.29999988944E+02 0.  0.
        -12    1    1    2    0    0 -0.13687715048E+02 -0.27282723918E+02  0.26860108077E+02  0.40659143787E+02  0.00000000000E+00 0.  1.
         11    1    3    3    0    0  0.46174881744E+01  0.10648240345E+02 -0.36442020999E+01  0.12164967270E+02  0.51100000000E-03 0. -1.
        -11    1    3    3    0    0 -0.63073333552E+01  0.32410371386E+01 -0.14590046641E+02  0.16222091019E+02  0.51100000000E-03 0.  1.
         12    1    3    3    0    0  0.15377560229E+02  0.13393446435E+02 -0.86258593354E+01  0.22141797923E+02  0.00000000000E+00 0. -1.
</event>
<event>
 7    1  0.5441610E-013  0.5052886E+02  0.7816164E-02  0.1300439E+00
        -11   -1    0    0    0    0  0.00000000000E+00  0.00000000000E+00  0.45593999997E+02  0.45594000000E+02  0.51100000000E-03 0.  1.
         11   -1    0    0    0    0 -0.00000000000E+00 -0.00000000000E+00 -0.45593999997E+02  0.45594000000E+02  0.51100000000E-03 0. -1.
    9900012    2    1    2    0    0  0.15222260800E+02  0.24204875338E+02 -0.28906264828E+02  0.50528863754E+02  0.30000011865E+02 0.  0.
        -12    1    1    2    0    0 -0.15222260800E+02 -0.24204875338E+02  0.28906264828E+02  0.40659136246E+02  0.00000000000E+00 0.  1.
         11    1    3    3    0    0  0.77893732084E+01  0.33640419076E+01 -0.20197749447E+01  0.87218463655E+01  0.51100000000E-03 0.  1.
        -11    1    3    3    0    0 -0.54189394097E+01  0.10900295833E+02 -0.23795347935E+01  0.12403368078E+02  0.51100000000E-03 0. -1.
         12    1    3    3    0    0  0.12851827001E+02  0.99405375975E+01 -0.24506955090E+02  0.29403649310E+02  0.00000000000E+00 0. -1.
</event>
<event>
 7    1  0.5441610E-013  0.5052887E+02  0.7816164E-02  0.1300439E+00
        -11   -1    0    0    0    0  0.00000000000E+00  0.00000000000E+00  0.45593999997E+02  0.45594000000E+02  0.51100000000E-03 0. -1.
         11   -1    0    0    0    0 -0.00000000000E+00 -0.00000000000E+00 -0.45593999997E+02  0.45594000000E+02  0.51100000000E-03 0.  1.
    9900012    2    1    2    0    0  0.33445345667E+02  0.17380601819E+02 -0.15247576576E+02  0.50528867473E+02  0.30000023172E+02 0.  0.
        -12    1    1    2    0    0 -0.33445345667E+02 -0.17380601819E+02  0.15247576576E+02  0.40659132527E+02  0.00000000000E+00 0.  1.
         11    1    3    3    0    0  0.16529923983E+02  0.64386846290E+01 -0.30565900739E+01  0.18001049686E+02  0.51100000000E-03 0. -1.
        -11    1    3    3    0    0  0.13026932767E+02 -0.44393489595E+01 -0.87039123932E+01  0.16283945705E+02  0.51100000000E-03 0.  1.
        -12    1    3    3    0    0  0.38884889169E+01  0.15381266149E+02 -0.34870741091E+01  0.16243872083E+02  0.00000000000E+00 0.  1.
</event>
<event>
 7    1  0.5441610E-013  0.5052886E+02  0.7816164E-02  0.1300439E+00
        -11   -1    0    0    0    0  0.00000000000E+00  0.00000000000E+00  0.45593999997E+02  0.45594000000E+02  0.51100000000E-03 0. -1.
         11   -1    0    0    0    0 -0.00000000000E+00 -0.00000000000E+00 -0.45593999997E+02  0.45594000000E+02  0.51100000000E-03 0.  1.
    9900012    2    1    2    0    0  0.95532688322E+01  0.34403300783E+02  0.19450287230E+02  0.50528859287E+02  0.29999998290E+02 0.  0.
        -12    1    1    2    0    0 -0.95532688322E+01 -0.34403300783E+02 -0.19450287230E+02  0.40659140713E+02  0.00000000000E+00 0.  1.
         11    1    3    3    0    0 -0.42644002543E+01  0.15974301213E+02  0.43396786593E+01  0.17093747977E+02  0.51100000000E-03 0. -1.
        -11    1    3    3    0    0  0.40395411236E+01  0.99985836330E+01  0.17255037320E+02  0.20347625914E+02  0.51100000000E-03 0.  1.
        -12    1    3    3    0    0  0.97781279630E+01  0.84304159367E+01 -0.21444287492E+01  0.13087485396E+02  0.00000000000E+00 0.  1.
</event>
<event>
 7    1  0.5441610E-013  0.5052886E+02  0.7816164E-02  0.1300439E+00
        -11   -1    0    0    0    0  0.00000000000E+00  0.00000000000E+00  0.45593999997E+02  0.45594000000E+02  0.51100000000E-03 0.  1.
         11   -1    0    0    0    0 -0.00000000000E+00 -0.00000000000E+00 -0.45593999997E+02  0.45594000000E+02  0.51100000000E-03 0. -1.
    9900012    2    1    2    0    0 -0.22922668374E+02  0.57346153174E+01 -0.33088236793E+02  0.50528856473E+02  0.29999989737E+02 0.  0.
        -12    1    1    2    0    0  0.22922668374E+02 -0.57346153174E+01  0.33088236793E+02  0.40659143527E+02  0.00000000000E+00 0.  1.
         11    1    3    3    0    0  0.30422821108E+01  0.20731311655E+01  0.32831463411E+00  0.36960984878E+01  0.51100000000E-03 0. -1.
        -11    1    3    3    0    0 -0.11442701215E+02  0.95616426098E+01 -0.78715021643E+01  0.16861819804E+02  0.51100000000E-03 0.  1.
        -12    1    3    3    0    0 -0.14522249269E+02 -0.59001584579E+01 -0.25545049263E+02  0.29970938182E+02  0.00000000000E+00 0.  1.
</event>
<event>
 7    1  0.5441610E-013  0.5052888E+02  0.7816164E-02  0.1300439E+00
        -11   -1    0    0    0    0  0.00000000000E+00  0.00000000000E+00  0.45593999997E+02  0.45594000000E+02  0.51100000000E-03 0. -1.
         11   -1    0    0    0    0 -0.00000000000E+00 -0.00000000000E+00 -0.45593999997E+02  0.45594000000E+02  0.51100000000E-03 0.  1.
    9900012    2    1    2    0    0 -0.32989756000E+02 -0.19738178684E+02  0.13238001106E+02  0.50528875907E+02  0.30000048808E+02 0.  0.
        -12    1    1    2    0    0  0.32989756000E+02  0.19738178684E+02 -0.13238001106E+02  0.40659124093E+02  0.00000000000E+00 0.  1.
         11    1    3    3    0    0 -0.84822384499E+00  0.29159493154E+01  0.30455543231E+01  0.43008889194E+01  0.51100000000E-03 0. -1.
        -11    1    3    3    0    0 -0.20852883739E+01 -0.13405401061E+02  0.18416940450E+01  0.13691057024E+02  0.51100000000E-03 0.  1.
         12    1    3    3    0    0 -0.30056243781E+02 -0.92487269384E+01  0.83507527376E+01  0.32536929964E+02  0.00000000000E+00 0. -1.
</event>
<event>
 7    1  0.5441610E-013  0.5052886E+02  0.7816164E-02  0.1300439E+00
        -11   -1    0    0    0    0  0.00000000000E+00  0.00000000000E+00  0.45593999997E+02  0.45594000000E+02  0.51100000000E-03 0. -1.
         11   -1    0    0    0    0 -0.00000000000E+00 -0.00000000000E+00 -0.45593999997E+02  0.45594000000E+02  0.51100000000E-03 0.  1.
    9900012    2    1    2    0    0  0.17091342623E+02 -0.29049292227E+02  0.22741812112E+02  0.50528863392E+02  0.30000010766E+02 0.  0.
        -12    1    1    2    0    0 -0.17091342623E+02  0.29049292227E+02 -0.22741812112E+02  0.40659136608E+02  0.00000000000E+00 0.  1.
         11    1    3    3    0    0 -0.59080916712E+01 -0.56476236560E+01  0.76270819394E+01  0.11179158257E+02  0.51100000000E-03 0. -1.
        -11    1    3    3    0    0  0.76161545646E+01 -0.22302745707E+01 -0.18670863750E+01  0.81526650124E+01  0.51100000000E-03 0.  1.
         12    1    3    3    0    0  0.15383279730E+02 -0.21171394001E+02  0.16981816547E+02  0.31197040123E+02  0.00000000000E+00 0. -1.
</event>
<event>
 7    1  0.5441610E-013  0.5052886E+02  0.7816164E-02  0.1300439E+00
        -11   -1    0    0    0    0  0.00000000000E+00  0.00000000000E+00  0.45593999997E+02  0.45594000000E+02  0.51100000000E-03 0.  1.
         11   -1    0    0    0    0 -0.00000000000E+00 -0.00000000000E+00 -0.45593999997E+02  0.45594000000E+02  0.51100000000E-03 0. -1.
    9900012    2    1    2    0    0  0.28160810334E+02  0.78760005238E+01 -0.28250716673E+02  0.50528860616E+02  0.30000002327E+02 0.  0.
        -12    1    1    2    0    0 -0.28160810334E+02 -0.78760005238E+01  0.28250716673E+02  0.40659139384E+02  0.00000000000E+00 0.  1.
         11    1    3    3    0    0  0.75484861811E+01  0.36571779729E+01 -0.25206365238E+01  0.87583219339E+01  0.51100000000E-03 0. -1.
        -11    1    3    3    0    0  0.20571010286E+02 -0.69489224472E+01 -0.16226047322E+02  0.27106062040E+02  0.51100000000E-03 0.  1.
        -12    1    3    3    0    0  0.41313866786E-01  0.11167744998E+02 -0.95040328277E+01  0.14664476641E+02  0.00000000000E+00 0.  1.
</event>
<event>
 7    1  0.5441610E-013  0.5052886E+02  0.7816164E-02  0.1300439E+00
        -11   -1    0    0    0    0  0.00000000000E+00  0.00000000000E+00  0.45593999997E+02  0.45594000000E+02  0.51100000000E-03 0.  1.
         11   -1    0    0    0    0 -0.00000000000E+00 -0.00000000000E+00 -0.45593999997E+02  0.45594000000E+02  0.51100000000E-03 0. -1.
    9900012    2    1    2    0    0 -0.57679957506E+01  0.26058048951E+01 -0.40163482002E+02  0.50528864734E+02  0.30000014844E+02 0.  0.
        -12    1    1    2    0    0  0.57679957506E+01 -0.26058048951E+01  0.40163482002E+02  0.40659135266E+02  0.00000000000E+00 0.  1.
         11    1    3    3    0    0 -0.57525359750E+01 -0.11340840618E+01 -0.13372382873E+02  0.14601316405E+02  0.51100000000E-03 0. -1.
        -11    1    3    3    0    0  0.78885854873E+01  0.73245215272E+01 -0.24782192875E+02  0.27019168761E+02  0.51100000000E-03 0.  1.
         12    1    3    3    0    0 -0.79040452629E+01 -0.35846325703E+01 -0.20089062542E+01  0.89083795676E+01  0.00000000000E+00 0. -1.
</event>
<event>
 7    1  0.5441610E-013  0.5052885E+02  0.7816164E-02  0.1300439E+00
        -11   -1    0    0    0    0  0.00000000000E+00  0.00000000000E+00  0.45593999997E+02  0.45594000000E+02  0.51100000000E-03 0.  1.
         11   -1    0    0    0    0 -0.00000000000E+00 -0.00000000000E+00 -0.45593999997E+02  0.45594000000E+02  0.51100000000E-03 0. -1.
    9900012    2    1    2    0    0 -0.79729268419E+01 -0.78112900404E+00 -0.39862123893E+02  0.50528847940E+02  0.29999963799E+02 0.  0.
        -12    1    1    2    0    0  0.79729268419E+01  0.78112900404E+00  0.39862123893E+02  0.40659152060E+02  0.00000000000E+00 0.  1.
         11    1    3    3    0    0 -0.89164289951E+01  0.13024647068E+02 -0.28500994870E+02  0.32579914765E+02  0.51100000000E-03 0.  1.
        -11    1    3    3    0    0  0.11643024263E+01 -0.84409449266E+01 -0.72121956443E+01  0.11163373937E+02  0.51100000000E-03 0. -1.
        -12    1    3    3    0    0 -0.22080027306E+00 -0.53648311458E+01 -0.41489333792E+01  0.67855592378E+01  0.00000000000E+00 0.  1.
</event>
<event>
 7    1  0.5441610E-013  0.5052886E+02  0.7816164E-02  0.1300439E+00
        -11   -1    0    0    0    0  0.00000000000E+00  0.00000000000E+00  0.45593999997E+02  0.45594000000E+02  0.51100000000E-03 0.  1.
         11   -1    0    0    0    0 -0.00000000000E+00 -0.00000000000E+00 -0.45593999997E+02  0.45594000000E+02  0.51100000000E-03 0. -1.
    9900012    2    1    2    0    0  0.96289632279E+01 -0.27634057744E+02 -0.28227776810E+02  0.50528862480E+02  0.30000007994E+02 0.  0.
        -12    1    1    2    0    0 -0.96289632279E+01  0.27634057744E+02  0.28227776810E+02  0.40659137520E+02  0.00000000000E+00 0.  1.
         11    1    3    3    0    0  0.17867498520E+01 -0.45050534375E+01 -0.97659360779E+01  0.10902361636E+02  0.51100000000E-03 0. -1.
        -11    1    3    3    0    0  0.12480159234E+02 -0.16929592012E+01 -0.34819811063E+01  0.13066930705E+02  0.51100000000E-03 0.  1.
         12    1    3    3    0    0 -0.46379458583E+01 -0.21436045105E+02 -0.14979859626E+02  0.26559570139E+02  0.00000000000E+00 0. -1.
</event>
<event>
 7    1  0.5441610E-013  0.5052886E+02  0.7816164E-02  0.1300439E+00
        -11   -1    0    0    0    0  0.00000000000E+00  0.00000000000E+00  0.45593999997E+02  0.45594000000E+02  0.51100000000E-03 0.  1.
         11   -1    0    0    0    0 -0.00000000000E+00 -0.00000000000E+00 -0.45593999997E+02  0.45594000000E+02  0.51100000000E-03 0. -1.
    9900012    2    1    2    0    0  0.34982369286E+02  0.25752923592E+01 -0.20561307327E+02  0.50528860184E+02  0.30000001015E+02 0.  0.
        -12    1    1    2    0    0 -0.34982369286E+02 -0.25752923592E+01  0.20561307327E+02  0.40659139816E+02  0.00000000000E+00 0.  1.
         11    1    3    3    0    0  0.72397333478E+01  0.52484100688E+01  0.34599964574E+00  0.89487017614E+01  0.51100000000E-03 0. -1.
        -11    1    3    3    0    0  0.57074186674E+01 -0.10458017994E+01 -0.18459244417E+02  0.19349729558E+02  0.51100000000E-03 0.  1.
         12    1    3    3    0    0  0.22035217270E+02 -0.16273159102E+01 -0.24480625559E+01  0.22230428865E+02  0.00000000000E+00 0. -1.
</event>
<event>
 7    1  0.5441610E-013  0.5052887E+02  0.7816164E-02  0.1300439E+00
        -11   -1    0    0    0    0  0.00000000000E+00  0.00000000000E+00  0.45593999997E+02  0.45594000000E+02  0.51100000000E-03 0. -1.
         11   -1    0    0    0    0 -0.00000000000E+00 -0.00000000000E+00 -0.45593999997E+02  0.45594000000E+02  0.51100000000E-03 0.  1.
    9900012    2    1    2    0    0  0.34184819902E+02  0.19865648999E+02  0.94825469117E+01  0.50528872884E+02  0.30000039619E+02 0.  0.
        -12    1    1    2    0    0 -0.34184819902E+02 -0.19865648999E+02 -0.94825469117E+01  0.40659127116E+02  0.00000000000E+00 0.  1.
         11    1    3    3    0    0  0.11434112056E+02  0.14635511436E+02  0.48480590994E+01  0.19194811559E+02  0.51100000000E-03 0. -1.
        -11    1    3    3    0    0  0.36684732481E+01  0.79614687090E+00 -0.74315099613E+01  0.83257964411E+01  0.51100000000E-03 0.  1.
         12    1    3    3    0    0  0.19082234598E+02  0.44339906922E+01  0.12065997774E+02  0.23008264885E+02  0.00000000000E+00 0. -1.
</event>
<event>
 7    1  0.5441610E-013  0.5052884E+02  0.7816164E-02  0.1300439E+00
        -11   -1    0    0    0    0  0.00000000000E+00  0.00000000000E+00  0.45593999997E+02  0.45594000000E+02  0.51100000000E-03 0.  1.
         11   -1    0    0    0    0 -0.00000000000E+00 -0.00000000000E+00 -0.45593999997E+02  0.45594000000E+02  0.51100000000E-03 0. -1.
    9900012    2    1    2    0    0  0.22873385231E+02 -0.29034330022E+02 -0.16940567311E+02  0.50528844911E+02  0.29999954591E+02 0.  0.
        -12    1    1    2    0    0 -0.22873385231E+02  0.29034330022E+02  0.16940567311E+02  0.40659155089E+02  0.00000000000E+00 0.  1.
         11    1    3    3    0    0  0.14574186029E+02 -0.62486381968E+01 -0.77799876481E+00  0.15876323884E+02  0.51100000000E-03 0. -1.
        -11    1    3    3    0    0 -0.36900851784E+01 -0.28515007222E+01  0.20646800590E+01  0.51000675486E+01  0.51100000000E-03 0.  1.
         12    1    3    3    0    0  0.11989284380E+02 -0.19934191103E+02 -0.18227248605E+02  0.29552453478E+02  0.00000000000E+00 0. -1.
</event>
<event>
 7    1  0.5441610E-013  0.5052887E+02  0.7816164E-02  0.1300439E+00
        -11   -1    0    0    0    0  0.00000000000E+00  0.00000000000E+00  0.45593999997E+02  0.45594000000E+02  0.51100000000E-03 0.  1.
         11   -1    0    0    0    0 -0.00000000000E+00 -0.00000000000E+00 -0.45593999997E+02  0.45594000000E+02  0.51100000000E-03 0. -1.
    9900012    2    1    2    0    0 -0.16043530494E+02 -0.36796836981E+02  0.64624346010E+01  0.50528866420E+02  0.30000019970E+02 0.  0.
        -12    1    1    2    0    0  0.16043530494E+02  0.36796836981E+02 -0.64624346010E+01  0.40659133580E+02  0.00000000000E+00 0.  1.
         11    1    3    3    0    0 -0.12578561990E+01 -0.19083385287E+02  0.84517982403E+01  0.20909105433E+02  0.51100000000E-03 0. -1.
        -11    1    3    3    0    0 -0.10266040886E+02 -0.48485613895E+01  0.69530523956E+01  0.13313342214E+02  0.51100000000E-03 0.  1.
         12    1    3    3    0    0 -0.45196334088E+01 -0.12864890304E+02 -0.89424160349E+01  0.16306418774E+02  0.00000000000E+00 0. -1.
</event>
<event>
 7    1  0.5441610E-013  0.5052891E+02  0.7816164E-02  0.1300439E+00
        -11   -1    0    0    0    0  0.00000000000E+00  0.00000000000E+00  0.45593999997E+02  0.45594000000E+02  0.51100000000E-03 0. -1.
         11   -1    0    0    0    0 -0.00000000000E+00 -0.00000000000E+00 -0.45593999997E+02  0.45594000000E+02  0.51100000000E-03 0.  1.
    9900012    2    1    2    0    0  0.33167552821E+02 -0.23165464907E+02  0.40541995272E+01  0.50528906819E+02  0.30000142768E+02 0.  0.
        -12    1    1    2    0    0 -0.33167552821E+02  0.23165464907E+02 -0.40541995272E+01  0.40659093181E+02  0.00000000000E+00 0.  1.
         11    1    3    3    0    0  0.10575170864E+02 -0.11716732896E+02  0.47410707023E+01  0.16480103769E+02  0.51100000000E-03 0. -1.
        -11    1    3    3    0    0  0.18210839173E+02 -0.50861227498E+01  0.95830960148E+01  0.21197618675E+02  0.51100000000E-03 0.  1.
         12    1    3    3    0    0  0.43815427835E+01 -0.63626092613E+01 -0.10269967190E+02  0.12851184376E+02  0.00000000000E+00 0. -1.
</event>
<event>
 7    1  0.5441610E-013  0.5052886E+02  0.7816164E-02  0.1300439E+00
        -11   -1    0    0    0    0  0.00000000000E+00  0.00000000000E+00  0.45593999997E+02  0.45594000000E+02  0.51100000000E-03 0.  1.
         11   -1    0    0    0    0 -0.00000000000E+00 -0.00000000000E+00 -0.45593999997E+02  0.45594000000E+02  0.51100000000E-03 0. -1.
    9900012    2    1    2    0    0  0.14185457355E+02  0.10979998577E+02 -0.36488052996E+02  0.50528861045E+02  0.30000003634E+02 0.  0.
        -12    1    1    2    0    0 -0.14185457355E+02 -0.10979998577E+02  0.36488052996E+02  0.40659138955E+02  0.00000000000E+00 0.  1.
         11    1    3    3    0    0 -0.77225437854E+00  0.12769362064E+02 -0.81450943768E+01  0.15165604077E+02  0.51100000000E-03 0.  1.
        -11    1    3    3    0    0  0.14105003885E+02  0.36670903105E+01 -0.14959250304E+02  0.20884871459E+02  0.51100000000E-03 0. -1.
        -12    1    3    3    0    0  0.85270784803E+00 -0.54564537970E+01 -0.13383708315E+02  0.14478385510E+02  0.00000000000E+00 0.  1.
</event>
<event>
 7    1  0.9062276E-013  0.5052886E+02  0.7816164E-02  0.1300439E+00
        -11   -1    0    0    0    0  0.00000000000E+00  0.00000000000E+00  0.45593999997E+02  0.45594000000E+02  0.51100000000E-03 0. -1.
         11   -1    0    0    0    0 -0.00000000000E+00 -0.00000000000E+00 -0.45593999997E+02  0.45594000000E+02  0.51100000000E-03 0.  1.
    9900012    2    1    2    0    0  0.12995899797E+02  0.26276703842E+02  0.28174581406E+02  0.50528860637E+02  0.30000002392E+02 0.  0.
        -12    1    1    2    0    0 -0.12995899797E+02 -0.26276703842E+02 -0.28174581406E+02  0.40659139363E+02  0.00000000000E+00 0.  1.
         11    1    3    3    0    0  0.49687033495E+01  0.84277987107E+01  0.13411406014E+02  0.16600651060E+02  0.51100000000E-03 0. -1.
        -11    1    3    3    0    0 -0.63911632105E+01  0.53911120674E+01  0.12071219910E+02  0.14684189010E+02  0.51100000000E-03 0.  1.
        -12    1    3    3    0    0  0.14418359658E+02  0.12457793064E+02  0.26919554816E+01  0.19244020566E+02  0.00000000000E+00 0.  1.
</event>
<event>
 7    1  0.6502103E-013  0.5052887E+02  0.7816164E-02  0.1300439E+00
        -11   -1    0    0    0    0  0.00000000000E+00  0.00000000000E+00  0.45593999997E+02  0.45594000000E+02  0.51100000000E-03 0.  1.
         11   -1    0    0    0    0 -0.00000000000E+00 -0.00000000000E+00 -0.45593999997E+02  0.45594000000E+02  0.51100000000E-03 0. -1.
    9900012    2    1    2    0    0  0.33524721812E+02 -0.14243874542E+02  0.18065712182E+02  0.50528869523E+02  0.30000029401E+02 0.  0.
        -12    1    1    2    0    0 -0.33524721812E+02  0.14243874542E+02 -0.18065712182E+02  0.40659130477E+02  0.00000000000E+00 0.  1.
         11    1    3    3    0    0  0.23279920313E+02 -0.41837169874E+01  0.13088055212E+02  0.27032487254E+02  0.51100000000E-03 0. -1.
        -11    1    3    3    0    0  0.13053076703E+02 -0.30687718664E+01 -0.15880441634E+01  0.13502668503E+02  0.51100000000E-03 0.  1.
        -12    1    3    3    0    0 -0.28082752041E+01 -0.69913856882E+01  0.65657011331E+01  0.99937137657E+01  0.00000000000E+00 0.  1.
</event>
<event>
 7    1  0.5441610E-013  0.5052885E+02  0.7816164E-02  0.1300439E+00
        -11   -1    0    0    0    0  0.00000000000E+00  0.00000000000E+00  0.45593999997E+02  0.45594000000E+02  0.51100000000E-03 0. -1.
         11   -1    0    0    0    0 -0.00000000000E+00 -0.00000000000E+00 -0.45593999997E+02  0.45594000000E+02  0.51100000000E-03 0.  1.
    9900012    2    1    2    0    0 -0.29889532943E+02  0.27144844328E+02  0.47895491943E+01  0.50528849312E+02  0.29999967970E+02 0.  0.
        -12    1    1    2    0    0  0.29889532943E+02 -0.27144844328E+02 -0.47895491943E+01  0.40659150688E+02  0.00000000000E+00 0.  1.
         11    1    3    3    0    0 -0.11600272276E+01  0.80448711316E+01  0.10537585522E+02  0.13308129981E+02  0.51100000000E-03 0. -1.
        -11    1    3    3    0    0 -0.41763995656E+01  0.90256936314E+00 -0.50987741241E+01  0.66524012670E+01  0.51100000000E-03 0.  1.
         12    1    3    3    0    0 -0.24553106150E+02  0.18197403833E+02 -0.64926220367E+00  0.30568318064E+02  0.00000000000E+00 0. -1.
</event>
<event>
 7    1  0.5441610E-013  0.5052884E+02  0.7816164E-02  0.1300439E+00
        -11   -1    0    0    0    0  0.00000000000E+00  0.00000000000E+00  0.45593999997E+02  0.45594000000E+02  0.51100000000E-03 0. -1.
         11   -1    0    0    0    0 -0.00000000000E+00 -0.00000000000E+00 -0.45593999997E+02  0.45594000000E+02  0.51100000000E-03 0.  1.
    9900012    2    1    2    0    0  0.12358240410E+02  0.38608786909E+02  0.31309790167E+01  0.50528836676E+02  0.29999929560E+02 0.  0.
        -12    1    1    2    0    0 -0.12358240410E+02 -0.38608786909E+02 -0.31309790167E+01  0.40659163324E+02  0.00000000000E+00 0.  1.
         11    1    3    3    0    0  0.54048166073E+01  0.21827448023E+02 -0.12379735357E+02  0.25669191213E+02  0.51100000000E-03 0. -1.
        -11    1    3    3    0    0  0.51355505745E+01  0.70960410821E+01  0.37830907211E+01  0.95414597629E+01  0.51100000000E-03 0.  1.
        -12    1    3    3    0    0  0.18178732283E+01  0.96852978037E+01  0.11727623652E+02  0.15318185700E+02  0.00000000000E+00 0.  1.
</event>
<event>
 7    1  0.5441610E-013  0.5052886E+02  0.7816164E-02  0.1300439E+00
        -11   -1    0    0    0    0  0.00000000000E+00  0.00000000000E+00  0.45593999997E+02  0.45594000000E+02  0.51100000000E-03 0.  1.
         11   -1    0    0    0    0 -0.00000000000E+00 -0.00000000000E+00 -0.45593999997E+02  0.45594000000E+02  0.51100000000E-03 0. -1.
    9900012    2    1    2    0    0 -0.41238665847E+01 -0.39055426332E+01 -0.40260476428E+02  0.50528862022E+02  0.30000006603E+02 0.  0.
        -12    1    1    2    0    0  0.41238665847E+01  0.39055426332E+01  0.40260476428E+02  0.40659137978E+02  0.00000000000E+00 0.  1.
         11    1    3    3    0    0 -0.64884196824E+01  0.17080473793E+01 -0.20587766371E+01  0.70182317807E+01  0.51100000000E-03 0. -1.
        -11    1    3    3    0    0 -0.50186306786E+01  0.51963280998E+01 -0.92482510677E+01  0.11735358013E+02  0.51100000000E-03 0.  1.
         12    1    3    3    0    0  0.73831837764E+01 -0.10809918112E+02 -0.28953448723E+02  0.31775272229E+02  0.00000000000E+00 0. -1.
</event>
<event>
 7    1  0.5441610E-013  0.5052873E+02  0.7816164E-02  0.1300439E+00
        -11   -1    0    0    0    0  0.00000000000E+00  0.00000000000E+00  0.45593999997E+02  0.45594000000E+02  0.51100000000E-03 0. -1.
         11   -1    0    0    0    0 -0.00000000000E+00 -0.00000000000E+00 -0.45593999997E+02  0.45594000000E+02  0.51100000000E-03 0.  1.
    9900012    2    1    2    0    0  0.25167655242E+02  0.26126335735E+02 -0.18362462955E+02  0.50528728793E+02  0.29999601636E+02 0.  0.
        -12    1    1    2    0    0 -0.25167655242E+02 -0.26126335735E+02  0.18362462955E+02  0.40659271207E+02  0.00000000000E+00 0.  1.
         11    1    3    3    0    0  0.37675751062E+01  0.98875353577E+01 -0.10391569726E+02  0.14830465241E+02  0.51100000000E-03 0. -1.
        -11    1    3    3    0    0 -0.34557319110E+01  0.35802601857E+01  0.29021382128E+01  0.57604472487E+01  0.51100000000E-03 0.  1.
         12    1    3    3    0    0  0.24855812047E+02  0.12658540192E+02 -0.10873031442E+02  0.29937816304E+02  0.00000000000E+00 0. -1.
</event>
<event>
 7    1  0.5441610E-013  0.5052889E+02  0.7816164E-02  0.1300439E+00
        -11   -1    0    0    0    0  0.00000000000E+00  0.00000000000E+00  0.45593999997E+02  0.45594000000E+02  0.51100000000E-03 0.  1.
         11   -1    0    0    0    0 -0.00000000000E+00 -0.00000000000E+00 -0.45593999997E+02  0.45594000000E+02  0.51100000000E-03 0. -1.
    9900012    2    1    2    0    0 -0.20440725595E+02 -0.91419051434E+01 -0.33937669358E+02  0.50528891624E+02  0.30000096579E+02 0.  0.
        -12    1    1    2    0    0  0.20440725595E+02  0.91419051434E+01  0.33937669358E+02  0.40659108376E+02  0.00000000000E+00 0.  1.
         11    1    3    3    0    0 -0.11411103370E+02 -0.96268706330E+01 -0.82718861868E+01  0.17067923706E+02  0.51100000000E-03 0. -1.
        -11    1    3    3    0    0 -0.91469765004E+01  0.20059522336E+01 -0.17867842588E+01  0.95332901829E+01  0.51100000000E-03 0.  1.
         12    1    3    3    0    0  0.11735427492E+00 -0.15209867440E+01 -0.23878998912E+02  0.23927677734E+02  0.00000000000E+00 0. -1.
</event>
<event>
 7    1  0.5441610E-013  0.5052886E+02  0.7816164E-02  0.1300439E+00
        -11   -1    0    0    0    0  0.00000000000E+00  0.00000000000E+00  0.45593999997E+02  0.45594000000E+02  0.51100000000E-03 0.  1.
         11   -1    0    0    0    0 -0.00000000000E+00 -0.00000000000E+00 -0.45593999997E+02  0.45594000000E+02  0.51100000000E-03 0. -1.
    9900012    2    1    2    0    0  0.21779883811E+02 -0.10177569223E+02 -0.32790539678E+02  0.50528859005E+02  0.29999997431E+02 0.  0.
        -12    1    1    2    0    0 -0.21779883811E+02  0.10177569223E+02  0.32790539678E+02  0.40659140995E+02  0.00000000000E+00 0.  1.
         11    1    3    3    0    0  0.40810895894E+01  0.22865726226E+01 -0.22793284214E+00  0.46835520961E+01  0.51100000000E-03 0. -1.
        -11    1    3    3    0    0  0.51174347965E+01  0.72434862470E+01 -0.82131654979E+01  0.12087692901E+02  0.51100000000E-03 0.  1.
         12    1    3    3    0    0  0.12581359425E+02 -0.19707628093E+02 -0.24349441338E+02  0.33757614008E+02  0.00000000000E+00 0. -1.
</event>
<event>
 7    1  0.5441610E-013  0.5052888E+02  0.7816164E-02  0.1300439E+00
        -11   -1    0    0    0    0  0.00000000000E+00  0.00000000000E+00  0.45593999997E+02  0.45594000000E+02  0.51100000000E-03 0. -1.
         11   -1    0    0    0    0 -0.00000000000E+00 -0.00000000000E+00 -0.45593999997E+02  0.45594000000E+02  0.51100000000E-03 0.  1.
    9900012    2    1    2    0    0  0.80940565069E+01  0.39335905344E+02  0.63511184404E+01  0.50528881645E+02  0.30000066248E+02 0.  0.
        -12    1    1    2    0    0 -0.80940565069E+01 -0.39335905344E+02 -0.63511184404E+01  0.40659118355E+02  0.00000000000E+00 0.  1.
         11    1    3    3    0    0  0.35998475952E+01  0.42411115885E+01  0.78980532868E+01  0.96604956497E+01  0.51100000000E-03 0. -1.
        -11    1    3    3    0    0 -0.29236233516E+01 -0.14555762724E+01 -0.14485726573E+01  0.35727634671E+01  0.51100000000E-03 0.  1.
        -12    1    3    3    0    0  0.74178322633E+01  0.36550370028E+02 -0.98362189033E-01  0.37295622528E+02  0.00000000000E+00 0.  1.
</event>
<event>
 7    1  0.5441610E-013  0.5052886E+02  0.7816164E-02  0.1300439E+00
        -11   -1    0    0    0    0  0.00000000000E+00  0.00000000000E+00  0.45593999997E+02  0.45594000000E+02  0.51100000000E-03 0.  1.
         11   -1    0    0    0    0 -0.00000000000E+00 -0.00000000000E+00 -0.45593999997E+02  0.45594000000E+02  0.51100000000E-03 0. -1.
    9900012    2    1    2    0    0  0.14565741082E+02  0.37402991977E+02 -0.64823544811E+01  0.50528861523E+02  0.30000005084E+02 0.  0.
        -12    1    1    2    0    0 -0.14565741082E+02 -0.37402991977E+02  0.64823544811E+01  0.40659138477E+02  0.00000000000E+00 0.  1.
         11    1    3    3    0    0 -0.68011300898E+01  0.16076329106E+02 -0.20412502054E+01  0.17574709974E+02  0.51100000000E-03 0. -1.
        -11    1    3    3    0    0  0.10073539305E+02  0.16635785044E+02  0.12040230050E+01  0.19485256216E+02  0.51100000000E-03 0.  1.
        -12    1    3    3    0    0  0.11293331868E+02  0.46908778277E+01 -0.56451272806E+01  0.13468895333E+02  0.00000000000E+00 0.  1.
</event>
<event>
 7    1  0.5441610E-013  0.5052886E+02  0.7816164E-02  0.1300439E+00
        -11   -1    0    0    0    0  0.00000000000E+00  0.00000000000E+00  0.45593999997E+02  0.45594000000E+02  0.51100000000E-03 0.  1.
         11   -1    0    0    0    0 -0.00000000000E+00 -0.00000000000E+00 -0.45593999997E+02  0.45594000000E+02  0.51100000000E-03 0. -1.
    9900012    2    1    2    0    0 -0.12994374670E+02  0.11790012908E+02 -0.36678436408E+02  0.50528857427E+02  0.29999992634E+02 0.  0.
        -12    1    1    2    0    0  0.12994374670E+02 -0.11790012908E+02  0.36678436408E+02  0.40659142573E+02  0.00000000000E+00 0.  1.
         11    1    3    3    0    0 -0.23236305502E+01  0.45886157726E+01 -0.24027995539E+01  0.56769797956E+01  0.51100000000E-03 0. -1.
        -11    1    3    3    0    0 -0.23770624976E+01 -0.95381918407E+01 -0.83563645646E+01  0.12901796724E+02  0.51100000000E-03 0.  1.
         12    1    3    3    0    0 -0.82936816220E+01  0.16739588976E+02 -0.25919272290E+02  0.31950080907E+02  0.00000000000E+00 0. -1.
</event>
<event>
 7    1  0.5441610E-013  0.5052886E+02  0.7816164E-02  0.1300439E+00
        -11   -1    0    0    0    0  0.00000000000E+00  0.00000000000E+00  0.45593999997E+02  0.45594000000E+02  0.51100000000E-03 0. -1.
         11   -1    0    0    0    0 -0.00000000000E+00 -0.00000000000E+00 -0.45593999997E+02  0.45594000000E+02  0.51100000000E-03 0.  1.
    9900012    2    1    2    0    0 -0.25464321996E+02 -0.24981597913E+02  0.19510347608E+02  0.50528860894E+02  0.30000003174E+02 0.  0.
        -12    1    1    2    0    0  0.25464321996E+02  0.24981597913E+02 -0.19510347608E+02  0.40659139106E+02  0.00000000000E+00 0.  1.
         11    1    3    3    0    0  0.15358878615E+00 -0.10495776884E+02  0.40211588591E+01  0.11240758015E+02  0.51100000000E-03 0. -1.
        -11    1    3    3    0    0 -0.19061763721E+02 -0.18843524146E+02  0.16305643271E+02  0.31373607397E+02  0.51100000000E-03 0.  1.
        -12    1    3    3    0    0 -0.65561470620E+01  0.43577031163E+01 -0.81645452297E+00  0.79144954821E+01  0.00000000000E+00 0.  1.
</event>
<event>
 7    1  0.5441610E-013  0.5052886E+02  0.7816164E-02  0.1300439E+00
        -11   -1    0    0    0    0  0.00000000000E+00  0.00000000000E+00  0.45593999997E+02  0.45594000000E+02  0.51100000000E-03 0. -1.
         11   -1    0    0    0    0 -0.00000000000E+00 -0.00000000000E+00 -0.45593999997E+02  0.45594000000E+02  0.51100000000E-03 0.  1.
    9900012    2    1    2    0    0  0.38536950216E+02  0.11550639078E+02  0.58866180962E+01  0.50528855055E+02  0.29999985424E+02 0.  0.
        -12    1    1    2    0    0 -0.38536950216E+02 -0.11550639078E+02 -0.58866180962E+01  0.40659144945E+02  0.00000000000E+00 0.  1.
         11    1    3    3    0    0  0.15125276367E+02 -0.13344860005E+01 -0.66052478098E+00  0.15198392393E+02  0.51100000000E-03 0. -1.
        -11    1    3    3    0    0  0.23541917355E+02  0.52871751322E+01  0.11005864015E+02  0.26519900765E+02  0.51100000000E-03 0.  1.
        -12    1    3    3    0    0 -0.13024350587E+00  0.75979499468E+01 -0.44587211374E+01  0.88105618973E+01  0.00000000000E+00 0.  1.
</event>
<event>
 7    1  0.5441610E-013  0.5052886E+02  0.7816164E-02  0.1300439E+00
        -11   -1    0    0    0    0  0.00000000000E+00  0.00000000000E+00  0.45593999997E+02  0.45594000000E+02  0.51100000000E-03 0.  1.
         11   -1    0    0    0    0 -0.00000000000E+00 -0.00000000000E+00 -0.45593999997E+02  0.45594000000E+02  0.51100000000E-03 0. -1.
    9900012    2    1    2    0    0  0.21473704185E+01  0.40344912205E+02 -0.45653902581E+01  0.50528856763E+02  0.29999990617E+02 0.  0.
        -12    1    1    2    0    0 -0.21473704185E+01 -0.40344912205E+02  0.45653902581E+01  0.40659143237E+02  0.00000000000E+00 0.  1.
         11    1    3    3    0    0  0.62259164134E+00 -0.10260957758E+01 -0.47807298700E+01  0.49290842196E+01  0.51100000000E-03 0. -1.
        -11    1    3    3    0    0  0.80892288643E+01  0.20443371641E+02 -0.60250878651E+01  0.22796244246E+02  0.51100000000E-03 0.  1.
        -12    1    3    3    0    0 -0.65644500871E+01  0.20927636340E+02  0.62404274770E+01  0.22803528297E+02  0.00000000000E+00 0.  1.
</event>
<event>
 7    1  0.5441610E-013  0.5052887E+02  0.7816164E-02  0.1300439E+00
        -11   -1    0    0    0    0  0.00000000000E+00  0.00000000000E+00  0.45593999997E+02  0.45594000000E+02  0.51100000000E-03 0.  1.
         11   -1    0    0    0    0 -0.00000000000E+00 -0.00000000000E+00 -0.45593999997E+02  0.45594000000E+02  0.51100000000E-03 0. -1.
    9900012    2    1    2    0    0 -0.29555087259E+02 -0.18067378347E+02  0.21289235240E+02  0.50528869656E+02  0.30000029807E+02 0.  0.
        -12    1    1    2    0    0  0.29555087259E+02  0.18067378347E+02 -0.21289235240E+02  0.40659130344E+02  0.00000000000E+00 0.  1.
         11    1    3    3    0    0 -0.23682446282E+02 -0.21345087074E+02  0.11933025507E+02  0.34042151843E+02  0.51100000000E-03 0. -1.
        -11    1    3    3    0    0 -0.82376150464E+01 -0.69206110599E+00  0.83654250149E+01  0.11760849721E+02  0.51100000000E-03 0.  1.
         12    1    3    3    0    0  0.23649740690E+01  0.39697698324E+01  0.99078471747E+00  0.47258680923E+01  0.00000000000E+00 0. -1.
</event>
<event>
 7    1  0.5441610E-013  0.5052886E+02  0.7816164E-02  0.1300439E+00
        -11   -1    0    0    0    0  0.00000000000E+00  0.00000000000E+00  0.45593999997E+02  0.45594000000E+02  0.51100000000E-03 0. -1.
         11   -1    0    0    0    0 -0.00000000000E+00 -0.00000000000E+00 -0.45593999997E+02  0.45594000000E+02  0.51100000000E-03 0.  1.
    9900012    2    1    2    0    0 -0.19225597555E+02  0.63007219767E+00  0.35821013673E+02  0.50528860648E+02  0.30000002425E+02 0.  0.
        -12    1    1    2    0    0  0.19225597555E+02 -0.63007219767E+00 -0.35821013673E+02  0.40659139352E+02  0.00000000000E+00 0.  1.
         11    1    3    3    0    0 -0.42589226785E+01  0.88759335073E+00  0.86150128329E+01  0.96511497092E+01  0.51100000000E-03 0. -1.
        -11    1    3    3    0    0 -0.15555181259E+02  0.10636626007E+02  0.21416842825E+02  0.28526875638E+02  0.51100000000E-03 0.  1.
         12    1    3    3    0    0  0.58850638281E+00 -0.10894147160E+02  0.57891580145E+01  0.12350835300E+02  0.00000000000E+00 0. -1.
</event>
<event>
 7    1  0.5441610E-013  0.5052885E+02  0.7816164E-02  0.1300439E+00
        -11   -1    0    0    0    0  0.00000000000E+00  0.00000000000E+00  0.45593999997E+02  0.45594000000E+02  0.51100000000E-03 0.  1.
         11   -1    0    0    0    0 -0.00000000000E+00 -0.00000000000E+00 -0.45593999997E+02  0.45594000000E+02  0.51100000000E-03 0. -1.
    9900012    2    1    2    0    0  0.81592222257E+01  0.27795910896E+02 -0.28530352037E+02  0.50528849035E+02  0.29999967126E+02 0.  0.
        -12    1    1    2    0    0 -0.81592222257E+01 -0.27795910896E+02  0.28530352037E+02  0.40659150965E+02  0.00000000000E+00 0.  1.
         11    1    3    3    0    0  0.29336158836E+01  0.29343134161E+02 -0.23066069310E+02  0.37438872555E+02  0.51100000000E-03 0. -1.
        -11    1    3    3    0    0 -0.31760413773E+01 -0.84028987748E+00 -0.25856188683E+01  0.41807596322E+01  0.51100000000E-03 0.  1.
        -12    1    3    3    0    0  0.84016477195E+01 -0.70693338786E+00 -0.28786638590E+01  0.89092168472E+01  0.00000000000E+00 0.  1.
</event>
<event>
 7    1  0.5441610E-013  0.5052885E+02  0.7816164E-02  0.1300439E+00
        -11   -1    0    0    0    0  0.00000000000E+00  0.00000000000E+00  0.45593999997E+02  0.45594000000E+02  0.51100000000E-03 0. -1.
         11   -1    0    0    0    0 -0.00000000000E+00 -0.00000000000E+00 -0.45593999997E+02  0.45594000000E+02  0.51100000000E-03 0.  1.
    9900012    2    1    2    0    0 -0.35055714164E+01  0.26478440048E+02  0.30655659116E+02  0.50528852762E+02  0.29999978455E+02 0.  0.
        -12    1    1    2    0    0  0.35055714164E+01 -0.26478440048E+02 -0.30655659116E+02  0.40659147238E+02  0.00000000000E+00 0.  1.
         11    1    3    3    0    0 -0.92981637156E+01  0.71108485473E+01  0.17128468224E+02  0.20746190964E+02  0.51100000000E-03 0. -1.
        -11    1    3    3    0    0  0.29146413045E+01  0.10585152033E+02  0.16721943654E+02  0.20004099013E+02  0.51100000000E-03 0.  1.
        -12    1    3    3    0    0  0.28779509947E+01  0.87824394674E+01 -0.31947527624E+01  0.97785627850E+01  0.00000000000E+00 0.  1.
</event>
<event>
 7    1  0.5441610E-013  0.5052893E+02  0.7816164E-02  0.1300439E+00
        -11   -1    0    0    0    0  0.00000000000E+00  0.00000000000E+00  0.45593999997E+02  0.45594000000E+02  0.51100000000E-03 0.  1.
         11   -1    0    0    0    0 -0.00000000000E+00 -0.00000000000E+00 -0.45593999997E+02  0.45594000000E+02  0.51100000000E-03 0. -1.
    9900012    2    1    2    0    0 -0.36078223030E+02 -0.18678033966E+02  0.16287133544E+01  0.50528931675E+02  0.30000218320E+02 0.  0.
        -12    1    1    2    0    0  0.36078223030E+02  0.18678033966E+02 -0.16287133544E+01  0.40659068325E+02  0.00000000000E+00 0.  1.
         11    1    3    3    0    0 -0.11126003083E+02  0.14340733333E+01 -0.84103727282E+01  0.14020659065E+02  0.51100000000E-03 0. -1.
        -11    1    3    3    0    0 -0.16563491170E+02 -0.86280584065E+01 -0.69739687726E+00  0.18689007311E+02  0.51100000000E-03 0.  1.
        -12    1    3    3    0    0 -0.83887287763E+01 -0.11484048893E+02  0.10736482960E+02  0.17819265299E+02  0.00000000000E+00 0.  1.
</event>
<event>
 7    1  0.5441610E-013  0.5052887E+02  0.7816164E-02  0.1300439E+00
        -11   -1    0    0    0    0  0.00000000000E+00  0.00000000000E+00  0.45593999997E+02  0.45594000000E+02  0.51100000000E-03 0. -1.
         11   -1    0    0    0    0 -0.00000000000E+00 -0.00000000000E+00 -0.45593999997E+02  0.45594000000E+02  0.51100000000E-03 0.  1.
    9900012    2    1    2    0    0  0.25610788095E+02  0.31542716760E+02 -0.15198010594E+01  0.50528865200E+02  0.30000016261E+02 0.  0.
        -12    1    1    2    0    0 -0.25610788095E+02 -0.31542716760E+02  0.15198010594E+01  0.40659134800E+02  0.00000000000E+00 0.  1.
         11    1    3    3    0    0  0.36454661404E+01  0.11972092428E+02 -0.92056619918E+01  0.15535914310E+02  0.51100000000E-03 0. -1.
        -11    1    3    3    0    0  0.97651700614E+01  0.17807957007E+02 -0.28837937014E+00  0.20311697172E+02  0.51100000000E-03 0.  1.
        -12    1    3    3    0    0  0.12200151893E+02  0.17626673258E+01  0.79742403026E+01  0.14681253718E+02  0.00000000000E+00 0.  1.
</event>
<event>
 7    1  0.5649147E-013  0.5052880E+02  0.7816164E-02  0.1300439E+00
        -11   -1    0    0    0    0  0.00000000000E+00  0.00000000000E+00  0.45593999997E+02  0.45594000000E+02  0.51100000000E-03 0. -1.
         11   -1    0    0    0    0 -0.00000000000E+00 -0.00000000000E+00 -0.45593999997E+02  0.45594000000E+02  0.51100000000E-03 0.  1.
    9900012    2    1    2    0    0 -0.99636726788E+00 -0.28180274687E+02  0.29292486370E+02  0.50528801940E+02  0.29999823977E+02 0.  0.
        -12    1    1    2    0    0  0.99636726788E+00  0.28180274687E+02 -0.29292486370E+02  0.40659198060E+02  0.00000000000E+00 0.  1.
         11    1    3    3    0    0 -0.19753421891E-01 -0.18255532688E+02  0.28478729141E+02  0.33827546137E+02  0.51100000000E-03 0. -1.
        -11    1    3    3    0    0 -0.66239250072E+01 -0.33225269551E+01  0.25586084071E+01  0.78397732818E+01  0.51100000000E-03 0.  1.
        -12    1    3    3    0    0  0.56473111612E+01 -0.66022150436E+01 -0.17448511784E+01  0.88614825209E+01  0.00000000000E+00 0.  1.
</event>
<event>
 7    1  0.5441610E-013  0.5052885E+02  0.7816164E-02  0.1300439E+00
        -11   -1    0    0    0    0  0.00000000000E+00  0.00000000000E+00  0.45593999997E+02  0.45594000000E+02  0.51100000000E-03 0.  1.
         11   -1    0    0    0    0 -0.00000000000E+00 -0.00000000000E+00 -0.45593999997E+02  0.45594000000E+02  0.51100000000E-03 0. -1.
    9900012    2    1    2    0    0 -0.15087273315E+02 -0.16975293857E+02 -0.33725060542E+02  0.50528854335E+02  0.29999983237E+02 0.  0.
        -12    1    1    2    0    0  0.15087273315E+02  0.16975293857E+02  0.33725060542E+02  0.40659145665E+02  0.00000000000E+00 0.  1.
         11    1    3    3    0    0 -0.88096736467E+01 -0.16641292360E+01 -0.27355583446E+02  0.28787282293E+02  0.51100000000E-03 0. -1.
        -11    1    3    3    0    0  0.68176948958E+00  0.15453457153E+01  0.11203043580E+01  0.20268165019E+01  0.51100000000E-03 0.  1.
         12    1    3    3    0    0 -0.69593691575E+01 -0.16856510336E+02 -0.74897814544E+01  0.19714755541E+02  0.00000000000E+00 0. -1.
</event>
<event>
 7    1  0.5441610E-013  0.5052887E+02  0.7816164E-02  0.1300439E+00
        -11   -1    0    0    0    0  0.00000000000E+00  0.00000000000E+00  0.45593999997E+02  0.45594000000E+02  0.51100000000E-03 0. -1.
         11   -1    0    0    0    0 -0.00000000000E+00 -0.00000000000E+00 -0.45593999997E+02  0.45594000000E+02  0.51100000000E-03 0.  1.
    9900012    2    1    2    0    0 -0.37556703910E+02 -0.10660819622E+02  0.11358085509E+02  0.50528865847E+02  0.30000018230E+02 0.  0.
        -12    1    1    2    0    0  0.37556703910E+02  0.10660819622E+02 -0.11358085509E+02  0.40659134153E+02  0.00000000000E+00 0.  1.
         11    1    3    3    0    0 -0.12633927666E+01 -0.39138566853E+01 -0.21922678960E+01  0.46605229561E+01  0.51100000000E-03 0.  1.
        -11    1    3    3    0    0 -0.26653540488E+02 -0.14486781909E+02  0.47788114028E+01  0.30710179246E+02  0.51100000000E-03 0. -1.
         12    1    3    3    0    0 -0.96397706552E+01  0.77398189717E+01  0.87715420026E+01  0.15158163645E+02  0.00000000000E+00 0. -1.
</event>
<event>
 7    1  0.5441610E-013  0.5052885E+02  0.7816164E-02  0.1300439E+00
        -11   -1    0    0    0    0  0.00000000000E+00  0.00000000000E+00  0.45593999997E+02  0.45594000000E+02  0.51100000000E-03 0. -1.
         11   -1    0    0    0    0 -0.00000000000E+00 -0.00000000000E+00 -0.45593999997E+02  0.45594000000E+02  0.51100000000E-03 0.  1.
    9900012    2    1    2    0    0  0.28067305923E+01 -0.19399366838E+02  0.35622367870E+02  0.50528852653E+02  0.29999978124E+02 0.  0.
        -12    1    1    2    0    0 -0.28067305923E+01  0.19399366838E+02 -0.35622367870E+02  0.40659147347E+02  0.00000000000E+00 0.  1.
         11    1    3    3    0    0  0.81961962775E+01 -0.12059609112E+02  0.13930344727E+02  0.20165969102E+02  0.51100000000E-03 0. -1.
        -11    1    3    3    0    0  0.33812172320E+01  0.16382434472E+01  0.16257092500E+02  0.16685608420E+02  0.51100000000E-03 0.  1.
        -12    1    3    3    0    0 -0.87706829172E+01 -0.89780011723E+01  0.54349306435E+01  0.13677275130E+02  0.00000000000E+00 0.  1.
</event>
<event>
 7    1  0.5441610E-013  0.5052886E+02  0.7816164E-02  0.1300439E+00
        -11   -1    0    0    0    0  0.00000000000E+00  0.00000000000E+00  0.45593999997E+02  0.45594000000E+02  0.51100000000E-03 0.  1.
         11   -1    0    0    0    0 -0.00000000000E+00 -0.00000000000E+00 -0.45593999997E+02  0.45594000000E+02  0.51100000000E-03 0. -1.
    9900012    2    1    2    0    0 -0.25081737864E+02 -0.29714396760E+02 -0.11879692466E+02  0.50528855368E+02  0.29999986378E+02 0.  0.
        -12    1    1    2    0    0  0.25081737864E+02  0.29714396760E+02  0.11879692466E+02  0.40659144632E+02  0.00000000000E+00 0.  1.
         11    1    3    3    0    0 -0.11998347666E+02 -0.87562723890E+00 -0.29728993071E+01  0.12392142685E+02  0.51100000000E-03 0. -1.
        -11    1    3    3    0    0  0.35326249086E+00 -0.16211249090E+01  0.46174327573E+01  0.49064779514E+01  0.51100000000E-03 0.  1.
        -12    1    3    3    0    0 -0.13436652689E+02 -0.27217644612E+02 -0.13524225916E+02  0.33230234732E+02  0.00000000000E+00 0.  1.
</event>
<event>
 7    1  0.5441610E-013  0.5052886E+02  0.7816164E-02  0.1300439E+00
        -11   -1    0    0    0    0  0.00000000000E+00  0.00000000000E+00  0.45593999997E+02  0.45594000000E+02  0.51100000000E-03 0.  1.
         11   -1    0    0    0    0 -0.00000000000E+00 -0.00000000000E+00 -0.45593999997E+02  0.45594000000E+02  0.51100000000E-03 0. -1.
    9900012    2    1    2    0    0 -0.12121336470E+02 -0.35249633240E+02 -0.16238906537E+02  0.50528861705E+02  0.30000005638E+02 0.  0.
        -12    1    1    2    0    0  0.12121336470E+02  0.35249633240E+02  0.16238906537E+02  0.40659138295E+02  0.00000000000E+00 0.  1.
         11    1    3    3    0    0 -0.63826627917E+01 -0.15435231218E+02 -0.30901067342E+01  0.16986274075E+02  0.51100000000E-03 0. -1.
        -11    1    3    3    0    0 -0.37337540908E+01 -0.18396069634E+02 -0.19297738051E+02  0.26921348253E+02  0.51100000000E-03 0.  1.
        -12    1    3    3    0    0 -0.20049195877E+01 -0.14183323882E+01  0.61489382478E+01  0.66212393774E+01  0.00000000000E+00 0.  1.
</event>
<event>
 7    1  0.5441610E-013  0.5052886E+02  0.7816164E-02  0.1300439E+00
        -11   -1    0    0    0    0  0.00000000000E+00  0.00000000000E+00  0.45593999997E+02  0.45594000000E+02  0.51100000000E-03 0.  1.
         11   -1    0    0    0    0 -0.00000000000E+00 -0.00000000000E+00 -0.45593999997E+02  0.45594000000E+02  0.51100000000E-03 0. -1.
    9900012    2    1    2    0    0  0.12944310805E+02  0.80750782767E+01 -0.37688238582E+02  0.50528863280E+02  0.30000010426E+02 0.  0.
        -12    1    1    2    0    0 -0.12944310805E+02 -0.80750782767E+01  0.37688238582E+02  0.40659136720E+02  0.00000000000E+00 0.  1.
         11    1    3    3    0    0 -0.79826254093E+00  0.93785868384E+01 -0.49357525168E+01  0.10628112125E+02  0.51100000000E-03 0. -1.
        -11    1    3    3    0    0  0.13439293996E+01 -0.80832337534E+01 -0.83308069933E+01  0.11685339514E+02  0.51100000000E-03 0.  1.
         12    1    3    3    0    0  0.12398643946E+02  0.67797251916E+01 -0.24421679072E+02  0.28215411641E+02  0.00000000000E+00 0. -1.
</event>
<event>
 7    1  0.5441610E-013  0.5052887E+02  0.7816164E-02  0.1300439E+00
        -11   -1    0    0    0    0  0.00000000000E+00  0.00000000000E+00  0.45593999997E+02  0.45594000000E+02  0.51100000000E-03 0.  1.
         11   -1    0    0    0    0 -0.00000000000E+00 -0.00000000000E+00 -0.45593999997E+02  0.45594000000E+02  0.51100000000E-03 0. -1.
    9900012    2    1    2    0    0  0.16452029352E+02 -0.27437842310E+02 -0.25093042264E+02  0.50528865350E+02  0.30000016717E+02 0.  0.
        -12    1    1    2    0    0 -0.16452029352E+02  0.27437842310E+02  0.25093042264E+02  0.40659134650E+02  0.00000000000E+00 0.  1.
         11    1    3    3    0    0  0.25321750434E+01 -0.10978125714E+02 -0.86078227139E+01  0.14178355574E+02  0.51100000000E-03 0. -1.
        -11    1    3    3    0    0  0.89304689395E+00 -0.18751683832E+02 -0.12433339856E+02  0.22516907415E+02  0.51100000000E-03 0.  1.
         12    1    3    3    0    0  0.13026807415E+02  0.22919672356E+01 -0.40518796942E+01  0.13833602361E+02  0.00000000000E+00 0. -1.
</event>
<event>
 7    1  0.5441610E-013  0.5052886E+02  0.7816164E-02  0.1300439E+00
        -11   -1    0    0    0    0  0.00000000000E+00  0.00000000000E+00  0.45593999997E+02  0.45594000000E+02  0.51100000000E-03 0.  1.
         11   -1    0    0    0    0 -0.00000000000E+00 -0.00000000000E+00 -0.45593999997E+02  0.45594000000E+02  0.51100000000E-03 0. -1.
    9900012    2    1    2    0    0  0.69725335811E+01  0.37912590593E+02 -0.12930014161E+02  0.50528855687E+02  0.29999987347E+02 0.  0.
        -12    1    1    2    0    0 -0.69725335811E+01 -0.37912590593E+02  0.12930014161E+02  0.40659144313E+02  0.00000000000E+00 0.  1.
         11    1    3    3    0    0 -0.34743005508E+00  0.16247182367E+02  0.20409995011E+01  0.16378562872E+02  0.51100000000E-03 0. -1.
        -11    1    3    3    0    0  0.10080676538E+02  0.80701422926E+01  0.10524177640E+01  0.12955879726E+02  0.51100000000E-03 0.  1.
         12    1    3    3    0    0 -0.27607129013E+01  0.13595265933E+02 -0.16023431426E+02  0.21194413089E+02  0.00000000000E+00 0. -1.
</event>
<event>
 7    1  0.5441610E-013  0.5052890E+02  0.7816164E-02  0.1300439E+00
        -11   -1    0    0    0    0  0.00000000000E+00  0.00000000000E+00  0.45593999997E+02  0.45594000000E+02  0.51100000000E-03 0.  1.
         11   -1    0    0    0    0 -0.00000000000E+00 -0.00000000000E+00 -0.45593999997E+02  0.45594000000E+02  0.51100000000E-03 0. -1.
    9900012    2    1    2    0    0  0.30026416695E+02  0.26955970549E+02  0.49952641686E+01  0.50528896322E+02  0.30000110861E+02 0.  0.
        -12    1    1    2    0    0 -0.30026416695E+02 -0.26955970549E+02 -0.49952641686E+01  0.40659103678E+02  0.00000000000E+00 0.  1.
         11    1    3    3    0    0  0.99553898479E+01 -0.18172119313E+01 -0.29388638869E+01  0.10537977388E+02  0.51100000000E-03 0. -1.
        -11    1    3    3    0    0  0.52937695124E+00 -0.79756638594E+00  0.42489656472E+01  0.43554634000E+01  0.51100000000E-03 0.  1.
         12    1    3    3    0    0  0.19541649895E+02  0.29570748866E+02  0.36851624083E+01  0.35635455534E+02  0.00000000000E+00 0. -1.
</event>
<event>
 7    1  0.5441610E-013  0.5052886E+02  0.7816164E-02  0.1300439E+00
        -11   -1    0    0    0    0  0.00000000000E+00  0.00000000000E+00  0.45593999997E+02  0.45594000000E+02  0.51100000000E-03 0.  1.
         11   -1    0    0    0    0 -0.00000000000E+00 -0.00000000000E+00 -0.45593999997E+02  0.45594000000E+02  0.51100000000E-03 0. -1.
    9900012    2    1    2    0    0 -0.32058023592E+02 -0.14482094054E+02 -0.20389159536E+02  0.50528858944E+02  0.29999997245E+02 0.  0.
        -12    1    1    2    0    0  0.32058023592E+02  0.14482094054E+02  0.20389159536E+02  0.40659141056E+02  0.00000000000E+00 0.  1.
         11    1    3    3    0    0  0.11064437054E+01 -0.24973270497E+01  0.64568039171E+00  0.28067353804E+01  0.51100000000E-03 0. -1.
        -11    1    3    3    0    0 -0.15177203275E+02 -0.10363434145E+01  0.32742747475E+01  0.15560924853E+02  0.51100000000E-03 0.  1.
         12    1    3    3    0    0 -0.17987264023E+02 -0.10948423590E+02 -0.24309114676E+02  0.32161198710E+02  0.00000000000E+00 0. -1.
</event>
<event>
 7    1  0.5441610E-013  0.5052885E+02  0.7816164E-02  0.1300439E+00
        -11   -1    0    0    0    0  0.00000000000E+00  0.00000000000E+00  0.45593999997E+02  0.45594000000E+02  0.51100000000E-03 0.  1.
         11   -1    0    0    0    0 -0.00000000000E+00 -0.00000000000E+00 -0.45593999997E+02  0.45594000000E+02  0.51100000000E-03 0. -1.
    9900012    2    1    2    0    0 -0.58647687332E+01 -0.29577928208E+01 -0.40125082886E+02  0.50528851863E+02  0.29999975722E+02 0.  0.
        -12    1    1    2    0    0  0.58647687332E+01  0.29577928208E+01  0.40125082886E+02  0.40659148137E+02  0.00000000000E+00 0.  1.
         11    1    3    3    0    0  0.42050870735E+01  0.66000179346E+01 -0.25689689722E+02  0.26855225792E+02  0.51100000000E-03 0.  1.
        -11    1    3    3    0    0 -0.56710640314E+01  0.20301089651E+01 -0.69372853346E+01  0.91873955903E+01  0.51100000000E-03 0. -1.
        -12    1    3    3    0    0 -0.43987917754E+01 -0.11587919721E+02 -0.74981078289E+01  0.14486230481E+02  0.00000000000E+00 0.  1.
</event>
<event>
 7    1  0.5441610E-013  0.5052886E+02  0.7816164E-02  0.1300439E+00
        -11   -1    0    0    0    0  0.00000000000E+00  0.00000000000E+00  0.45593999997E+02  0.45594000000E+02  0.51100000000E-03 0. -1.
         11   -1    0    0    0    0 -0.00000000000E+00 -0.00000000000E+00 -0.45593999997E+02  0.45594000000E+02  0.51100000000E-03 0.  1.
    9900012    2    1    2    0    0 -0.89942011432E+01 -0.19844886727E+02  0.34328569706E+02  0.50528857344E+02  0.29999992383E+02 0.  0.
        -12    1    1    2    0    0  0.89942011432E+01  0.19844886727E+02 -0.34328569706E+02  0.40659142656E+02  0.00000000000E+00 0.  1.
         11    1    3    3    0    0 -0.24328972246E+01 -0.16212662172E+02  0.23615178981E+02  0.28747975271E+02  0.51100000000E-03 0. -1.
        -11    1    3    3    0    0 -0.10110679512E+02 -0.48123634142E+01  0.13184531655E+02  0.17297877241E+02  0.51100000000E-03 0.  1.
        -12    1    3    3    0    0  0.35493755936E+01  0.11801388590E+01 -0.24711409295E+01  0.44830048321E+01  0.00000000000E+00 0.  1.
</event>
<event>
 7    1  0.5441610E-013  0.5052885E+02  0.7816164E-02  0.1300439E+00
        -11   -1    0    0    0    0  0.00000000000E+00  0.00000000000E+00  0.45593999997E+02  0.45594000000E+02  0.51100000000E-03 0.  1.
         11   -1    0    0    0    0 -0.00000000000E+00 -0.00000000000E+00 -0.45593999997E+02  0.45594000000E+02  0.51100000000E-03 0. -1.
    9900012    2    1    2    0    0  0.20991331541E+02  0.12562859523E+02 -0.32476226059E+02  0.50528847300E+02  0.29999961853E+02 0.  0.
        -12    1    1    2    0    0 -0.20991331541E+02 -0.12562859523E+02  0.32476226059E+02  0.40659152700E+02  0.00000000000E+00 0.  1.
         11    1    3    3    0    0  0.11885003799E+02  0.15205915185E+02 -0.23447592825E+02  0.30368779716E+02  0.51100000000E-03 0. -1.
        -11    1    3    3    0    0  0.60620898917E+00 -0.38395978267E+01 -0.10727143085E+02  0.11409715152E+02  0.51100000000E-03 0.  1.
        -12    1    3    3    0    0  0.85001187535E+01  0.11965421647E+01  0.16985098514E+01  0.87503524324E+01  0.00000000000E+00 0.  1.
</event>
<event>
 7    1  0.5441610E-013  0.5052884E+02  0.7816164E-02  0.1300439E+00
        -11   -1    0    0    0    0  0.00000000000E+00  0.00000000000E+00  0.45593999997E+02  0.45594000000E+02  0.51100000000E-03 0. -1.
         11   -1    0    0    0    0 -0.00000000000E+00 -0.00000000000E+00 -0.45593999997E+02  0.45594000000E+02  0.51100000000E-03 0.  1.
    9900012    2    1    2    0    0 -0.18677608408E+01 -0.19310810304E+02  0.35731933839E+02  0.50528843331E+02  0.29999949789E+02 0.  0.
        -12    1    1    2    0    0  0.18677608408E+01  0.19310810304E+02 -0.35731933839E+02  0.40659156669E+02  0.00000000000E+00 0.  1.
         11    1    3    3    0    0 -0.59687040358E+01  0.18597997758E+00  0.10558788306E+02  0.12130458655E+02  0.51100000000E-03 0. -1.
        -11    1    3    3    0    0 -0.41839613835E+01 -0.30389686161E+01 -0.20192161956E+01  0.55514049946E+01  0.51100000000E-03 0.  1.
        -12    1    3    3    0    0  0.82849045785E+01 -0.16457821665E+02  0.27192361728E+02  0.32846979682E+02  0.00000000000E+00 0.  1.
</event>
<event>
 7    1  0.5441610E-013  0.5052886E+02  0.7816164E-02  0.1300439E+00
        -11   -1    0    0    0    0  0.00000000000E+00  0.00000000000E+00  0.45593999997E+02  0.45594000000E+02  0.51100000000E-03 0.  1.
         11   -1    0    0    0    0 -0.00000000000E+00 -0.00000000000E+00 -0.45593999997E+02  0.45594000000E+02  0.51100000000E-03 0. -1.
    9900012    2    1    2    0    0  0.18378258977E+02  0.92239470474E+00 -0.36256779330E+02  0.50528864958E+02  0.30000015525E+02 0.  0.
        -12    1    1    2    0    0 -0.18378258977E+02 -0.92239470474E+00  0.36256779330E+02  0.40659135042E+02  0.00000000000E+00 0.  1.
         11    1    3    3    0    0  0.30049057451E+01 -0.68316939809E+01 -0.19043274030E+02  0.20453551946E+02  0.51100000000E-03 0. -1.
        -11    1    3    3    0    0 -0.20733296455E+01  0.67686433934E+01 -0.62728733593E+01  0.94584443567E+01  0.51100000000E-03 0.  1.
         12    1    3    3    0    0  0.17446682878E+02  0.98544529221E+00 -0.10940631941E+02  0.20616868655E+02  0.00000000000E+00 0. -1.
</event>
<event>
 7    1  0.5441610E-013  0.5052888E+02  0.7816164E-02  0.1300439E+00
        -11   -1    0    0    0    0  0.00000000000E+00  0.00000000000E+00  0.45593999997E+02  0.45594000000E+02  0.51100000000E-03 0. -1.
         11   -1    0    0    0    0 -0.00000000000E+00 -0.00000000000E+00 -0.45593999997E+02  0.45594000000E+02  0.51100000000E-03 0.  1.
    9900012    2    1    2    0    0 -0.21451387371E+01 -0.40270894399E+02  0.51785911468E+01  0.50528876028E+02  0.30000049176E+02 0.  0.
        -12    1    1    2    0    0  0.21451387371E+01  0.40270894399E+02 -0.51785911468E+01  0.40659123972E+02  0.00000000000E+00 0.  1.
         11    1    3    3    0    0 -0.20723192556E+01  0.17263567788E+01 -0.64042723399E-01  0.26979467297E+01  0.51100000000E-03 0. -1.
        -11    1    3    3    0    0 -0.72019571652E+01 -0.70859294447E+01 -0.42429507477E+01  0.10958157437E+02  0.51100000000E-03 0.  1.
         12    1    3    3    0    0  0.71291376837E+01 -0.34911321733E+02  0.94855846179E+01  0.36872771862E+02  0.00000000000E+00 0. -1.
</event>
<event>
 7    1  0.5441610E-013  0.5052887E+02  0.7816164E-02  0.1300439E+00
        -11   -1    0    0    0    0  0.00000000000E+00  0.00000000000E+00  0.45593999997E+02  0.45594000000E+02  0.51100000000E-03 0.  1.
         11   -1    0    0    0    0 -0.00000000000E+00 -0.00000000000E+00 -0.45593999997E+02  0.45594000000E+02  0.51100000000E-03 0. -1.
    9900012    2    1    2    0    0  0.35071508136E+02 -0.14241027065E+02  0.14844102501E+02  0.50528869243E+02  0.30000028552E+02 0.  0.
        -12    1    1    2    0    0 -0.35071508136E+02  0.14241027065E+02 -0.14844102501E+02  0.40659130757E+02  0.00000000000E+00 0.  1.
         11    1    3    3    0    0  0.16537225293E+02 -0.57850568926E+01  0.36512158068E+01  0.17896314726E+02  0.51100000000E-03 0. -1.
        -11    1    3    3    0    0  0.41816007357E+01 -0.13854735312E+02  0.16369871511E+01  0.14564312633E+02  0.51100000000E-03 0.  1.
         12    1    3    3    0    0  0.14352682108E+02  0.53987651396E+01  0.95558995435E+01  0.18068241885E+02  0.00000000000E+00 0. -1.
</event>
<event>
 7    1  0.5441610E-013  0.5052884E+02  0.7816164E-02  0.1300439E+00
        -11   -1    0    0    0    0  0.00000000000E+00  0.00000000000E+00  0.45593999997E+02  0.45594000000E+02  0.51100000000E-03 0.  1.
         11   -1    0    0    0    0 -0.00000000000E+00 -0.00000000000E+00 -0.45593999997E+02  0.45594000000E+02  0.51100000000E-03 0. -1.
    9900012    2    1    2    0    0  0.73476449302E+01 -0.10225987766E+01 -0.39976664235E+02  0.50528840175E+02  0.29999940197E+02 0.  0.
        -12    1    1    2    0    0 -0.73476449302E+01  0.10225987766E+01  0.39976664235E+02  0.40659159825E+02  0.00000000000E+00 0.  1.
         11    1    3    3    0    0  0.10106418945E+02  0.82448245745E+01 -0.17772278257E+02  0.22044743384E+02  0.51100000000E-03 0. -1.
        -11    1    3    3    0    0  0.19621875034E+01  0.87901505144E-01  0.15623422340E+01  0.25097450050E+01  0.51100000000E-03 0.  1.
        -12    1    3    3    0    0 -0.47209615181E+01 -0.93553248563E+01 -0.23766728212E+02  0.25974351787E+02  0.00000000000E+00 0.  1.
</event>
<event>
 7    1  0.5441610E-013  0.5052888E+02  0.7816164E-02  0.1300439E+00
        -11   -1    0    0    0    0  0.00000000000E+00  0.00000000000E+00  0.45593999997E+02  0.45594000000E+02  0.51100000000E-03 0.  1.
         11   -1    0    0    0    0 -0.00000000000E+00 -0.00000000000E+00 -0.45593999997E+02  0.45594000000E+02  0.51100000000E-03 0. -1.
    9900012    2    1    2    0    0 -0.32450678813E+00 -0.21980355801E+02  0.34204137972E+02  0.50528875560E+02  0.30000047752E+02 0.  0.
        -12    1    1    2    0    0  0.32450678813E+00  0.21980355801E+02 -0.34204137972E+02  0.40659124440E+02  0.00000000000E+00 0.  1.
         11    1    3    3    0    0 -0.79546338363E+01  0.21235303725E+01  0.59184039897E+01  0.10139678829E+02  0.51100000000E-03 0. -1.
        -11    1    3    3    0    0 -0.18959161377E+01 -0.14831694702E+02  0.10900441907E+02  0.18503872561E+02  0.51100000000E-03 0.  1.
        -12    1    3    3    0    0  0.95260431859E+01 -0.92721914721E+01  0.17385292075E+02  0.21885324170E+02  0.00000000000E+00 0.  1.
</event>
<event>
 7    1  0.5441610E-013  0.5052886E+02  0.7816164E-02  0.1300439E+00
        -11   -1    0    0    0    0  0.00000000000E+00  0.00000000000E+00  0.45593999997E+02  0.45594000000E+02  0.51100000000E-03 0. -1.
         11   -1    0    0    0    0 -0.00000000000E+00 -0.00000000000E+00 -0.45593999997E+02  0.45594000000E+02  0.51100000000E-03 0.  1.
    9900012    2    1    2    0    0 -0.31810544831E+02  0.25043622385E+02 -0.37512396651E+01  0.50528861007E+02  0.30000003517E+02 0.  0.
        -12    1    1    2    0    0  0.31810544831E+02 -0.25043622385E+02  0.37512396651E+01  0.40659138993E+02  0.00000000000E+00 0.  1.
         11    1    3    3    0    0 -0.95783414095E+01  0.78349120818E+00 -0.74923481454E+00  0.96394935396E+01  0.51100000000E-03 0. -1.
        -11    1    3    3    0    0  0.11939641009E+01 -0.32640604319E-01 -0.68221268429E+01  0.69258956536E+01  0.51100000000E-03 0.  1.
        -12    1    3    3    0    0 -0.23426167523E+02  0.24292771781E+02  0.38201219924E+01  0.33963471814E+02  0.00000000000E+00 0.  1.
</event>
<event>
 7    1  0.5441610E-013  0.5052888E+02  0.7816164E-02  0.1300439E+00
        -11   -1    0    0    0    0  0.00000000000E+00  0.00000000000E+00  0.45593999997E+02  0.45594000000E+02  0.51100000000E-03 0.  1.
         11   -1    0    0    0    0 -0.00000000000E+00 -0.00000000000E+00 -0.45593999997E+02  0.45594000000E+02  0.51100000000E-03 0. -1.
    9900012    2    1    2    0    0 -0.14319367776E+02 -0.10686322742E+02 -0.36522900854E+02  0.50528879571E+02  0.30000059945E+02 0.  0.
        -12    1    1    2    0    0  0.14319367776E+02  0.10686322742E+02  0.36522900854E+02  0.40659120429E+02  0.00000000000E+00 0.  1.
         11    1    3    3    0    0  0.24128465071E+01 -0.18712843074E+01  0.21500248795E+01  0.37344531687E+01  0.51100000000E-03 0. -1.
        -11    1    3    3    0    0 -0.84290270891E+00  0.91630234339E+00  0.18288017685E+01  0.22123768058E+01  0.51100000000E-03 0.  1.
         12    1    3    3    0    0 -0.15889311574E+02 -0.97313407782E+01 -0.40501727502E+02  0.44582049597E+02  0.00000000000E+00 0. -1.
</event>
<event>
 7    1  0.5441610E-013  0.5052886E+02  0.7816164E-02  0.1300439E+00
        -11   -1    0    0    0    0  0.00000000000E+00  0.00000000000E+00  0.45593999997E+02  0.45594000000E+02  0.51100000000E-03 0.  1.
         11   -1    0    0    0    0 -0.00000000000E+00 -0.00000000000E+00 -0.45593999997E+02  0.45594000000E+02  0.51100000000E-03 0. -1.
    9900012    2    1    2    0    0  0.15045827334E+02 -0.36162882195E+02  0.10910300049E+02  0.50528860610E+02  0.30000002310E+02 0.  0.
        -12    1    1    2    0    0 -0.15045827334E+02  0.36162882195E+02 -0.10910300049E+02  0.40659139390E+02  0.00000000000E+00 0.  1.
         11    1    3    3    0    0 -0.41538968425E+01 -0.62545200216E+01 -0.23283571445E+00  0.75118634446E+01  0.51100000000E-03 0. -1.
        -11    1    3    3    0    0  0.11064528562E+02 -0.30248200656E+02  0.12885703001E+02  0.34690326855E+02  0.51100000000E-03 0.  1.
        -12    1    3    3    0    0  0.81351956140E+01  0.33983848312E+00 -0.17425672380E+01  0.83266703100E+01  0.00000000000E+00 0.  1.
</event>
<event>
 7    1  0.6495331E-013  0.5052886E+02  0.7816164E-02  0.1300439E+00
        -11   -1    0    0    0    0  0.00000000000E+00  0.00000000000E+00  0.45593999997E+02  0.45594000000E+02  0.51100000000E-03 0. -1.
         11   -1    0    0    0    0 -0.00000000000E+00 -0.00000000000E+00 -0.45593999997E+02  0.45594000000E+02  0.51100000000E-03 0.  1.
    9900012    2    1    2    0    0 -0.13515193007E+01  0.33503007992E+02  0.22997559108E+02  0.50528857438E+02  0.29999992668E+02 0.  0.
        -12    1    1    2    0    0  0.13515193007E+01 -0.33503007992E+02 -0.22997559108E+02  0.40659142562E+02  0.00000000000E+00 0.  1.
         11    1    3    3    0    0 -0.39261348862E+01  0.13459218192E+02  0.20068196064E+02  0.24480555203E+02  0.51100000000E-03 0. -1.
        -11    1    3    3    0    0 -0.68354117319E+01  0.87606001186E+01  0.25456463728E+00  0.11114664700E+02  0.51100000000E-03 0.  1.
        -12    1    3    3    0    0  0.94100273175E+01  0.11283189681E+02  0.26747984068E+01  0.14933637535E+02  0.00000000000E+00 0.  1.
</event>
<event>
 7    1  0.5441610E-013  0.5052886E+02  0.7816164E-02  0.1300439E+00
        -11   -1    0    0    0    0  0.00000000000E+00  0.00000000000E+00  0.45593999997E+02  0.45594000000E+02  0.51100000000E-03 0.  1.
         11   -1    0    0    0    0 -0.00000000000E+00 -0.00000000000E+00 -0.45593999997E+02  0.45594000000E+02  0.51100000000E-03 0. -1.
    9900012    2    1    2    0    0  0.16832842990E+02 -0.28475085060E+02 -0.23642985713E+02  0.50528857784E+02  0.29999993721E+02 0.  0.
        -12    1    1    2    0    0 -0.16832842990E+02  0.28475085060E+02  0.23642985713E+02  0.40659142216E+02  0.00000000000E+00 0.  1.
         11    1    3    3    0    0  0.10983617237E+01 -0.18861374431E+02 -0.19680418826E+02  0.27281435617E+02  0.51100000000E-03 0. -1.
        -11    1    3    3    0    0  0.12021284882E+01 -0.64658540118E+01  0.24981127746E+01  0.70351225078E+01  0.51100000000E-03 0.  1.
        -12    1    3    3    0    0  0.14532352778E+02 -0.31478566172E+01 -0.64606796618E+01  0.16212299659E+02  0.00000000000E+00 0.  1.
</event>
<event>
 7    1  0.5441610E-013  0.5052886E+02  0.7816164E-02  0.1300439E+00
        -11   -1    0    0    0    0  0.00000000000E+00  0.00000000000E+00  0.45593999997E+02  0.45594000000E+02  0.51100000000E-03 0.  1.
         11   -1    0    0    0    0 -0.00000000000E+00 -0.00000000000E+00 -0.45593999997E+02  0.45594000000E+02  0.51100000000E-03 0. -1.
    9900012    2    1    2    0    0 -0.23726593897E+02 -0.32859542087E+02 -0.32349146532E+01  0.50528862811E+02  0.30000009001E+02 0.  0.
        -12    1    1    2    0    0  0.23726593897E+02  0.32859542087E+02  0.32349146532E+01  0.40659137189E+02  0.00000000000E+00 0.  1.
         11    1    3    3    0    0 -0.13843405694E+02 -0.12520302974E+02  0.32791823878E+01  0.18951277138E+02  0.51100000000E-03 0. -1.
        -11    1    3    3    0    0 -0.15557344550E+02 -0.13660546753E+02 -0.88378978912E+01  0.22511107179E+02  0.51100000000E-03 0.  1.
         12    1    3    3    0    0  0.56741563472E+01 -0.66786923603E+01  0.23238008503E+01  0.90664784943E+01  0.00000000000E+00 0. -1.
</event>
<event>
 7    1  0.5441610E-013  0.5052886E+02  0.7816164E-02  0.1300439E+00
        -11   -1    0    0    0    0  0.00000000000E+00  0.00000000000E+00  0.45593999997E+02  0.45594000000E+02  0.51100000000E-03 0.  1.
         11   -1    0    0    0    0 -0.00000000000E+00 -0.00000000000E+00 -0.45593999997E+02  0.45594000000E+02  0.51100000000E-03 0. -1.
    9900012    2    1    2    0    0  0.29547401619E+02  0.13869793957E+02 -0.24243463054E+02  0.50528860465E+02  0.30000001870E+02 0.  0.
        -12    1    1    2    0    0 -0.29547401619E+02 -0.13869793957E+02  0.24243463054E+02  0.40659139535E+02  0.00000000000E+00 0.  1.
         11    1    3    3    0    0  0.11530817639E+02  0.85709391622E+01 -0.42434001079E+01  0.14980894442E+02  0.51100000000E-03 0. -1.
        -11    1    3    3    0    0 -0.26463678062E+01 -0.24688009991E+01  0.22044530312E+01  0.42376708658E+01  0.51100000000E-03 0.  1.
         12    1    3    3    0    0  0.20662951786E+02  0.77676557941E+01 -0.22204515977E+02  0.31310295157E+02  0.00000000000E+00 0. -1.
</event>
<event>
 7    1  0.5441610E-013  0.5052889E+02  0.7816164E-02  0.1300439E+00
        -11   -1    0    0    0    0  0.00000000000E+00  0.00000000000E+00  0.45593999997E+02  0.45594000000E+02  0.51100000000E-03 0.  1.
         11   -1    0    0    0    0 -0.00000000000E+00 -0.00000000000E+00 -0.45593999997E+02  0.45594000000E+02  0.51100000000E-03 0. -1.
    9900012    2    1    2    0    0 -0.28769700760E+02  0.17319631354E+02 -0.22923736381E+02  0.50528892758E+02  0.30000100027E+02 0.  0.
        -12    1    1    2    0    0  0.28769700760E+02 -0.17319631354E+02  0.22923736381E+02  0.40659107242E+02  0.00000000000E+00 0.  1.
         11    1    3    3    0    0 -0.23846109598E+02  0.25428486171E+01 -0.79296320615E+01  0.25258307286E+02  0.51100000000E-03 0. -1.
        -11    1    3    3    0    0 -0.14246106043E+01 -0.15083670767E+01 -0.59830481885E+01  0.63325786611E+01  0.51100000000E-03 0.  1.
        -12    1    3    3    0    0 -0.34989805578E+01  0.16285149813E+02 -0.90110561307E+01  0.18938006811E+02  0.00000000000E+00 0.  1.
</event>
<event>
 7    1  0.5441610E-013  0.5052881E+02  0.7816164E-02  0.1300439E+00
        -11   -1    0    0    0    0  0.00000000000E+00  0.00000000000E+00  0.45593999997E+02  0.45594000000E+02  0.51100000000E-03 0. -1.
         11   -1    0    0    0    0 -0.00000000000E+00 -0.00000000000E+00 -0.45593999997E+02  0.45594000000E+02  0.51100000000E-03 0.  1.
    9900012    2    1    2    0    0 -0.15210551892E+02  0.37267093662E+02  0.57421434802E+01  0.50528814437E+02  0.29999861962E+02 0.  0.
        -12    1    1    2    0    0  0.15210551892E+02 -0.37267093662E+02 -0.57421434802E+01  0.40659185563E+02  0.00000000000E+00 0.  1.
         11    1    3    3    0    0  0.41809061651E+01  0.37355553370E+01  0.48239147410E+01  0.73962493013E+01  0.51100000000E-03 0. -1.
        -11    1    3    3    0    0 -0.16600757579E+01  0.16126625000E+02 -0.60882987668E+01  0.17317368956E+02  0.51100000000E-03 0.  1.
        -12    1    3    3    0    0 -0.17731382300E+02  0.17404913325E+02  0.70065275060E+01  0.25815196180E+02  0.00000000000E+00 0.  1.
</event>
<event>
 7    1  0.5441610E-013  0.5052885E+02  0.7816164E-02  0.1300439E+00
        -11   -1    0    0    0    0  0.00000000000E+00  0.00000000000E+00  0.45593999997E+02  0.45594000000E+02  0.51100000000E-03 0. -1.
         11   -1    0    0    0    0 -0.00000000000E+00 -0.00000000000E+00 -0.45593999997E+02  0.45594000000E+02  0.51100000000E-03 0.  1.
    9900012    2    1    2    0    0  0.65803031730E+01  0.47439752841E+01  0.39841698179E+02  0.50528848446E+02  0.29999965336E+02 0.  0.
        -12    1    1    2    0    0 -0.65803031730E+01 -0.47439752841E+01 -0.39841698179E+02  0.40659151554E+02  0.00000000000E+00 0.  1.
         11    1    3    3    0    0  0.92100143746E+01  0.28105947560E+01  0.15705393094E+02  0.18422355445E+02  0.51100000000E-03 0. -1.
        -11    1    3    3    0    0 -0.60445083670E+01 -0.10214857928E+01  0.26366699563E+02  0.27069953098E+02  0.51100000000E-03 0.  1.
         12    1    3    3    0    0  0.34147971654E+01  0.29548663210E+01 -0.22303944784E+01  0.50365399020E+01  0.00000000000E+00 0. -1.
</event>
<event>
 7    1  0.5441610E-013  0.5052887E+02  0.7816164E-02  0.1300439E+00
        -11   -1    0    0    0    0  0.00000000000E+00  0.00000000000E+00  0.45593999997E+02  0.45594000000E+02  0.51100000000E-03 0.  1.
         11   -1    0    0    0    0 -0.00000000000E+00 -0.00000000000E+00 -0.45593999997E+02  0.45594000000E+02  0.51100000000E-03 0. -1.
    9900012    2    1    2    0    0  0.70781963507E+01  0.30258701761E+02 -0.26219750717E+02  0.50528865436E+02  0.30000016979E+02 0.  0.
        -12    1    1    2    0    0 -0.70781963507E+01 -0.30258701761E+02  0.26219750717E+02  0.40659134564E+02  0.00000000000E+00 0.  1.
         11    1    3    3    0    0  0.10624098567E+02  0.38492562250E+01 -0.64815569743E+01  0.13026850154E+02  0.51100000000E-03 0. -1.
        -11    1    3    3    0    0 -0.35636788486E+01  0.32309868572E+01  0.24648329887E+01  0.54050425466E+01  0.51100000000E-03 0.  1.
         12    1    3    3    0    0  0.17776631893E-01  0.23178458679E+02 -0.22203026732E+02  0.32096972736E+02  0.00000000000E+00 0. -1.
</event>
<event>
 7    1  0.6710443E-013  0.5052886E+02  0.7816164E-02  0.1300439E+00
        -11   -1    0    0    0    0  0.00000000000E+00  0.00000000000E+00  0.45593999997E+02  0.45594000000E+02  0.51100000000E-03 0. -1.
         11   -1    0    0    0    0 -0.00000000000E+00 -0.00000000000E+00 -0.45593999997E+02  0.45594000000E+02  0.51100000000E-03 0.  1.
    9900012    2    1    2    0    0  0.11012277479E+02 -0.38302502621E+02  0.80506918097E+01  0.50528860795E+02  0.30000002872E+02 0.  0.
        -12    1    1    2    0    0 -0.11012277479E+02  0.38302502621E+02 -0.80506918097E+01  0.40659139205E+02  0.00000000000E+00 0.  1.
         11    1    3    3    0    0 -0.89396106148E-01  0.16920700156E+01  0.47934457760E+01  0.50841140103E+01  0.51100000000E-03 0. -1.
        -11    1    3    3    0    0  0.48759551647E+01 -0.55949822823E+01 -0.56990748154E+01  0.93572549137E+01  0.51100000000E-03 0.  1.
         12    1    3    3    0    0  0.62257184209E+01 -0.34399590354E+02  0.89563208490E+01  0.36087491871E+02  0.00000000000E+00 0. -1.
</event>
<event>
 7    1  0.5441610E-013  0.5052887E+02  0.7816164E-02  0.1300439E+00
        -11   -1    0    0    0    0  0.00000000000E+00  0.00000000000E+00  0.45593999997E+02  0.45594000000E+02  0.51100000000E-03 0.  1.
         11   -1    0    0    0    0 -0.00000000000E+00 -0.00000000000E+00 -0.45593999997E+02  0.45594000000E+02  0.51100000000E-03 0. -1.
    9900012    2    1    2    0    0  0.16990084626E+02 -0.63301881107E+01 -0.36392728526E+02  0.50528868840E+02  0.30000027327E+02 0.  0.
        -12    1    1    2    0    0 -0.16990084626E+02  0.63301881107E+01  0.36392728526E+02  0.40659131160E+02  0.00000000000E+00 0.  1.
         11    1    3    3    0    0  0.68377284436E+00 -0.66771994830E+01 -0.57680940703E+01  0.88500535424E+01  0.51100000000E-03 0. -1.
        -11    1    3    3    0    0  0.15754859659E+01  0.37747272721E+01  0.28234850180E+01  0.49701901287E+01  0.51100000000E-03 0.  1.
        -12    1    3    3    0    0  0.14730825815E+02 -0.34277158998E+01 -0.33448119474E+02  0.36708625169E+02  0.00000000000E+00 0.  1.
</event>
<event>
 7    1  0.5441610E-013  0.5052884E+02  0.7816164E-02  0.1300439E+00
        -11   -1    0    0    0    0  0.00000000000E+00  0.00000000000E+00  0.45593999997E+02  0.45594000000E+02  0.51100000000E-03 0.  1.
         11   -1    0    0    0    0 -0.00000000000E+00 -0.00000000000E+00 -0.45593999997E+02  0.45594000000E+02  0.51100000000E-03 0. -1.
    9900012    2    1    2    0    0 -0.35837681033E+02 -0.18082309651E+02  0.64697772769E+01  0.50528839628E+02  0.29999938534E+02 0.  0.
        -12    1    1    2    0    0  0.35837681033E+02  0.18082309651E+02 -0.64697772769E+01  0.40659160372E+02  0.00000000000E+00 0.  1.
         11    1    3    3    0    0  0.53067761954E+01 -0.37712361384E+01  0.88851972897E+00  0.65706592644E+01  0.51100000000E-03 0.  1.
        -11    1    3    3    0    0 -0.16157976522E+02 -0.64938844608E+01  0.26304727664E+01  0.17611647507E+02  0.51100000000E-03 0. -1.
        -12    1    3    3    0    0 -0.24986480706E+02 -0.78171890514E+01  0.29507847816E+01  0.26346532857E+02  0.00000000000E+00 0.  1.
</event>
<event>
 7    1  0.5441610E-013  0.5052887E+02  0.7816164E-02  0.1300439E+00
        -11   -1    0    0    0    0  0.00000000000E+00  0.00000000000E+00  0.45593999997E+02  0.45594000000E+02  0.51100000000E-03 0.  1.
         11   -1    0    0    0    0 -0.00000000000E+00 -0.00000000000E+00 -0.45593999997E+02  0.45594000000E+02  0.51100000000E-03 0. -1.
    9900012    2    1    2    0    0  0.30353231648E+01  0.31720990779E+02  0.25253328396E+02  0.50528867720E+02  0.30000023921E+02 0.  0.
        -12    1    1    2    0    0 -0.30353231648E+01 -0.31720990779E+02 -0.25253328396E+02  0.40659132280E+02  0.00000000000E+00 0.  1.
         11    1    3    3    0    0 -0.33797227357E-01  0.61756289001E+01 -0.13060260046E+01  0.63123085120E+01  0.51100000000E-03 0. -1.
        -11    1    3    3    0    0 -0.82362699262E+01  0.18965701588E+02  0.22414343893E+02  0.30494865001E+02  0.51100000000E-03 0.  1.
         12    1    3    3    0    0  0.11305390318E+02  0.65796602907E+01  0.41450105078E+01  0.13721694207E+02  0.00000000000E+00 0. -1.
</event>
<event>
 7    1  0.5441610E-013  0.5052886E+02  0.7816164E-02  0.1300439E+00
        -11   -1    0    0    0    0  0.00000000000E+00  0.00000000000E+00  0.45593999997E+02  0.45594000000E+02  0.51100000000E-03 0. -1.
         11   -1    0    0    0    0 -0.00000000000E+00 -0.00000000000E+00 -0.45593999997E+02  0.45594000000E+02  0.51100000000E-03 0.  1.
    9900012    2    1    2    0    0  0.11540270532E+02  0.32297985188E+02  0.21836392504E+02  0.50528859223E+02  0.29999998094E+02 0.  0.
        -12    1    1    2    0    0 -0.11540270532E+02 -0.32297985188E+02 -0.21836392504E+02  0.40659140777E+02  0.00000000000E+00 0.  1.
         11    1    3    3    0    0  0.28650103727E+01  0.15020803673E+02  0.13609856098E+02  0.20470979720E+02  0.51100000000E-03 0. -1.
        -11    1    3    3    0    0  0.15745221380E+02  0.13946956171E+02  0.68590318907E+01  0.22124102275E+02  0.51100000000E-03 0.  1.
        -12    1    3    3    0    0 -0.70699612207E+01  0.33302253436E+01  0.13675045159E+01  0.79337772279E+01  0.00000000000E+00 0.  1.
</event>
<event>
 7    1  0.5441610E-013  0.5052886E+02  0.7816164E-02  0.1300439E+00
        -11   -1    0    0    0    0  0.00000000000E+00  0.00000000000E+00  0.45593999997E+02  0.45594000000E+02  0.51100000000E-03 0.  1.
         11   -1    0    0    0    0 -0.00000000000E+00 -0.00000000000E+00 -0.45593999997E+02  0.45594000000E+02  0.51100000000E-03 0. -1.
    9900012    2    1    2    0    0 -0.11446425278E+02 -0.23165041356E+02 -0.31393083113E+02  0.50528862527E+02  0.30000008138E+02 0.  0.
        -12    1    1    2    0    0  0.11446425278E+02  0.23165041356E+02  0.31393083113E+02  0.40659137473E+02  0.00000000000E+00 0.  1.
         11    1    3    3    0    0  0.64544252491E+00 -0.20349750509E+01  0.20310384113E+01  0.29466653695E+01  0.51100000000E-03 0. -1.
        -11    1    3    3    0    0 -0.79260420282E+01  0.36584746943E+01 -0.85868771590E+01  0.12245041402E+02  0.51100000000E-03 0.  1.
         12    1    3    3    0    0 -0.41658257743E+01 -0.24788540999E+02 -0.24837244366E+02  0.35337155756E+02  0.00000000000E+00 0. -1.
</event>
<event>
 7    1  0.5441610E-013  0.5052885E+02  0.7816164E-02  0.1300439E+00
        -11   -1    0    0    0    0  0.00000000000E+00  0.00000000000E+00  0.45593999997E+02  0.45594000000E+02  0.51100000000E-03 0.  1.
         11   -1    0    0    0    0 -0.00000000000E+00 -0.00000000000E+00 -0.45593999997E+02  0.45594000000E+02  0.51100000000E-03 0. -1.
    9900012    2    1    2    0    0 -0.31474377589E+02 -0.21366399256E+02 -0.14352952402E+02  0.50528847224E+02  0.29999961623E+02 0.  0.
        -12    1    1    2    0    0  0.31474377589E+02  0.21366399256E+02  0.14352952402E+02  0.40659152776E+02  0.00000000000E+00 0.  1.
         11    1    3    3    0    0 -0.34068529108E+02 -0.11399574767E+02 -0.86557443696E+01  0.36953171600E+02  0.51100000000E-03 0. -1.
        -11    1    3    3    0    0 -0.11737441117E+01 -0.35977363095E+01 -0.48134064719E+01  0.61229293575E+01  0.51100000000E-03 0.  1.
        -12    1    3    3    0    0  0.37678956303E+01 -0.63690881799E+01 -0.88380156046E+00  0.74527462671E+01  0.00000000000E+00 0.  1.
</event>
<event>
 7    1  0.5441610E-013  0.5052886E+02  0.7816164E-02  0.1300439E+00
        -11   -1    0    0    0    0  0.00000000000E+00  0.00000000000E+00  0.45593999997E+02  0.45594000000E+02  0.51100000000E-03 0.  1.
         11   -1    0    0    0    0 -0.00000000000E+00 -0.00000000000E+00 -0.45593999997E+02  0.45594000000E+02  0.51100000000E-03 0. -1.
    9900012    2    1    2    0    0 -0.23424873930E+02  0.21169888765E+02 -0.25617894603E+02  0.50528862862E+02  0.30000009154E+02 0.  0.
        -12    1    1    2    0    0  0.23424873930E+02 -0.21169888765E+02  0.25617894603E+02  0.40659137138E+02  0.00000000000E+00 0.  1.
         11    1    3    3    0    0 -0.15605217215E+02  0.16209804850E+02 -0.12136018932E+02  0.25564888683E+02  0.51100000000E-03 0. -1.
        -11    1    3    3    0    0  0.42511720491E+01  0.47083032530E+01  0.65019577282E+00  0.63767811721E+01  0.51100000000E-03 0.  1.
         12    1    3    3    0    0 -0.12070828764E+02  0.25178066160E+00 -0.14132071444E+02  0.18587193006E+02  0.00000000000E+00 0. -1.
</event>
<event>
 7    1  0.5441610E-013  0.5052885E+02  0.7816164E-02  0.1300439E+00
        -11   -1    0    0    0    0  0.00000000000E+00  0.00000000000E+00  0.45593999997E+02  0.45594000000E+02  0.51100000000E-03 0. -1.
         11   -1    0    0    0    0 -0.00000000000E+00 -0.00000000000E+00 -0.45593999997E+02  0.45594000000E+02  0.51100000000E-03 0.  1.
    9900012    2    1    2    0    0  0.44102227122E+01 -0.35120741879E+02  0.20006251309E+02  0.50528847698E+02  0.29999963063E+02 0.  0.
        -12    1    1    2    0    0 -0.44102227122E+01  0.35120741879E+02 -0.20006251309E+02  0.40659152302E+02  0.00000000000E+00 0.  1.
         11    1    3    3    0    0 -0.16658975102E+01 -0.52742312540E+01  0.31103561344E+01  0.63456319921E+01  0.51100000000E-03 0. -1.
        -11    1    3    3    0    0  0.15060386529E+02 -0.26851829125E+02  0.96660428808E+01  0.32268690011E+02  0.51100000000E-03 0.  1.
        -12    1    3    3    0    0 -0.89842663071E+01 -0.29946814996E+01  0.72298522934E+01  0.11914525695E+02  0.00000000000E+00 0.  1.
</event>
<event>
 7    1  0.5441610E-013  0.5052887E+02  0.7816164E-02  0.1300439E+00
        -11   -1    0    0    0    0  0.00000000000E+00  0.00000000000E+00  0.45593999997E+02  0.45594000000E+02  0.51100000000E-03 0.  1.
         11   -1    0    0    0    0 -0.00000000000E+00 -0.00000000000E+00 -0.45593999997E+02  0.45594000000E+02  0.51100000000E-03 0. -1.
    9900012    2    1    2    0    0  0.11633387298E+02 -0.17893949787E+02 -0.34606879146E+02  0.50528865439E+02  0.30000016989E+02 0.  0.
        -12    1    1    2    0    0 -0.11633387298E+02  0.17893949787E+02  0.34606879146E+02  0.40659134561E+02  0.00000000000E+00 0.  1.
         11    1    3    3    0    0 -0.63068918007E+01 -0.14179549250E+02 -0.16441268695E+02  0.22608666871E+02  0.51100000000E-03 0. -1.
        -11    1    3    3    0    0  0.73380730105E+01  0.37004219600E+01 -0.79659893515E+01  0.11445410644E+02  0.51100000000E-03 0.  1.
        -12    1    3    3    0    0  0.10602206088E+02 -0.74148224970E+01 -0.10199621100E+02  0.16474787925E+02  0.00000000000E+00 0.  1.
</event>
<event>
 7    1  0.5441610E-013  0.5052886E+02  0.7816164E-02  0.1300439E+00
        -11   -1    0    0    0    0  0.00000000000E+00  0.00000000000E+00  0.45593999997E+02  0.45594000000E+02  0.51100000000E-03 0.  1.
         11   -1    0    0    0    0 -0.00000000000E+00 -0.00000000000E+00 -0.45593999997E+02  0.45594000000E+02  0.51100000000E-03 0. -1.
    9900012    2    1    2    0    0  0.32451546099E+02  0.12718179257E+02 -0.20935875140E+02  0.50528858399E+02  0.29999995591E+02 0.  0.
        -12    1    1    2    0    0 -0.32451546099E+02 -0.12718179257E+02  0.20935875140E+02  0.40659141601E+02  0.00000000000E+00 0.  1.
         11    1    3    3    0    0  0.18286353487E+02  0.63414723482E+01 -0.16129290516E+02  0.25194424149E+02  0.51100000000E-03 0. -1.
        -11    1    3    3    0    0  0.13918053854E+02  0.12359816119E+02 -0.19996632936E+01  0.18721002408E+02  0.51100000000E-03 0.  1.
        -12    1    3    3    0    0  0.24713875775E+00 -0.59831092104E+01 -0.28069213304E+01  0.66134318432E+01  0.00000000000E+00 0.  1.
</event>
<event>
 7    1  0.5441610E-013  0.5052886E+02  0.7816164E-02  0.1300439E+00
        -11   -1    0    0    0    0  0.00000000000E+00  0.00000000000E+00  0.45593999997E+02  0.45594000000E+02  0.51100000000E-03 0. -1.
         11   -1    0    0    0    0 -0.00000000000E+00 -0.00000000000E+00 -0.45593999997E+02  0.45594000000E+02  0.51100000000E-03 0.  1.
    9900012    2    1    2    0    0  0.35501550508E+02 -0.51755271844E+01  0.19131634274E+02  0.50528860804E+02  0.30000002900E+02 0.  0.
        -12    1    1    2    0    0 -0.35501550508E+02  0.51755271844E+01 -0.19131634274E+02  0.40659139196E+02  0.00000000000E+00 0.  1.
         11    1    3    3    0    0  0.16426636235E+02 -0.19297208201E+01  0.96347490887E+01  0.19141227513E+02  0.51100000000E-03 0. -1.
        -11    1    3    3    0    0  0.92857033734E+01 -0.11937979400E+02 -0.15163474676E+00  0.15124901079E+02  0.51100000000E-03 0.  1.
        -12    1    3    3    0    0  0.97892109001E+01  0.86921730353E+01  0.96485199325E+01  0.16262732212E+02  0.00000000000E+00 0.  1.
</event>
<event>
 7    1  0.5441610E-013  0.5052886E+02  0.7816164E-02  0.1300439E+00
        -11   -1    0    0    0    0  0.00000000000E+00  0.00000000000E+00  0.45593999997E+02  0.45594000000E+02  0.51100000000E-03 0. -1.
         11   -1    0    0    0    0 -0.00000000000E+00 -0.00000000000E+00 -0.45593999997E+02  0.45594000000E+02  0.51100000000E-03 0.  1.
    9900012    2    1    2    0    0 -0.57366400083E+01  0.35299312814E+02  0.19344639234E+02  0.50528860919E+02  0.30000003249E+02 0.  0.
        -12    1    1    2    0    0  0.57366400083E+01 -0.35299312814E+02 -0.19344639234E+02  0.40659139081E+02  0.00000000000E+00 0.  1.
         11    1    3    3    0    0 -0.34527612701E+00  0.16514710478E+02  0.18620387391E+02  0.24891237507E+02  0.51100000000E-03 0. -1.
        -11    1    3    3    0    0  0.59801829129E+01  0.67356759533E+01  0.10381080274E+01  0.90669502457E+01  0.51100000000E-03 0.  1.
         12    1    3    3    0    0 -0.11371546794E+02  0.12048926383E+02 -0.31385618492E+00  0.16570673166E+02  0.00000000000E+00 0. -1.
</event>
<event>
 7    1  0.5441610E-013  0.5052886E+02  0.7816164E-02  0.1300439E+00
        -11   -1    0    0    0    0  0.00000000000E+00  0.00000000000E+00  0.45593999997E+02  0.45594000000E+02  0.51100000000E-03 0.  1.
         11   -1    0    0    0    0 -0.00000000000E+00 -0.00000000000E+00 -0.45593999997E+02  0.45594000000E+02  0.51100000000E-03 0. -1.
    9900012    2    1    2    0    0 -0.11416860246E+02 -0.25709093246E+02 -0.29357515075E+02  0.50528857550E+02  0.29999993010E+02 0.  0.
        -12    1    1    2    0    0  0.11416860246E+02  0.25709093246E+02  0.29357515075E+02  0.40659142450E+02  0.00000000000E+00 0.  1.
         11    1    3    3    0    0 -0.75425547310E+01 -0.14149367746E+02 -0.22947638656E+02  0.27994443370E+02  0.51100000000E-03 0. -1.
        -11    1    3    3    0    0  0.49430950266E+01 -0.40170013549E+01  0.35065292744E+01  0.72709171458E+01  0.51100000000E-03 0.  1.
         12    1    3    3    0    0 -0.88174005415E+01 -0.75427241446E+01 -0.99164056936E+01  0.15263497034E+02  0.00000000000E+00 0. -1.
</event>
<event>
 7    1  0.5441610E-013  0.5052886E+02  0.7816164E-02  0.1300439E+00
        -11   -1    0    0    0    0  0.00000000000E+00  0.00000000000E+00  0.45593999997E+02  0.45594000000E+02  0.51100000000E-03 0.  1.
         11   -1    0    0    0    0 -0.00000000000E+00 -0.00000000000E+00 -0.45593999997E+02  0.45594000000E+02  0.51100000000E-03 0. -1.
    9900012    2    1    2    0    0 -0.80747602296E+01 -0.20555547260E+02 -0.34138443091E+02  0.50528861143E+02  0.30000003930E+02 0.  0.
        -12    1    1    2    0    0  0.80747602296E+01  0.20555547260E+02  0.34138443091E+02  0.40659138857E+02  0.00000000000E+00 0.  1.
         11    1    3    3    0    0 -0.78855331542E+01 -0.11436239209E+02 -0.22501678912E+02  0.26444181865E+02  0.51100000000E-03 0. -1.
        -11    1    3    3    0    0 -0.68740591613E+01 -0.34102760625E+00  0.13811904538E+01  0.70197347892E+01  0.51100000000E-03 0.  1.
         12    1    3    3    0    0  0.66848320859E+01 -0.87782804444E+01 -0.13017954633E+02  0.17064944488E+02  0.00000000000E+00 0. -1.
</event>
<event>
 7    1  0.5441610E-013  0.5052886E+02  0.7816164E-02  0.1300439E+00
        -11   -1    0    0    0    0  0.00000000000E+00  0.00000000000E+00  0.45593999997E+02  0.45594000000E+02  0.51100000000E-03 0.  1.
         11   -1    0    0    0    0 -0.00000000000E+00 -0.00000000000E+00 -0.45593999997E+02  0.45594000000E+02  0.51100000000E-03 0. -1.
    9900012    2    1    2    0    0  0.33022078595E+02 -0.75926798291E+01 -0.22473520415E+02  0.50528861032E+02  0.30000003594E+02 0.  0.
        -12    1    1    2    0    0 -0.33022078595E+02  0.75926798291E+01  0.22473520415E+02  0.40659138968E+02  0.00000000000E+00 0.  1.
         11    1    3    3    0    0 -0.17256803371E+00 -0.18387086515E+01  0.29210060528E+01  0.34558509593E+01  0.51100000000E-03 0.  1.
        -11    1    3    3    0    0  0.15256180023E+02 -0.13218176122E+02 -0.12186076830E+02  0.23579051670E+02  0.51100000000E-03 0. -1.
         12    1    3    3    0    0  0.17938466606E+02  0.74642049441E+01 -0.13208449638E+02  0.23493958403E+02  0.00000000000E+00 0. -1.
</event>
<event>
 7    1  0.5441610E-013  0.5052882E+02  0.7816164E-02  0.1300439E+00
        -11   -1    0    0    0    0  0.00000000000E+00  0.00000000000E+00  0.45593999997E+02  0.45594000000E+02  0.51100000000E-03 0.  1.
         11   -1    0    0    0    0 -0.00000000000E+00 -0.00000000000E+00 -0.45593999997E+02  0.45594000000E+02  0.51100000000E-03 0. -1.
    9900012    2    1    2    0    0 -0.32388293581E+02  0.52004696434E+01 -0.24023379902E+02  0.50528816197E+02  0.29999867313E+02 0.  0.
        -12    1    1    2    0    0  0.32388293581E+02 -0.52004696434E+01  0.24023379902E+02  0.40659183803E+02  0.00000000000E+00 0.  1.
         11    1    3    3    0    0 -0.15780033275E+02  0.35152024240E+01 -0.18549826115E+02  0.24606140441E+02  0.51100000000E-03 0. -1.
        -11    1    3    3    0    0 -0.24749841165E+00  0.52257016007E+01 -0.74109739196E+01  0.90714798892E+01  0.51100000000E-03 0.  1.
         12    1    3    3    0    0 -0.16360761894E+02 -0.35404343812E+01  0.19374201334E+01  0.16851195867E+02  0.00000000000E+00 0. -1.
</event>
<event>
 7    1  0.5441610E-013  0.5052886E+02  0.7816164E-02  0.1300439E+00
        -11   -1    0    0    0    0  0.00000000000E+00  0.00000000000E+00  0.45593999997E+02  0.45594000000E+02  0.51100000000E-03 0.  1.
         11   -1    0    0    0    0 -0.00000000000E+00 -0.00000000000E+00 -0.45593999997E+02  0.45594000000E+02  0.51100000000E-03 0. -1.
    9900012    2    1    2    0    0 -0.11972998423E+02  0.34927442617E+02 -0.17026064400E+02  0.50528858249E+02  0.29999995133E+02 0.  0.
        -12    1    1    2    0    0  0.11972998423E+02 -0.34927442617E+02  0.17026064400E+02  0.40659141751E+02  0.00000000000E+00 0.  1.
         11    1    3    3    0    0 -0.11542587152E+02  0.15687238703E+02 -0.24957898390E+01  0.19635420633E+02  0.51100000000E-03 0. -1.
        -11    1    3    3    0    0 -0.14887538606E+01  0.23002332936E+02 -0.10670094544E+02  0.25400287920E+02  0.51100000000E-03 0.  1.
         12    1    3    3    0    0  0.10583425899E+01 -0.37621290218E+01 -0.38601800173E+01  0.54931496957E+01  0.00000000000E+00 0. -1.
</event>
<event>
 7    1  0.5441610E-013  0.5052885E+02  0.7816164E-02  0.1300439E+00
        -11   -1    0    0    0    0  0.00000000000E+00  0.00000000000E+00  0.45593999997E+02  0.45594000000E+02  0.51100000000E-03 0.  1.
         11   -1    0    0    0    0 -0.00000000000E+00 -0.00000000000E+00 -0.45593999997E+02  0.45594000000E+02  0.51100000000E-03 0. -1.
    9900012    2    1    2    0    0  0.38452281568E+02 -0.96953324809E+01 -0.89771241847E+01  0.50528853571E+02  0.29999980915E+02 0.  0.
        -12    1    1    2    0    0 -0.38452281568E+02  0.96953324809E+01  0.89771241847E+01  0.40659146429E+02  0.00000000000E+00 0.  1.
         11    1    3    3    0    0  0.19219177076E+02  0.66616159282E+01  0.17500974065E+01  0.20416090112E+02  0.51100000000E-03 0.  1.
        -11    1    3    3    0    0  0.11771505889E+02 -0.20112334162E+01 -0.51854884308E+01  0.13019320307E+02  0.51100000000E-03 0. -1.
        -12    1    3    3    0    0  0.74615986029E+01 -0.14345714993E+02 -0.55417331604E+01  0.17093443152E+02  0.00000000000E+00 0.  1.
</event>
<event>
 7    1  0.5441610E-013  0.5052886E+02  0.7816164E-02  0.1300439E+00
        -11   -1    0    0    0    0  0.00000000000E+00  0.00000000000E+00  0.45593999997E+02  0.45594000000E+02  0.51100000000E-03 0.  1.
         11   -1    0    0    0    0 -0.00000000000E+00 -0.00000000000E+00 -0.45593999997E+02  0.45594000000E+02  0.51100000000E-03 0. -1.
    9900012    2    1    2    0    0  0.39747414785E+02  0.42974852961E+01 -0.74054397804E+01  0.50528857113E+02  0.29999991681E+02 0.  0.
        -12    1    1    2    0    0 -0.39747414785E+02 -0.42974852961E+01  0.74054397804E+01  0.40659142887E+02  0.00000000000E+00 0.  1.
         11    1    3    3    0    0  0.12722816675E+02  0.19202649878E+01 -0.65164064212E+01  0.14422934330E+02  0.51100000000E-03 0. -1.
        -11    1    3    3    0    0  0.36870417756E+01 -0.64945372669E+01 -0.71786817776E+01  0.10358897803E+02  0.51100000000E-03 0.  1.
        -12    1    3    3    0    0  0.23337556334E+02  0.88717575751E+01  0.62896484184E+01  0.25747024981E+02  0.00000000000E+00 0.  1.
</event>
<event>
 7    1  0.5441610E-013  0.5052886E+02  0.7816164E-02  0.1300439E+00
        -11   -1    0    0    0    0  0.00000000000E+00  0.00000000000E+00  0.45593999997E+02  0.45594000000E+02  0.51100000000E-03 0.  1.
         11   -1    0    0    0    0 -0.00000000000E+00 -0.00000000000E+00 -0.45593999997E+02  0.45594000000E+02  0.51100000000E-03 0. -1.
    9900012    2    1    2    0    0 -0.39216282249E+02 -0.87674138003E+01 -0.61952664179E+01  0.50528860017E+02  0.30000000508E+02 0.  0.
        -12    1    1    2    0    0  0.39216282249E+02  0.87674138003E+01  0.61952664179E+01  0.40659139983E+02  0.00000000000E+00 0.  1.
         11    1    3    3    0    0 -0.28046094268E+02 -0.97600667176E+01 -0.12374741208E+02  0.32171051059E+02  0.51100000000E-03 0. -1.
        -11    1    3    3    0    0 -0.12960866583E+02 -0.22815356687E+01  0.31022486957E+01  0.13520851114E+02  0.51100000000E-03 0.  1.
         12    1    3    3    0    0  0.17906786023E+01  0.32741885861E+01  0.30772260945E+01  0.48369578446E+01  0.00000000000E+00 0. -1.
</event>
<event>
 7    1  0.5441610E-013  0.5052886E+02  0.7816164E-02  0.1300439E+00
        -11   -1    0    0    0    0  0.00000000000E+00  0.00000000000E+00  0.45593999997E+02  0.45594000000E+02  0.51100000000E-03 0. -1.
         11   -1    0    0    0    0 -0.00000000000E+00 -0.00000000000E+00 -0.45593999997E+02  0.45594000000E+02  0.51100000000E-03 0.  1.
    9900012    2    1    2    0    0 -0.15439938765E+02  0.32564118758E+02  0.18824249523E+02  0.50528856998E+02  0.29999991332E+02 0.  0.
        -12    1    1    2    0    0  0.15439938765E+02 -0.32564118758E+02 -0.18824249523E+02  0.40659143002E+02  0.00000000000E+00 0.  1.
         11    1    3    3    0    0 -0.95896271250E+01  0.11031903778E+02  0.12745854068E+02  0.19393830090E+02  0.51100000000E-03 0. -1.
        -11    1    3    3    0    0  0.20958283897E+01  0.15935420271E+02  0.11724665665E+02  0.19894670167E+02  0.51100000000E-03 0.  1.
        -12    1    3    3    0    0 -0.79461400297E+01  0.55967947090E+01 -0.56462702099E+01  0.11240356741E+02  0.00000000000E+00 0.  1.
</event>
<event>
 7    1  0.5441610E-013  0.5052886E+02  0.7816164E-02  0.1300439E+00
        -11   -1    0    0    0    0  0.00000000000E+00  0.00000000000E+00  0.45593999997E+02  0.45594000000E+02  0.51100000000E-03 0.  1.
         11   -1    0    0    0    0 -0.00000000000E+00 -0.00000000000E+00 -0.45593999997E+02  0.45594000000E+02  0.51100000000E-03 0. -1.
    9900012    2    1    2    0    0 -0.27304301894E+02 -0.25373324373E+02 -0.16243005119E+02  0.50528859490E+02  0.29999998906E+02 0.  0.
        -12    1    1    2    0    0  0.27304301894E+02  0.25373324373E+02  0.16243005119E+02  0.40659140510E+02  0.00000000000E+00 0.  1.
         11    1    3    3    0    0 -0.21746682975E+02 -0.17962746952E+02 -0.44036752385E+01  0.28547694379E+02  0.51100000000E-03 0. -1.
        -11    1    3    3    0    0  0.58787606099E+00 -0.68292259914E+01  0.17337181728E+01  0.70703397986E+01  0.51100000000E-03 0.  1.
         12    1    3    3    0    0 -0.61454949807E+01 -0.58135142977E+00 -0.13573048054E+02  0.14910825313E+02  0.00000000000E+00 0. -1.
</event>
<event>
 7    1  0.5441610E-013  0.5052886E+02  0.7816164E-02  0.1300439E+00
        -11   -1    0    0    0    0  0.00000000000E+00  0.00000000000E+00  0.45593999997E+02  0.45594000000E+02  0.51100000000E-03 0.  1.
         11   -1    0    0    0    0 -0.00000000000E+00 -0.00000000000E+00 -0.45593999997E+02  0.45594000000E+02  0.51100000000E-03 0. -1.
    9900012    2    1    2    0    0  0.21138425134E+02  0.46394428452E+01 -0.34421045930E+02  0.50528857732E+02  0.29999993562E+02 0.  0.
        -12    1    1    2    0    0 -0.21138425134E+02 -0.46394428452E+01  0.34421045930E+02  0.40659142268E+02  0.00000000000E+00 0.  1.
         11    1    3    3    0    0  0.12145976116E+02 -0.13096066422E+01 -0.30550598311E+02  0.32902566204E+02  0.51100000000E-03 0. -1.
        -11    1    3    3    0    0  0.10182925520E+02 -0.91426727347E+00 -0.25380538181E+01  0.10534209711E+02  0.51100000000E-03 0.  1.
         12    1    3    3    0    0 -0.11904765025E+01  0.68633167608E+01 -0.13323938011E+01  0.70920818173E+01  0.00000000000E+00 0. -1.
</event>
<event>
 7    1  0.5441610E-013  0.5052886E+02  0.7816164E-02  0.1300439E+00
        -11   -1    0    0    0    0  0.00000000000E+00  0.00000000000E+00  0.45593999997E+02  0.45594000000E+02  0.51100000000E-03 0. -1.
         11   -1    0    0    0    0 -0.00000000000E+00 -0.00000000000E+00 -0.45593999997E+02  0.45594000000E+02  0.51100000000E-03 0.  1.
    9900012    2    1    2    0    0  0.22808395844E+02  0.34972268000E+01  0.33477038856E+02  0.50528860230E+02  0.30000001156E+02 0.  0.
        -12    1    1    2    0    0 -0.22808395844E+02 -0.34972268000E+01 -0.33477038856E+02  0.40659139770E+02  0.00000000000E+00 0.  1.
         11    1    3    3    0    0  0.98176185021E+01 -0.54541741469E+01  0.28830021505E+01  0.11595057151E+02  0.51100000000E-03 0. -1.
        -11    1    3    3    0    0  0.28636401040E+01  0.16182500080E+00 -0.21275467569E+01  0.35711451160E+01  0.51100000000E-03 0.  1.
        -12    1    3    3    0    0  0.10127137238E+02  0.87895759461E+01  0.32721583462E+02  0.35362657963E+02  0.00000000000E+00 0.  1.
</event>
<event>
 7    1  0.5441610E-013  0.5052885E+02  0.7816164E-02  0.1300439E+00
        -11   -1    0    0    0    0  0.00000000000E+00  0.00000000000E+00  0.45593999997E+02  0.45594000000E+02  0.51100000000E-03 0. -1.
         11   -1    0    0    0    0 -0.00000000000E+00 -0.00000000000E+00 -0.45593999997E+02  0.45594000000E+02  0.51100000000E-03 0.  1.
    9900012    2    1    2    0    0 -0.24027717750E+02  0.79781223836E+01 -0.31814848986E+02  0.50528852529E+02  0.29999977748E+02 0.  0.
        -12    1    1    2    0    0  0.24027717750E+02 -0.79781223836E+01  0.31814848986E+02  0.40659147471E+02  0.00000000000E+00 0.  1.
         11    1    3    3    0    0 -0.35158898796E+01 -0.24044189274E+01 -0.68656695965E+01  0.80796120757E+01  0.51100000000E-03 0. -1.
        -11    1    3    3    0    0 -0.66415427764E+01  0.14648820055E+01 -0.25052468065E+02  0.25959239707E+02  0.51100000000E-03 0.  1.
        -12    1    3    3    0    0 -0.13870285094E+02  0.89176593055E+01  0.10328867586E+00  0.16490000747E+02  0.00000000000E+00 0.  1.
</event>
<event>
 7    1  0.5441610E-013  0.5052885E+02  0.7816164E-02  0.1300439E+00
        -11   -1    0    0    0    0  0.00000000000E+00  0.00000000000E+00  0.45593999997E+02  0.45594000000E+02  0.51100000000E-03 0.  1.
         11   -1    0    0    0    0 -0.00000000000E+00 -0.00000000000E+00 -0.45593999997E+02  0.45594000000E+02  0.51100000000E-03 0. -1.
    9900012    2    1    2    0    0 -0.61387121439E+01 -0.22353669942E+02 -0.33403539913E+02  0.50528845737E+02  0.29999957103E+02 0.  0.
        -12    1    1    2    0    0  0.61387121439E+01  0.22353669942E+02  0.33403539913E+02  0.40659154263E+02  0.00000000000E+00 0.  1.
         11    1    3    3    0    0  0.61613638695E+00  0.24199514221E+01  0.62576416141E+00  0.25743678796E+01  0.51100000000E-03 0. -1.
        -11    1    3    3    0    0  0.17450149766E+01 -0.34037572289E+01  0.26557240622E+01  0.46565557119E+01  0.51100000000E-03 0.  1.
         12    1    3    3    0    0 -0.84998635075E+01 -0.21369864135E+02 -0.36685028136E+02  0.43297922146E+02  0.00000000000E+00 0. -1.
</event>
<event>
 7    1  0.5441610E-013  0.5052885E+02  0.7816164E-02  0.1300439E+00
        -11   -1    0    0    0    0  0.00000000000E+00  0.00000000000E+00  0.45593999997E+02  0.45594000000E+02  0.51100000000E-03 0.  1.
         11   -1    0    0    0    0 -0.00000000000E+00 -0.00000000000E+00 -0.45593999997E+02  0.45594000000E+02  0.51100000000E-03 0. -1.
    9900012    2    1    2    0    0 -0.39086462667E+02 -0.10638728713E+02 -0.34974449290E+01  0.50528853016E+02  0.29999979226E+02 0.  0.
        -12    1    1    2    0    0  0.39086462667E+02  0.10638728713E+02  0.34974449290E+01  0.40659146984E+02  0.00000000000E+00 0.  1.
         11    1    3    3    0    0 -0.31789204943E+02 -0.89885502075E+01  0.33506766728E+01  0.33205039078E+02  0.51100000000E-03 0. -1.
        -11    1    3    3    0    0 -0.76847542198E+01 -0.61276233609E+01 -0.80129740033E+01  0.12681126453E+02  0.51100000000E-03 0.  1.
         12    1    3    3    0    0  0.38749649555E+00  0.44774448551E+01  0.11648524015E+01  0.46426874849E+01  0.00000000000E+00 0. -1.
</event>
<event>
 7    1  0.5441610E-013  0.5052886E+02  0.7816164E-02  0.1300439E+00
        -11   -1    0    0    0    0  0.00000000000E+00  0.00000000000E+00  0.45593999997E+02  0.45594000000E+02  0.51100000000E-03 0.  1.
         11   -1    0    0    0    0 -0.00000000000E+00 -0.00000000000E+00 -0.45593999997E+02  0.45594000000E+02  0.51100000000E-03 0. -1.
    9900012    2    1    2    0    0  0.32819579107E+02 -0.21141881349E+02 -0.11360538161E+02  0.50528858998E+02  0.29999997411E+02 0.  0.
        -12    1    1    2    0    0 -0.32819579107E+02  0.21141881349E+02  0.11360538161E+02  0.40659141002E+02  0.00000000000E+00 0.  1.
         11    1    3    3    0    0  0.77459769961E+01  0.27015013198E+01 -0.74137569873E+00  0.82369841078E+01  0.51100000000E-03 0. -1.
        -11    1    3    3    0    0  0.14515029663E+01 -0.72731060513E+01  0.55064263206E+01  0.92371891601E+01  0.51100000000E-03 0.  1.
         12    1    3    3    0    0  0.23622099144E+02 -0.16570276617E+02 -0.16125588783E+02  0.33054685730E+02  0.00000000000E+00 0. -1.
</event>
<event>
 7    1  0.5441610E-013  0.5052886E+02  0.7816164E-02  0.1300439E+00
        -11   -1    0    0    0    0  0.00000000000E+00  0.00000000000E+00  0.45593999997E+02  0.45594000000E+02  0.51100000000E-03 0.  1.
         11   -1    0    0    0    0 -0.00000000000E+00 -0.00000000000E+00 -0.45593999997E+02  0.45594000000E+02  0.51100000000E-03 0. -1.
    9900012    2    1    2    0    0 -0.11135928576E+02  0.15512214742E+02 -0.35896071318E+02  0.50528860222E+02  0.30000001130E+02 0.  0.
        -12    1    1    2    0    0  0.11135928576E+02 -0.15512214742E+02  0.35896071318E+02  0.40659139778E+02  0.00000000000E+00 0.  1.
         11    1    3    3    0    0 -0.36547003487E+01 -0.45674731603E+01 -0.36000913577E+01  0.68687192222E+01  0.51100000000E-03 0. -1.
        -11    1    3    3    0    0  0.40622977870E+01  0.53241107762E+01 -0.44968042980E+00  0.67119767295E+01  0.51100000000E-03 0.  1.
         12    1    3    3    0    0 -0.11543526014E+02  0.14755577126E+02 -0.31846299530E+02  0.36948164270E+02  0.00000000000E+00 0. -1.
</event>
<event>
 7    1  0.5441610E-013  0.5052886E+02  0.7816164E-02  0.1300439E+00
        -11   -1    0    0    0    0  0.00000000000E+00  0.00000000000E+00  0.45593999997E+02  0.45594000000E+02  0.51100000000E-03 0.  1.
         11   -1    0    0    0    0 -0.00000000000E+00 -0.00000000000E+00 -0.45593999997E+02  0.45594000000E+02  0.51100000000E-03 0. -1.
    9900012    2    1    2    0    0 -0.34134773688E+02 -0.16970669878E+02 -0.14141397920E+02  0.50528861470E+02  0.30000004925E+02 0.  0.
        -12    1    1    2    0    0  0.34134773688E+02  0.16970669878E+02  0.14141397920E+02  0.40659138530E+02  0.00000000000E+00 0.  1.
         11    1    3    3    0    0 -0.13154011287E+02 -0.63041983207E+01 -0.48518028270E+01  0.15372407760E+02  0.51100000000E-03 0. -1.
        -11    1    3    3    0    0 -0.10170186731E+02 -0.16201705869E+02  0.11180343168E+01  0.19161888535E+02  0.51100000000E-03 0.  1.
        -12    1    3    3    0    0 -0.10810575670E+02  0.55352343124E+01 -0.10407629410E+02  0.15994565176E+02  0.00000000000E+00 0.  1.
</event>
<event>
 7    1  0.5441610E-013  0.5052887E+02  0.7816164E-02  0.1300439E+00
        -11   -1    0    0    0    0  0.00000000000E+00  0.00000000000E+00  0.45593999997E+02  0.45594000000E+02  0.51100000000E-03 0. -1.
         11   -1    0    0    0    0 -0.00000000000E+00 -0.00000000000E+00 -0.45593999997E+02  0.45594000000E+02  0.51100000000E-03 0.  1.
    9900012    2    1    2    0    0  0.34614910800E+02  0.21085723514E+02  0.32194742810E+01  0.50528870638E+02  0.30000032792E+02 0.  0.
        -12    1    1    2    0    0 -0.34614910800E+02 -0.21085723514E+02 -0.32194742810E+01  0.40659129362E+02  0.00000000000E+00 0.  1.
         11    1    3    3    0    0  0.82756284347E-02  0.64137471017E+01  0.15223816445E+01  0.65919546800E+01  0.51100000000E-03 0. -1.
        -11    1    3    3    0    0 -0.26968847390E+01  0.31603487264E+01 -0.22041826651E+01  0.47031279857E+01  0.51100000000E-03 0.  1.
         12    1    3    3    0    0  0.37303519911E+02  0.11511627686E+02  0.39012753016E+01  0.39233787973E+02  0.00000000000E+00 0. -1.
</event>
<event>
 7    1  0.5441610E-013  0.5052886E+02  0.7816164E-02  0.1300439E+00
        -11   -1    0    0    0    0  0.00000000000E+00  0.00000000000E+00  0.45593999997E+02  0.45594000000E+02  0.51100000000E-03 0.  1.
         11   -1    0    0    0    0 -0.00000000000E+00 -0.00000000000E+00 -0.45593999997E+02  0.45594000000E+02  0.51100000000E-03 0. -1.
    9900012    2    1    2    0    0 -0.77262670633E+01 -0.21796957149E+02 -0.33441940982E+02  0.50528856375E+02  0.29999989437E+02 0.  0.
        -12    1    1    2    0    0  0.77262670633E+01  0.21796957149E+02  0.33441940982E+02  0.40659143625E+02  0.00000000000E+00 0.  1.
         11    1    3    3    0    0 -0.90704177897E+01 -0.12963655937E+02 -0.14055654435E+01  0.15884094832E+02  0.51100000000E-03 0.  1.
        -11    1    3    3    0    0 -0.32346618514E+01 -0.52713782572E+01 -0.92181099079E+01  0.11100631359E+02  0.51100000000E-03 0. -1.
        -12    1    3    3    0    0  0.45788125777E+01 -0.35619229542E+01 -0.22818265631E+02  0.23544130185E+02  0.00000000000E+00 0.  1.
</event>
<event>
 7    1  0.5441610E-013  0.5052888E+02  0.7816164E-02  0.1300439E+00
        -11   -1    0    0    0    0  0.00000000000E+00  0.00000000000E+00  0.45593999997E+02  0.45594000000E+02  0.51100000000E-03 0. -1.
         11   -1    0    0    0    0 -0.00000000000E+00 -0.00000000000E+00 -0.45593999997E+02  0.45594000000E+02  0.51100000000E-03 0.  1.
    9900012    2    1    2    0    0 -0.40205867318E+02 -0.40213076640E+01  0.45256529963E+01  0.50528877811E+02  0.30000054595E+02 0.  0.
        -12    1    1    2    0    0  0.40205867318E+02  0.40213076640E+01 -0.45256529963E+01  0.40659122189E+02  0.00000000000E+00 0.  1.
         11    1    3    3    0    0 -0.15328061428E+02 -0.10044690862E+02  0.98735203909E+01  0.20816620447E+02  0.51100000000E-03 0. -1.
        -11    1    3    3    0    0  0.14427137867E+01  0.21608786364E+01 -0.11990135304E+00  0.26009990672E+01  0.51100000000E-03 0.  1.
         12    1    3    3    0    0 -0.26320519676E+02  0.38625045613E+01 -0.52279660416E+01  0.27111258297E+02  0.00000000000E+00 0. -1.
</event>
<event>
 7    1  0.1770834E-012  0.5052886E+02  0.7816164E-02  0.1300439E+00
        -11   -1    0    0    0    0  0.00000000000E+00  0.00000000000E+00  0.45593999997E+02  0.45594000000E+02  0.51100000000E-03 0. -1.
         11   -1    0    0    0    0 -0.00000000000E+00 -0.00000000000E+00 -0.45593999997E+02  0.45594000000E+02  0.51100000000E-03 0.  1.
    9900012    2    1    2    0    0  0.93092071879E+01 -0.38886135791E+02  0.73737835224E+01  0.50528861068E+02  0.30000003704E+02 0.  0.
        -12    1    1    2    0    0 -0.93092071879E+01  0.38886135791E+02 -0.73737835224E+01  0.40659138932E+02  0.00000000000E+00 0.  1.
         11    1    3    3    0    0 -0.22244541724E+01  0.20220008837E+01  0.18434685123E+01  0.35263380943E+01  0.51100000000E-03 0. -1.
        -11    1    3    3    0    0  0.49267323988E+01 -0.20520748307E+01 -0.37352864714E+01  0.65142972395E+01  0.51100000000E-03 0.  1.
         12    1    3    3    0    0  0.66069289615E+01 -0.38856061844E+02  0.92656014816E+01  0.40488225735E+02  0.00000000000E+00 0. -1.
</event>
<event>
 7    1  0.5441610E-013  0.5052886E+02  0.7816164E-02  0.1300439E+00
        -11   -1    0    0    0    0  0.00000000000E+00  0.00000000000E+00  0.45593999997E+02  0.45594000000E+02  0.51100000000E-03 0. -1.
         11   -1    0    0    0    0 -0.00000000000E+00 -0.00000000000E+00 -0.45593999997E+02  0.45594000000E+02  0.51100000000E-03 0.  1.
    9900012    2    1    2    0    0  0.59815489245E+01 -0.37710571992E+02  0.13974964106E+02  0.50528858478E+02  0.29999995830E+02 0.  0.
        -12    1    1    2    0    0 -0.59815489245E+01  0.37710571992E+02 -0.13974964106E+02  0.40659141522E+02  0.00000000000E+00 0.  1.
         11    1    3    3    0    0 -0.23018227024E+01 -0.79255593588E+01  0.12454158323E+02  0.14940513334E+02  0.51100000000E-03 0. -1.
        -11    1    3    3    0    0 -0.47611506360E+01 -0.29004443012E+01 -0.72494230426E+00  0.56219813347E+01  0.51100000000E-03 0.  1.
        -12    1    3    3    0    0  0.13044522263E+02 -0.26884568332E+02  0.22457480877E+01  0.29966363809E+02  0.00000000000E+00 0.  1.
</event>
<event>
 7    1  0.5441610E-013  0.5052885E+02  0.7816164E-02  0.1300439E+00
        -11   -1    0    0    0    0  0.00000000000E+00  0.00000000000E+00  0.45593999997E+02  0.45594000000E+02  0.51100000000E-03 0.  1.
         11   -1    0    0    0    0 -0.00000000000E+00 -0.00000000000E+00 -0.45593999997E+02  0.45594000000E+02  0.51100000000E-03 0. -1.
    9900012    2    1    2    0    0 -0.14084271136E+02  0.36508335153E+02 -0.11042690097E+02  0.50528853013E+02  0.29999979220E+02 0.  0.
        -12    1    1    2    0    0  0.14084271136E+02 -0.36508335153E+02  0.11042690097E+02  0.40659146987E+02  0.00000000000E+00 0.  1.
         11    1    3    3    0    0  0.50052999462E+00  0.16164377194E+01  0.10801962648E+00  0.16956030423E+01  0.51100000000E-03 0. -1.
        -11    1    3    3    0    0  0.71869269817E+01  0.32965685560E+01 -0.63952260572E+01  0.10169473943E+02  0.51100000000E-03 0.  1.
         12    1    3    3    0    0 -0.21771728112E+02  0.31595328878E+02 -0.47554836665E+01  0.38663776029E+02  0.00000000000E+00 0. -1.
</event>
<event>
 7    1  0.5441610E-013  0.5052886E+02  0.7816164E-02  0.1300439E+00
        -11   -1    0    0    0    0  0.00000000000E+00  0.00000000000E+00  0.45593999997E+02  0.45594000000E+02  0.51100000000E-03 0.  1.
         11   -1    0    0    0    0 -0.00000000000E+00 -0.00000000000E+00 -0.45593999997E+02  0.45594000000E+02  0.51100000000E-03 0. -1.
    9900012    2    1    2    0    0  0.11546156359E+02 -0.29763880873E+02 -0.25178624408E+02  0.50528862547E+02  0.30000008198E+02 0.  0.
        -12    1    1    2    0    0 -0.11546156359E+02  0.29763880873E+02  0.25178624408E+02  0.40659137453E+02  0.00000000000E+00 0.  1.
         11    1    3    3    0    0  0.12323590653E+02 -0.31997379014E+01 -0.67159068403E+01  0.14394881527E+02  0.51100000000E-03 0. -1.
        -11    1    3    3    0    0 -0.47764776669E+01 -0.76261670622E+01 -0.13376025826E+02  0.16121142333E+02  0.51100000000E-03 0.  1.
         12    1    3    3    0    0  0.39990433735E+01 -0.18937975910E+02 -0.50866917422E+01  0.20012838688E+02  0.00000000000E+00 0. -1.
</event>
<event>
 7    1  0.5441610E-013  0.5052886E+02  0.7816164E-02  0.1300439E+00
        -11   -1    0    0    0    0  0.00000000000E+00  0.00000000000E+00  0.45593999997E+02  0.45594000000E+02  0.51100000000E-03 0.  1.
         11   -1    0    0    0    0 -0.00000000000E+00 -0.00000000000E+00 -0.45593999997E+02  0.45594000000E+02  0.51100000000E-03 0. -1.
    9900012    2    1    2    0    0 -0.34660209321E+02  0.15795266321E+02 -0.14224806946E+02  0.50528859810E+02  0.29999999877E+02 0.  0.
        -12    1    1    2    0    0  0.34660209321E+02 -0.15795266321E+02  0.14224806946E+02  0.40659140190E+02  0.00000000000E+00 0.  1.
         11    1    3    3    0    0  0.21192108059E+01  0.51122880561E+01  0.45030665033E+00  0.55524156859E+01  0.51100000000E-03 0. -1.
        -11    1    3    3    0    0 -0.90955778239E+01 -0.51528821745E+01 -0.53770622665E+01  0.11755616935E+02  0.51100000000E-03 0.  1.
         12    1    3    3    0    0 -0.27683842303E+02  0.15835860440E+02 -0.92980513301E+01  0.33220827188E+02  0.00000000000E+00 0. -1.
</event>
<event>
 7    1  0.5441610E-013  0.5052885E+02  0.7816164E-02  0.1300439E+00
        -11   -1    0    0    0    0  0.00000000000E+00  0.00000000000E+00  0.45593999997E+02  0.45594000000E+02  0.51100000000E-03 0.  1.
         11   -1    0    0    0    0 -0.00000000000E+00 -0.00000000000E+00 -0.45593999997E+02  0.45594000000E+02  0.51100000000E-03 0. -1.
    9900012    2    1    2    0    0 -0.30465927059E+01  0.47084844637E+01 -0.40270518163E+02  0.50528853598E+02  0.29999980996E+02 0.  0.
        -12    1    1    2    0    0  0.30465927059E+01 -0.47084844637E+01  0.40270518163E+02  0.40659146402E+02  0.00000000000E+00 0.  1.
         11    1    3    3    0    0  0.34223382465E+01 -0.28656290201E+01 -0.23217124439E+02  0.23642315797E+02  0.51100000000E-03 0. -1.
        -11    1    3    3    0    0 -0.99142115468E+01  0.10530837617E+02 -0.17034465694E+02  0.22346434911E+02  0.51100000000E-03 0.  1.
        -12    1    3    3    0    0  0.34452805944E+01 -0.29567241334E+01 -0.18928029386E-01  0.45401028893E+01  0.00000000000E+00 0.  1.
</event>
<event>
 7    1  0.5441610E-013  0.5052887E+02  0.7816164E-02  0.1300439E+00
        -11   -1    0    0    0    0  0.00000000000E+00  0.00000000000E+00  0.45593999997E+02  0.45594000000E+02  0.51100000000E-03 0. -1.
         11   -1    0    0    0    0 -0.00000000000E+00 -0.00000000000E+00 -0.45593999997E+02  0.45594000000E+02  0.51100000000E-03 0.  1.
    9900012    2    1    2    0    0  0.17556612688E+02  0.31334010386E+02  0.19055450934E+02  0.50528867369E+02  0.30000022856E+02 0.  0.
        -12    1    1    2    0    0 -0.17556612688E+02 -0.31334010386E+02 -0.19055450934E+02  0.40659132631E+02  0.00000000000E+00 0.  1.
         11    1    3    3    0    0 -0.13780780271E+01  0.12560431845E+02  0.15522863454E+02  0.20015564874E+02  0.51100000000E-03 0. -1.
        -11    1    3    3    0    0  0.12170680382E+02  0.19361343136E+02  0.53467054106E+01  0.23485619600E+02  0.51100000000E-03 0.  1.
        -12    1    3    3    0    0  0.67640103331E+01 -0.58776459432E+00 -0.18141179302E+01  0.70276828948E+01  0.00000000000E+00 0.  1.
</event>
<event>
 7    1  0.5441610E-013  0.5052884E+02  0.7816164E-02  0.1300439E+00
        -11   -1    0    0    0    0  0.00000000000E+00  0.00000000000E+00  0.45593999997E+02  0.45594000000E+02  0.51100000000E-03 0. -1.
         11   -1    0    0    0    0 -0.00000000000E+00 -0.00000000000E+00 -0.45593999997E+02  0.45594000000E+02  0.51100000000E-03 0.  1.
    9900012    2    1    2    0    0  0.11590792940E+02  0.37132045957E+02  0.11833500834E+02  0.50528842853E+02  0.29999948336E+02 0.  0.
        -12    1    1    2    0    0 -0.11590792940E+02 -0.37132045957E+02 -0.11833500834E+02  0.40659157147E+02  0.00000000000E+00 0.  1.
         11    1    3    3    0    0  0.77488715857E+01  0.40494895602E+02  0.98565874829E+01  0.42391436608E+02  0.51100000000E-03 0. -1.
        -11    1    3    3    0    0  0.25790338034E+01  0.12525186775E+01 -0.21314682757E+00  0.28750043874E+01  0.51100000000E-03 0.  1.
        -12    1    3    3    0    0  0.12628875512E+01 -0.46153683227E+01  0.21900601788E+01  0.52624018573E+01  0.00000000000E+00 0.  1.
</event>
<event>
 7    1  0.5441610E-013  0.5052885E+02  0.7816164E-02  0.1300439E+00
        -11   -1    0    0    0    0  0.00000000000E+00  0.00000000000E+00  0.45593999997E+02  0.45594000000E+02  0.51100000000E-03 0. -1.
         11   -1    0    0    0    0 -0.00000000000E+00 -0.00000000000E+00 -0.45593999997E+02  0.45594000000E+02  0.51100000000E-03 0.  1.
    9900012    2    1    2    0    0 -0.10420543194E+02 -0.33235422078E+02 -0.20975827712E+02  0.50528851591E+02  0.29999974895E+02 0.  0.
        -12    1    1    2    0    0  0.10420543194E+02  0.33235422078E+02  0.20975827712E+02  0.40659148409E+02  0.00000000000E+00 0.  1.
         11    1    3    3    0    0  0.34607960896E+01 -0.10205316436E+02 -0.32386309441E+01  0.11252303043E+02  0.51100000000E-03 0. -1.
        -11    1    3    3    0    0  0.14090331701E+01  0.22882571398E+01  0.23115404641E+01  0.35446741445E+01  0.51100000000E-03 0.  1.
        -12    1    3    3    0    0 -0.15290372454E+02 -0.25318362782E+02 -0.20048737232E+02  0.35731874403E+02  0.00000000000E+00 0.  1.
</event>
<event>
 7    1  0.5441610E-013  0.5052886E+02  0.7816164E-02  0.1300439E+00
        -11   -1    0    0    0    0  0.00000000000E+00  0.00000000000E+00  0.45593999997E+02  0.45594000000E+02  0.51100000000E-03 0. -1.
         11   -1    0    0    0    0 -0.00000000000E+00 -0.00000000000E+00 -0.45593999997E+02  0.45594000000E+02  0.51100000000E-03 0.  1.
    9900012    2    1    2    0    0 -0.23057945880E+02  0.30588893020E+02 -0.13631459370E+02  0.50528856761E+02  0.29999990610E+02 0.  0.
        -12    1    1    2    0    0  0.23057945880E+02 -0.30588893020E+02  0.13631459370E+02  0.40659143239E+02  0.00000000000E+00 0.  1.
         11    1    3    3    0    0 -0.13064471853E+02  0.18677115469E+02 -0.13465888547E+02  0.26473481479E+02  0.51100000000E-03 0. -1.
        -11    1    3    3    0    0  0.89882359740E+00  0.99371298567E+01 -0.58967476025E+01  0.11589912260E+02  0.51100000000E-03 0.  1.
        -12    1    3    3    0    0 -0.10892297625E+02  0.19746476942E+01  0.57311767788E+01  0.12465463021E+02  0.00000000000E+00 0.  1.
</event>
<event>
 7    1  0.5441610E-013  0.5052886E+02  0.7816164E-02  0.1300439E+00
        -11   -1    0    0    0    0  0.00000000000E+00  0.00000000000E+00  0.45593999997E+02  0.45594000000E+02  0.51100000000E-03 0.  1.
         11   -1    0    0    0    0 -0.00000000000E+00 -0.00000000000E+00 -0.45593999997E+02  0.45594000000E+02  0.51100000000E-03 0. -1.
    9900012    2    1    2    0    0  0.10535497555E+02 -0.12402987978E+02 -0.37260361745E+02  0.50528863550E+02  0.30000011246E+02 0.  0.
        -12    1    1    2    0    0 -0.10535497555E+02  0.12402987978E+02  0.37260361745E+02  0.40659136450E+02  0.00000000000E+00 0.  1.
         11    1    3    3    0    0 -0.52641091433E+01 -0.92768912276E+01 -0.26115288302E+02  0.28209569994E+02  0.51100000000E-03 0. -1.
        -11    1    3    3    0    0  0.37251655974E+01 -0.34043128738E+01  0.10513170085E+01  0.51547524271E+01  0.51100000000E-03 0.  1.
        -12    1    3    3    0    0  0.12074441101E+02  0.27821612321E+00 -0.12196390452E+02  0.17164541129E+02  0.00000000000E+00 0.  1.
</event>
<event>
 7    1  0.5441610E-013  0.5052885E+02  0.7816164E-02  0.1300439E+00
        -11   -1    0    0    0    0  0.00000000000E+00  0.00000000000E+00  0.45593999997E+02  0.45594000000E+02  0.51100000000E-03 0.  1.
         11   -1    0    0    0    0 -0.00000000000E+00 -0.00000000000E+00 -0.45593999997E+02  0.45594000000E+02  0.51100000000E-03 0. -1.
    9900012    2    1    2    0    0  0.24845895722E+02  0.51312090743E+01 -0.31772917066E+02  0.50528854661E+02  0.29999984227E+02 0.  0.
        -12    1    1    2    0    0 -0.24845895722E+02 -0.51312090743E+01  0.31772917066E+02  0.40659145339E+02  0.00000000000E+00 0.  1.
         11    1    3    3    0    0  0.17452669826E+02  0.68190166303E+01 -0.84615763443E+01  0.20559497717E+02  0.51100000000E-03 0. -1.
        -11    1    3    3    0    0  0.11539672361E+02 -0.47311624237E+01 -0.11011273044E+02  0.16637189378E+02  0.51100000000E-03 0.  1.
        -12    1    3    3    0    0 -0.41464464648E+01  0.30433548677E+01 -0.12300067678E+02  0.13332167566E+02  0.00000000000E+00 0.  1.
</event>
<event>
 7    1  0.5441610E-013  0.5052886E+02  0.7816164E-02  0.1300439E+00
        -11   -1    0    0    0    0  0.00000000000E+00  0.00000000000E+00  0.45593999997E+02  0.45594000000E+02  0.51100000000E-03 0.  1.
         11   -1    0    0    0    0 -0.00000000000E+00 -0.00000000000E+00 -0.45593999997E+02  0.45594000000E+02  0.51100000000E-03 0. -1.
    9900012    2    1    2    0    0 -0.17282580490E+02 -0.10125407878E+02 -0.35382961453E+02  0.50528862844E+02  0.30000009101E+02 0.  0.
        -12    1    1    2    0    0  0.17282580490E+02  0.10125407878E+02  0.35382961453E+02  0.40659137156E+02  0.00000000000E+00 0.  1.
         11    1    3    3    0    0  0.55219090292E+00  0.36367151837E+01 -0.13540881366E+02  0.14031610048E+02  0.51100000000E-03 0. -1.
        -11    1    3    3    0    0 -0.62175730133E+00 -0.24588321095E+00  0.31828668714E+01  0.32523349270E+01  0.51100000000E-03 0.  1.
         12    1    3    3    0    0 -0.17213014092E+02 -0.13516239851E+02 -0.25024946958E+02  0.33244917869E+02  0.00000000000E+00 0. -1.
</event>
<event>
 7    1  0.5441610E-013  0.5052887E+02  0.7816164E-02  0.1300439E+00
        -11   -1    0    0    0    0  0.00000000000E+00  0.00000000000E+00  0.45593999997E+02  0.45594000000E+02  0.51100000000E-03 0. -1.
         11   -1    0    0    0    0 -0.00000000000E+00 -0.00000000000E+00 -0.45593999997E+02  0.45594000000E+02  0.51100000000E-03 0.  1.
    9900012    2    1    2    0    0  0.17968301406E+02  0.33197989834E+02 -0.15106235327E+02  0.50528871502E+02  0.30000035417E+02 0.  0.
        -12    1    1    2    0    0 -0.17968301406E+02 -0.33197989834E+02  0.15106235327E+02  0.40659128498E+02  0.00000000000E+00 0.  1.
         11    1    3    3    0    0  0.94112979410E+01 -0.23948526358E+01 -0.35655814848E+01  0.10345106073E+02  0.51100000000E-03 0. -1.
        -11    1    3    3    0    0  0.75157293466E+01  0.16774251273E+02 -0.59943261636E+00  0.18390786093E+02  0.51100000000E-03 0.  1.
        -12    1    3    3    0    0  0.10412741189E+01  0.18818591197E+02 -0.10941221226E+02  0.21792979336E+02  0.00000000000E+00 0.  1.
</event>
<event>
 7    1  0.5441610E-013  0.5052887E+02  0.7816164E-02  0.1300439E+00
        -11   -1    0    0    0    0  0.00000000000E+00  0.00000000000E+00  0.45593999997E+02  0.45594000000E+02  0.51100000000E-03 0.  1.
         11   -1    0    0    0    0 -0.00000000000E+00 -0.00000000000E+00 -0.45593999997E+02  0.45594000000E+02  0.51100000000E-03 0. -1.
    9900012    2    1    2    0    0 -0.23829955751E+02 -0.48961741422E+01 -0.32577992442E+02  0.50528869367E+02  0.30000028927E+02 0.  0.
        -12    1    1    2    0    0  0.23829955751E+02  0.48961741422E+01  0.32577992442E+02  0.40659130633E+02  0.00000000000E+00 0.  1.
         11    1    3    3    0    0 -0.36360421272E+01  0.37055709904E+01 -0.93628929207E+01  0.10705877957E+02  0.51100000000E-03 0. -1.
        -11    1    3    3    0    0 -0.98077954588E+01 -0.15941731147E+02 -0.18333975779E+02  0.26200502129E+02  0.51100000000E-03 0.  1.
         12    1    3    3    0    0 -0.10386118165E+02  0.73399860143E+01 -0.48811237427E+01  0.13622489281E+02  0.00000000000E+00 0. -1.
</event>
<event>
 7    1  0.5441610E-013  0.5052886E+02  0.7816164E-02  0.1300439E+00
        -11   -1    0    0    0    0  0.00000000000E+00  0.00000000000E+00  0.45593999997E+02  0.45594000000E+02  0.51100000000E-03 0.  1.
         11   -1    0    0    0    0 -0.00000000000E+00 -0.00000000000E+00 -0.45593999997E+02  0.45594000000E+02  0.51100000000E-03 0. -1.
    9900012    2    1    2    0    0 -0.36473055405E+02 -0.13528742615E+02 -0.11826035651E+02  0.50528858758E+02  0.29999996680E+02 0.  0.
        -12    1    1    2    0    0  0.36473055405E+02  0.13528742615E+02  0.11826035651E+02  0.40659141242E+02  0.00000000000E+00 0.  1.
         11    1    3    3    0    0 -0.64090738248E+01 -0.32192416049E+01 -0.96694983244E+01  0.12039059013E+02  0.51100000000E-03 0. -1.
        -11    1    3    3    0    0  0.99917142781E+00  0.93636544441E+00 -0.51399063997E+01  0.53191880816E+01  0.51100000000E-03 0.  1.
         12    1    3    3    0    0 -0.31063153008E+02 -0.11245866455E+02  0.29833690732E+01  0.33170611664E+02  0.00000000000E+00 0. -1.
</event>
<event>
 7    1  0.5441610E-013  0.5052886E+02  0.7816164E-02  0.1300439E+00
        -11   -1    0    0    0    0  0.00000000000E+00  0.00000000000E+00  0.45593999997E+02  0.45594000000E+02  0.51100000000E-03 0.  1.
         11   -1    0    0    0    0 -0.00000000000E+00 -0.00000000000E+00 -0.45593999997E+02  0.45594000000E+02  0.51100000000E-03 0. -1.
    9900012    2    1    2    0    0  0.15741858455E+02  0.28981760425E+02 -0.23778501553E+02  0.50528859809E+02  0.29999999876E+02 0.  0.
        -12    1    1    2    0    0 -0.15741858455E+02 -0.28981760425E+02  0.23778501553E+02  0.40659140191E+02  0.00000000000E+00 0.  1.
         11    1    3    3    0    0  0.12736866899E+02  0.24176470788E+01 -0.13342617431E+02  0.18603715650E+02  0.51100000000E-03 0. -1.
        -11    1    3    3    0    0 -0.46858969953E+01  0.36832713162E+01 -0.12003724354E+01  0.60798858940E+01  0.51100000000E-03 0.  1.
         12    1    3    3    0    0  0.76908885509E+01  0.22880842030E+02 -0.92355116872E+01  0.25845258265E+02  0.00000000000E+00 0. -1.
</event>
<event>
 7    1  0.5441610E-013  0.5052888E+02  0.7816164E-02  0.1300439E+00
        -11   -1    0    0    0    0  0.00000000000E+00  0.00000000000E+00  0.45593999997E+02  0.45594000000E+02  0.51100000000E-03 0.  1.
         11   -1    0    0    0    0 -0.00000000000E+00 -0.00000000000E+00 -0.45593999997E+02  0.45594000000E+02  0.51100000000E-03 0. -1.
    9900012    2    1    2    0    0 -0.40541637319E+02 -0.88064537883E+00 -0.29604655098E+01  0.50528877421E+02  0.30000053410E+02 0.  0.
        -12    1    1    2    0    0  0.40541637319E+02  0.88064537883E+00  0.29604655098E+01  0.40659122579E+02  0.00000000000E+00 0.  1.
         11    1    3    3    0    0 -0.24294007109E+02 -0.19882438776E+01  0.40373412700E+01  0.24707327252E+02  0.51100000000E-03 0. -1.
        -11    1    3    3    0    0 -0.10748386906E+02  0.91154657016E+01 -0.43841064261E+00  0.14100061709E+02  0.51100000000E-03 0.  1.
         12    1    3    3    0    0 -0.54992433047E+01 -0.80078672029E+01 -0.65593961372E+01  0.11721488461E+02  0.00000000000E+00 0. -1.
</event>
<event>
 7    1  0.5441610E-013  0.5052887E+02  0.7816164E-02  0.1300439E+00
        -11   -1    0    0    0    0  0.00000000000E+00  0.00000000000E+00  0.45593999997E+02  0.45594000000E+02  0.51100000000E-03 0. -1.
         11   -1    0    0    0    0 -0.00000000000E+00 -0.00000000000E+00 -0.45593999997E+02  0.45594000000E+02  0.51100000000E-03 0.  1.
    9900012    2    1    2    0    0 -0.38688604880E+02  0.16374962203E+01  0.12396596012E+02  0.50528866535E+02  0.30000020320E+02 0.  0.
        -12    1    1    2    0    0  0.38688604880E+02 -0.16374962203E+01 -0.12396596012E+02  0.40659133465E+02  0.00000000000E+00 0.  1.
         11    1    3    3    0    0 -0.66561161195E+01 -0.16277692908E+01  0.45809178954E+01  0.82424707271E+01  0.51100000000E-03 0. -1.
        -11    1    3    3    0    0  0.43107432090E+01  0.19391215757E+01  0.30075707336E+01  0.56025156383E+01  0.51100000000E-03 0.  1.
         12    1    3    3    0    0 -0.36343231969E+02  0.13261439353E+01  0.48081073832E+01  0.36683880170E+02  0.00000000000E+00 0. -1.
</event>
<event>
 7    1  0.5441610E-013  0.5052885E+02  0.7816164E-02  0.1300439E+00
        -11   -1    0    0    0    0  0.00000000000E+00  0.00000000000E+00  0.45593999997E+02  0.45594000000E+02  0.51100000000E-03 0. -1.
         11   -1    0    0    0    0 -0.00000000000E+00 -0.00000000000E+00 -0.45593999997E+02  0.45594000000E+02  0.51100000000E-03 0.  1.
    9900012    2    1    2    0    0 -0.25337984762E+02  0.31454089096E+02  0.46683104294E+01  0.50528852014E+02  0.29999976182E+02 0.  0.
        -12    1    1    2    0    0  0.25337984762E+02 -0.31454089096E+02 -0.46683104294E+01  0.40659147986E+02  0.00000000000E+00 0.  1.
         11    1    3    3    0    0 -0.16130336386E+01  0.29092547963E+00 -0.51289094714E+00  0.17174319605E+01  0.51100000000E-03 0. -1.
        -11    1    3    3    0    0  0.15209415987E+01 -0.36929912855E+01  0.41513679442E+01  0.57606687156E+01  0.51100000000E-03 0.  1.
         12    1    3    3    0    0 -0.25245892722E+02  0.34856154902E+02  0.10298334323E+01  0.43050751338E+02  0.00000000000E+00 0. -1.
</event>
<event>
 7    1  0.5441610E-013  0.5052880E+02  0.7816164E-02  0.1300439E+00
        -11   -1    0    0    0    0  0.00000000000E+00  0.00000000000E+00  0.45593999997E+02  0.45594000000E+02  0.51100000000E-03 0.  1.
         11   -1    0    0    0    0 -0.00000000000E+00 -0.00000000000E+00 -0.45593999997E+02  0.45594000000E+02  0.51100000000E-03 0. -1.
    9900012    2    1    2    0    0 -0.27488897141E+02 -0.35329273799E+01 -0.29749779967E+02  0.50528801164E+02  0.29999821618E+02 0.  0.
        -12    1    1    2    0    0  0.27488897141E+02  0.35329273799E+01  0.29749779967E+02  0.40659198836E+02  0.00000000000E+00 0.  1.
         11    1    3    3    0    0 -0.11221317958E+02 -0.69450136858E+01 -0.16968198740E+02  0.21495835888E+02  0.51100000000E-03 0. -1.
        -11    1    3    3    0    0 -0.18183902761E+02  0.27496416409E+01 -0.16558190970E+02  0.24746485352E+02  0.51100000000E-03 0.  1.
        -12    1    3    3    0    0  0.19163235781E+01  0.66244466495E+00  0.37766097430E+01  0.42864799242E+01  0.00000000000E+00 0.  1.
</event>
<event>
 7    1  0.5441610E-013  0.5052887E+02  0.7816164E-02  0.1300439E+00
        -11   -1    0    0    0    0  0.00000000000E+00  0.00000000000E+00  0.45593999997E+02  0.45594000000E+02  0.51100000000E-03 0. -1.
         11   -1    0    0    0    0 -0.00000000000E+00 -0.00000000000E+00 -0.45593999997E+02  0.45594000000E+02  0.51100000000E-03 0.  1.
    9900012    2    1    2    0    0  0.30024539315E+02  0.19824532622E+02  0.18938842030E+02  0.50528870740E+02  0.30000033100E+02 0.  0.
        -12    1    1    2    0    0 -0.30024539315E+02 -0.19824532622E+02 -0.18938842030E+02  0.40659129260E+02  0.00000000000E+00 0.  1.
         11    1    3    3    0    0  0.16819508940E+02  0.10322667631E+02  0.72887763907E+01  0.21037576133E+02  0.51100000000E-03 0. -1.
        -11    1    3    3    0    0  0.11924215033E+02  0.19799162397E+01 -0.34523262654E+01  0.12570820553E+02  0.51100000000E-03 0.  1.
         12    1    3    3    0    0  0.12808153417E+01  0.75219487512E+01  0.15102391905E+02  0.16920474054E+02  0.00000000000E+00 0. -1.
</event>
<event>
 7    1  0.5441610E-013  0.5052885E+02  0.7816164E-02  0.1300439E+00
        -11   -1    0    0    0    0  0.00000000000E+00  0.00000000000E+00  0.45593999997E+02  0.45594000000E+02  0.51100000000E-03 0.  1.
         11   -1    0    0    0    0 -0.00000000000E+00 -0.00000000000E+00 -0.45593999997E+02  0.45594000000E+02  0.51100000000E-03 0. -1.
    9900012    2    1    2    0    0 -0.20820210216E+02  0.22341527895E+02 -0.26842906409E+02  0.50528847935E+02  0.29999963783E+02 0.  0.
        -12    1    1    2    0    0  0.20820210216E+02 -0.22341527895E+02  0.26842906409E+02  0.40659152065E+02  0.00000000000E+00 0.  1.
         11    1    3    3    0    0 -0.88292092816E+01  0.72331001146E+01  0.49962890725E+01  0.12459357069E+02  0.51100000000E-03 0.  1.
        -11    1    3    3    0    0  0.78290619236E-02 -0.38517397867E+00 -0.40350777441E+01  0.40534273091E+01  0.51100000000E-03 0. -1.
        -12    1    3    3    0    0 -0.11998829997E+02  0.15493601759E+02 -0.27804117738E+02  0.34016063557E+02  0.00000000000E+00 0.  1.
</event>
<event>
 7    1  0.5441610E-013  0.5052886E+02  0.7816164E-02  0.1300439E+00
        -11   -1    0    0    0    0  0.00000000000E+00  0.00000000000E+00  0.45593999997E+02  0.45594000000E+02  0.51100000000E-03 0.  1.
         11   -1    0    0    0    0 -0.00000000000E+00 -0.00000000000E+00 -0.45593999997E+02  0.45594000000E+02  0.51100000000E-03 0. -1.
    9900012    2    1    2    0    0  0.26440814261E+02 -0.23738423049E+02 -0.19761993630E+02  0.50528858594E+02  0.29999996182E+02 0.  0.
        -12    1    1    2    0    0 -0.26440814261E+02  0.23738423049E+02  0.19761993630E+02  0.40659141406E+02  0.00000000000E+00 0.  1.
         11    1    3    3    0    0  0.13370668836E+02 -0.41233457328E+01 -0.12217537250E+00  0.13992558460E+02  0.51100000000E-03 0. -1.
        -11    1    3    3    0    0 -0.13168846596E+01  0.33266682193E+01 -0.11968936226E+01  0.37727259711E+01  0.51100000000E-03 0.  1.
         12    1    3    3    0    0  0.14387030084E+02 -0.22941745536E+02 -0.18442924635E+02  0.32763574163E+02  0.00000000000E+00 0. -1.
</event>
<event>
 7    1  0.5441610E-013  0.5052886E+02  0.7816164E-02  0.1300439E+00
        -11   -1    0    0    0    0  0.00000000000E+00  0.00000000000E+00  0.45593999997E+02  0.45594000000E+02  0.51100000000E-03 0. -1.
         11   -1    0    0    0    0 -0.00000000000E+00 -0.00000000000E+00 -0.45593999997E+02  0.45594000000E+02  0.51100000000E-03 0.  1.
    9900012    2    1    2    0    0 -0.33387137575E+02 -0.23202667335E+02  0.31812730292E+00  0.50528856725E+02  0.29999990500E+02 0.  0.
        -12    1    1    2    0    0  0.33387137575E+02  0.23202667335E+02 -0.31812730292E+00  0.40659143275E+02  0.00000000000E+00 0.  1.
         11    1    3    3    0    0 -0.32751768685E+01  0.27896278933E+01  0.15303859113E+01  0.45662773242E+01  0.51100000000E-03 0. -1.
        -11    1    3    3    0    0  0.23438637796E+00 -0.12444538737E+02 -0.25385106175E+01  0.12702972793E+02  0.51100000000E-03 0.  1.
         12    1    3    3    0    0 -0.30346347084E+02 -0.13547756491E+02  0.13262520091E+01  0.33259606608E+02  0.00000000000E+00 0. -1.
</event>
<event>
 7    1  0.5441610E-013  0.5052887E+02  0.7816164E-02  0.1300439E+00
        -11   -1    0    0    0    0  0.00000000000E+00  0.00000000000E+00  0.45593999997E+02  0.45594000000E+02  0.51100000000E-03 0.  1.
         11   -1    0    0    0    0 -0.00000000000E+00 -0.00000000000E+00 -0.45593999997E+02  0.45594000000E+02  0.51100000000E-03 0. -1.
    9900012    2    1    2    0    0  0.13437324884E+02  0.37916429704E+02 -0.59116713845E+01  0.50528865724E+02  0.30000017854E+02 0.  0.
        -12    1    1    2    0    0 -0.13437324884E+02 -0.37916429704E+02  0.59116713845E+01  0.40659134276E+02  0.00000000000E+00 0.  1.
         11    1    3    3    0    0  0.25608210906E+01  0.28377814937E+02  0.83951347924E+00  0.28505490145E+02  0.51100000000E-03 0. -1.
        -11    1    3    3    0    0  0.80716156820E+01  0.13287229333E+02 -0.75348061937E+01  0.17276421727E+02  0.51100000000E-03 0.  1.
        -12    1    3    3    0    0  0.28048881113E+01 -0.37486145657E+01  0.78362133000E+00  0.47469538515E+01  0.00000000000E+00 0.  1.
</event>
<event>
 7    1  0.8333565E-013  0.5052884E+02  0.7816164E-02  0.1300439E+00
        -11   -1    0    0    0    0  0.00000000000E+00  0.00000000000E+00  0.45593999997E+02  0.45594000000E+02  0.51100000000E-03 0. -1.
         11   -1    0    0    0    0 -0.00000000000E+00 -0.00000000000E+00 -0.45593999997E+02  0.45594000000E+02  0.51100000000E-03 0.  1.
    9900012    2    1    2    0    0 -0.21167843935E+01 -0.15173959119E+02  0.37662149887E+02  0.50528839340E+02  0.29999937657E+02 0.  0.
        -12    1    1    2    0    0  0.21167843935E+01  0.15173959119E+02 -0.37662149887E+02  0.40659160660E+02  0.00000000000E+00 0.  1.
         11    1    3    3    0    0 -0.42314049736E+01 -0.92688777717E+01  0.14004185971E+02  0.17318605838E+02  0.51100000000E-03 0. -1.
        -11    1    3    3    0    0  0.22747927265E+01 -0.35753938901E+01  0.27979249864E+02  0.28298348832E+02  0.51100000000E-03 0.  1.
        -12    1    3    3    0    0 -0.16017214638E+00 -0.23296874576E+01 -0.43212859480E+01  0.49118846700E+01  0.00000000000E+00 0.  1.
</event>
<event>
 7    1  0.5441610E-013  0.5052886E+02  0.7816164E-02  0.1300439E+00
        -11   -1    0    0    0    0  0.00000000000E+00  0.00000000000E+00  0.45593999997E+02  0.45594000000E+02  0.51100000000E-03 0.  1.
         11   -1    0    0    0    0 -0.00000000000E+00 -0.00000000000E+00 -0.45593999997E+02  0.45594000000E+02  0.51100000000E-03 0. -1.
    9900012    2    1    2    0    0 -0.12091854734E+02  0.22670134438E+02 -0.31512179038E+02  0.50528863584E+02  0.30000011350E+02 0.  0.
        -12    1    1    2    0    0  0.12091854734E+02 -0.22670134438E+02  0.31512179038E+02  0.40659136416E+02  0.00000000000E+00 0.  1.
         11    1    3    3    0    0 -0.19003194766E+01  0.20574973935E+02 -0.13101993207E+02  0.24466364519E+02  0.51100000000E-03 0. -1.
        -11    1    3    3    0    0 -0.14161183407E+02  0.50187732142E+00 -0.14089876057E+02  0.19982882772E+02  0.51100000000E-03 0.  1.
         12    1    3    3    0    0  0.39696481488E+01  0.15932831823E+01 -0.43203097733E+01  0.60796162923E+01  0.00000000000E+00 0. -1.
</event>
<event>
 7    1  0.5441610E-013  0.5052885E+02  0.7816164E-02  0.1300439E+00
        -11   -1    0    0    0    0  0.00000000000E+00  0.00000000000E+00  0.45593999997E+02  0.45594000000E+02  0.51100000000E-03 0.  1.
         11   -1    0    0    0    0 -0.00000000000E+00 -0.00000000000E+00 -0.45593999997E+02  0.45594000000E+02  0.51100000000E-03 0. -1.
    9900012    2    1    2    0    0  0.14701225383E+01 -0.30379813938E+02 -0.26982813623E+02  0.50528848678E+02  0.29999966043E+02 0.  0.
        -12    1    1    2    0    0 -0.14701225383E+01  0.30379813938E+02  0.26982813623E+02  0.40659151322E+02  0.00000000000E+00 0.  1.
         11    1    3    3    0    0  0.18062432878E+01 -0.12403713897E+02 -0.21532472913E+02  0.24915096293E+02  0.51100000000E-03 0. -1.
        -11    1    3    3    0    0 -0.33723333333E+01 -0.20226162093E+02 -0.67960445174E+01  0.21602233368E+02  0.51100000000E-03 0.  1.
         12    1    3    3    0    0  0.30362125838E+01  0.22500620518E+01  0.13457038081E+01  0.40115190178E+01  0.00000000000E+00 0. -1.
</event>
<event>
 7    1  0.5441610E-013  0.5052886E+02  0.7816164E-02  0.1300439E+00
        -11   -1    0    0    0    0  0.00000000000E+00  0.00000000000E+00  0.45593999997E+02  0.45594000000E+02  0.51100000000E-03 0.  1.
         11   -1    0    0    0    0 -0.00000000000E+00 -0.00000000000E+00 -0.45593999997E+02  0.45594000000E+02  0.51100000000E-03 0. -1.
    9900012    2    1    2    0    0 -0.12890128308E+02 -0.54790208875E+01 -0.38170544029E+02  0.50528861923E+02  0.30000006302E+02 0.  0.
        -12    1    1    2    0    0  0.12890128308E+02  0.54790208875E+01  0.38170544029E+02  0.40659138077E+02  0.00000000000E+00 0.  1.
         11    1    3    3    0    0 -0.15329367278E+01  0.59700713729E+00 -0.15233505897E+02  0.15322076057E+02  0.51100000000E-03 0. -1.
        -11    1    3    3    0    0  0.49608007633E+01 -0.80500639571E+01 -0.12732874862E+02  0.15859986646E+02  0.51100000000E-03 0.  1.
        -12    1    3    3    0    0 -0.16317992344E+02  0.19740359323E+01 -0.10204163270E+02  0.19346799220E+02  0.00000000000E+00 0.  1.
</event>
<event>
 7    1  0.9599712E-013  0.5052886E+02  0.7816164E-02  0.1300439E+00
        -11   -1    0    0    0    0  0.00000000000E+00  0.00000000000E+00  0.45593999997E+02  0.45594000000E+02  0.51100000000E-03 0.  1.
         11   -1    0    0    0    0 -0.00000000000E+00 -0.00000000000E+00 -0.45593999997E+02  0.45594000000E+02  0.51100000000E-03 0. -1.
    9900012    2    1    2    0    0  0.34279916782E+02  0.21864134206E+02  0.11353635613E+00  0.50528856506E+02  0.29999989836E+02 0.  0.
        -12    1    1    2    0    0 -0.34279916782E+02 -0.21864134206E+02 -0.11353635613E+00  0.40659143494E+02  0.00000000000E+00 0.  1.
         11    1    3    3    0    0  0.13999165851E+02  0.11670788836E+02  0.39796379145E+01  0.18655333682E+02  0.51100000000E-03 0. -1.
        -11    1    3    3    0    0  0.83627569140E+01  0.15839390166E+02 -0.51129462609E+01  0.18626975164E+02  0.51100000000E-03 0.  1.
        -12    1    3    3    0    0  0.11917994017E+02 -0.56460447953E+01  0.12468447025E+01  0.13246547661E+02  0.00000000000E+00 0.  1.
</event>
<event>
 7    1  0.5441610E-013  0.5052885E+02  0.7816164E-02  0.1300439E+00
        -11   -1    0    0    0    0  0.00000000000E+00  0.00000000000E+00  0.45593999997E+02  0.45594000000E+02  0.51100000000E-03 0.  1.
         11   -1    0    0    0    0 -0.00000000000E+00 -0.00000000000E+00 -0.45593999997E+02  0.45594000000E+02  0.51100000000E-03 0. -1.
    9900012    2    1    2    0    0  0.21390688620E+02  0.27879298219E+02 -0.20453588151E+02  0.50528854693E+02  0.29999984325E+02 0.  0.
        -12    1    1    2    0    0 -0.21390688620E+02 -0.27879298219E+02  0.20453588151E+02  0.40659145307E+02  0.00000000000E+00 0.  1.
         11    1    3    3    0    0 -0.26461255205E+01  0.58512805957E+01 -0.19024058238E+01  0.66976572815E+01  0.51100000000E-03 0. -1.
        -11    1    3    3    0    0  0.13027832936E+02  0.22261457603E+02 -0.48362947801E+01  0.26242840416E+02  0.51100000000E-03 0.  1.
        -12    1    3    3    0    0  0.11008981205E+02 -0.23343997924E+00 -0.13714887547E+02  0.17588356996E+02  0.00000000000E+00 0.  1.
</event>
<event>
 7    1  0.5441610E-013  0.5052886E+02  0.7816164E-02  0.1300439E+00
        -11   -1    0    0    0    0  0.00000000000E+00  0.00000000000E+00  0.45593999997E+02  0.45594000000E+02  0.51100000000E-03 0.  1.
         11   -1    0    0    0    0 -0.00000000000E+00 -0.00000000000E+00 -0.45593999997E+02  0.45594000000E+02  0.51100000000E-03 0. -1.
    9900012    2    1    2    0    0 -0.35743463339E+02 -0.52298157572E+00 -0.19372590401E+02  0.50528856624E+02  0.29999990195E+02 0.  0.
        -12    1    1    2    0    0  0.35743463339E+02  0.52298157572E+00  0.19372590401E+02  0.40659143376E+02  0.00000000000E+00 0.  1.
         11    1    3    3    0    0 -0.26411788023E+02 -0.36930221079E+00 -0.10660537912E+02  0.28484486998E+02  0.51100000000E-03 0. -1.
        -11    1    3    3    0    0 -0.26234946524E+01  0.72416393422E+01  0.14058979268E+01  0.78294708503E+01  0.51100000000E-03 0.  1.
         12    1    3    3    0    0 -0.67081806633E+01 -0.73953187071E+01 -0.10117950416E+02  0.14214898776E+02  0.00000000000E+00 0. -1.
</event>
<event>
 7    1  0.5441610E-013  0.5052884E+02  0.7816164E-02  0.1300439E+00
        -11   -1    0    0    0    0  0.00000000000E+00  0.00000000000E+00  0.45593999997E+02  0.45594000000E+02  0.51100000000E-03 0.  1.
         11   -1    0    0    0    0 -0.00000000000E+00 -0.00000000000E+00 -0.45593999997E+02  0.45594000000E+02  0.51100000000E-03 0. -1.
    9900012    2    1    2    0    0 -0.73307030290E+01  0.39948723696E+02 -0.18781201793E+01  0.50528842763E+02  0.29999948063E+02 0.  0.
        -12    1    1    2    0    0  0.73307030290E+01 -0.39948723696E+02  0.18781201793E+01  0.40659157237E+02  0.00000000000E+00 0.  1.
         11    1    3    3    0    0  0.89134336141E+00  0.18421842538E+02  0.10968757326E+01  0.18475982034E+02  0.51100000000E-03 0. -1.
        -11    1    3    3    0    0 -0.10506271352E+02  0.18033165435E+02  0.63675423412E+01  0.21820228896E+02  0.51100000000E-03 0.  1.
        -12    1    3    3    0    0  0.22842249619E+01  0.34937157224E+01 -0.93425382531E+01  0.10232631833E+02  0.00000000000E+00 0.  1.
</event>
<event>
 7    1  0.5441610E-013  0.5052885E+02  0.7816164E-02  0.1300439E+00
        -11   -1    0    0    0    0  0.00000000000E+00  0.00000000000E+00  0.45593999997E+02  0.45594000000E+02  0.51100000000E-03 0. -1.
         11   -1    0    0    0    0 -0.00000000000E+00 -0.00000000000E+00 -0.45593999997E+02  0.45594000000E+02  0.51100000000E-03 0.  1.
    9900012    2    1    2    0    0 -0.33564430728E+02  0.22689751497E+02 -0.34308753624E+01  0.50528846801E+02  0.29999960336E+02 0.  0.
        -12    1    1    2    0    0  0.33564430728E+02 -0.22689751497E+02  0.34308753624E+01  0.40659153199E+02  0.00000000000E+00 0.  1.
         11    1    3    3    0    0 -0.20330126755E+02  0.17156485213E+02  0.77671890067E+01  0.27712601178E+02  0.51100000000E-03 0. -1.
        -11    1    3    3    0    0 -0.21106788365E+01 -0.40329562693E+01 -0.34113516838E+00  0.45646549579E+01  0.51100000000E-03 0.  1.
        -12    1    3    3    0    0 -0.11123625137E+02  0.95662225531E+01 -0.10856929201E+02  0.18251590665E+02  0.00000000000E+00 0.  1.
</event>
<event>
 7    1  0.5441610E-013  0.5052886E+02  0.7816164E-02  0.1300439E+00
        -11   -1    0    0    0    0  0.00000000000E+00  0.00000000000E+00  0.45593999997E+02  0.45594000000E+02  0.51100000000E-03 0.  1.
         11   -1    0    0    0    0 -0.00000000000E+00 -0.00000000000E+00 -0.45593999997E+02  0.45594000000E+02  0.51100000000E-03 0. -1.
    9900012    2    1    2    0    0  0.21299193187E+02 -0.23957644764E+02 -0.25010830051E+02  0.50528855974E+02  0.29999988218E+02 0.  0.
        -12    1    1    2    0    0 -0.21299193187E+02  0.23957644764E+02  0.25010830051E+02  0.40659144026E+02  0.00000000000E+00 0.  1.
         11    1    3    3    0    0  0.17145836290E+02 -0.19920842854E+02 -0.17010462611E+02  0.31307754959E+02  0.51100000000E-03 0. -1.
        -11    1    3    3    0    0  0.84120178688E+01  0.17750896192E+01 -0.83803028580E+01  0.12005934534E+02  0.51100000000E-03 0.  1.
        -12    1    3    3    0    0 -0.42586609710E+01 -0.58118915297E+01  0.37993541812E+00  0.72151664805E+01  0.00000000000E+00 0.  1.
</event>
<event>
 7    1  0.5441610E-013  0.5052885E+02  0.7816164E-02  0.1300439E+00
        -11   -1    0    0    0    0  0.00000000000E+00  0.00000000000E+00  0.45593999997E+02  0.45594000000E+02  0.51100000000E-03 0. -1.
         11   -1    0    0    0    0 -0.00000000000E+00 -0.00000000000E+00 -0.45593999997E+02  0.45594000000E+02  0.51100000000E-03 0.  1.
    9900012    2    1    2    0    0  0.94613748134E+01 -0.33983927362E+02  0.20217353595E+02  0.50528851968E+02  0.29999976041E+02 0.  0.
        -12    1    1    2    0    0 -0.94613748134E+01  0.33983927362E+02 -0.20217353595E+02  0.40659148032E+02  0.00000000000E+00 0.  1.
         11    1    3    3    0    0 -0.82703863937E+01 -0.51081526121E+01  0.24247454176E+00  0.97237497075E+01  0.51100000000E-03 0.  1.
        -11    1    3    3    0    0  0.24018624919E+01 -0.12186186961E+02  0.10415772178E+02  0.16209886070E+02  0.51100000000E-03 0. -1.
        -12    1    3    3    0    0  0.15329898715E+02 -0.16689587790E+02  0.95591068756E+01  0.24595216191E+02  0.00000000000E+00 0.  1.
</event>
<event>
 7    1  0.5441610E-013  0.5052886E+02  0.7816164E-02  0.1300439E+00
        -11   -1    0    0    0    0  0.00000000000E+00  0.00000000000E+00  0.45593999997E+02  0.45594000000E+02  0.51100000000E-03 0.  1.
         11   -1    0    0    0    0 -0.00000000000E+00 -0.00000000000E+00 -0.45593999997E+02  0.45594000000E+02  0.51100000000E-03 0. -1.
    9900012    2    1    2    0    0  0.32147920467E+02 -0.16338987488E+01 -0.24839637841E+02  0.50528855597E+02  0.29999987074E+02 0.  0.
        -12    1    1    2    0    0 -0.32147920467E+02  0.16338987488E+01  0.24839637841E+02  0.40659144403E+02  0.00000000000E+00 0.  1.
         11    1    3    3    0    0  0.23657075940E+02 -0.10191907923E+02 -0.10825680015E+02  0.27941502772E+02  0.51100000000E-03 0. -1.
        -11    1    3    3    0    0  0.11233370996E+02  0.78535561666E+01 -0.14217456274E+02  0.19748494412E+02  0.51100000000E-03 0.  1.
        -12    1    3    3    0    0 -0.27425264681E+01  0.70445300788E+00  0.20349844845E+00  0.28388584126E+01  0.00000000000E+00 0.  1.
</event>
<event>
 7    1  0.5441610E-013  0.5052886E+02  0.7816164E-02  0.1300439E+00
        -11   -1    0    0    0    0  0.00000000000E+00  0.00000000000E+00  0.45593999997E+02  0.45594000000E+02  0.51100000000E-03 0.  1.
         11   -1    0    0    0    0 -0.00000000000E+00 -0.00000000000E+00 -0.45593999997E+02  0.45594000000E+02  0.51100000000E-03 0. -1.
    9900012    2    1    2    0    0  0.37374542198E+01 -0.23160325059E+02 -0.33208384763E+02  0.50528855401E+02  0.29999986478E+02 0.  0.
        -12    1    1    2    0    0 -0.37374542198E+01  0.23160325059E+02  0.33208384763E+02  0.40659144599E+02  0.00000000000E+00 0.  1.
         11    1    3    3    0    0  0.20159682180E+01 -0.60549690111E+01 -0.23397202388E+02  0.24251924819E+02  0.51100000000E-03 0. -1.
        -11    1    3    3    0    0  0.93551485259E+01 -0.80818895730E+01 -0.33576086000E+01  0.12810514384E+02  0.51100000000E-03 0.  1.
        -12    1    3    3    0    0 -0.76336625242E+01 -0.90234664750E+01 -0.64535737757E+01  0.13466416199E+02  0.00000000000E+00 0.  1.
</event>
<event>
 7    1  0.5441610E-013  0.5052884E+02  0.7816164E-02  0.1300439E+00
        -11   -1    0    0    0    0  0.00000000000E+00  0.00000000000E+00  0.45593999997E+02  0.45594000000E+02  0.51100000000E-03 0.  1.
         11   -1    0    0    0    0 -0.00000000000E+00 -0.00000000000E+00 -0.45593999997E+02  0.45594000000E+02  0.51100000000E-03 0. -1.
    9900012    2    1    2    0    0  0.17628995894E+02  0.60677831021E+01 -0.36132641897E+02  0.50528839920E+02  0.29999939420E+02 0.  0.
        -12    1    1    2    0    0 -0.17628995894E+02 -0.60677831021E+01  0.36132641897E+02  0.40659160080E+02  0.00000000000E+00 0.  1.
         11    1    3    3    0    0  0.15439285452E+02  0.11059416167E+02 -0.27265301386E+02  0.33227682453E+02  0.51100000000E-03 0. -1.
        -11    1    3    3    0    0  0.72521961838E+01 -0.76486160781E+00 -0.15592587896E+01  0.74572549240E+01  0.51100000000E-03 0.  1.
        -12    1    3    3    0    0 -0.50624857420E+01 -0.42267714574E+01 -0.73080817207E+01  0.98439025430E+01  0.00000000000E+00 0.  1.
</event>
<event>
 7    1  0.5441610E-013  0.5052886E+02  0.7816164E-02  0.1300439E+00
        -11   -1    0    0    0    0  0.00000000000E+00  0.00000000000E+00  0.45593999997E+02  0.45594000000E+02  0.51100000000E-03 0. -1.
         11   -1    0    0    0    0 -0.00000000000E+00 -0.00000000000E+00 -0.45593999997E+02  0.45594000000E+02  0.51100000000E-03 0.  1.
    9900012    2    1    2    0    0 -0.16518825316E+02  0.36859517032E+02  0.46551302720E+01  0.50528858057E+02  0.29999994551E+02 0.  0.
        -12    1    1    2    0    0  0.16518825316E+02 -0.36859517032E+02 -0.46551302720E+01  0.40659141943E+02  0.00000000000E+00 0.  1.
         11    1    3    3    0    0 -0.72916325224E+01  0.14286317141E+01  0.31404819383E+01  0.80666920408E+01  0.51100000000E-03 0. -1.
        -11    1    3    3    0    0 -0.13159608090E+02  0.99915283402E+01 -0.12638002441E+01  0.16571153097E+02  0.51100000000E-03 0.  1.
        -12    1    3    3    0    0  0.39324152958E+01  0.25439356978E+02  0.27784485778E+01  0.25891012920E+02  0.00000000000E+00 0.  1.
</event>
<event>
 7    1  0.5441610E-013  0.5052886E+02  0.7816164E-02  0.1300439E+00
        -11   -1    0    0    0    0  0.00000000000E+00  0.00000000000E+00  0.45593999997E+02  0.45594000000E+02  0.51100000000E-03 0. -1.
         11   -1    0    0    0    0 -0.00000000000E+00 -0.00000000000E+00 -0.45593999997E+02  0.45594000000E+02  0.51100000000E-03 0.  1.
    9900012    2    1    2    0    0  0.40167118194E+01  0.34070882828E+02 -0.21822154282E+02  0.50528862675E+02  0.30000008586E+02 0.  0.
        -12    1    1    2    0    0 -0.40167118194E+01 -0.34070882828E+02  0.21822154282E+02  0.40659137325E+02  0.00000000000E+00 0.  1.
         11    1    3    3    0    0  0.60676281915E+01  0.90274146881E+01 -0.12558976117E+02  0.16614397647E+02  0.51100000000E-03 0.  1.
        -11    1    3    3    0    0 -0.84607707139E+01  0.21882517102E+02 -0.11887512959E+02  0.26300991624E+02  0.51100000000E-03 0. -1.
         12    1    3    3    0    0  0.64098543419E+01  0.31609510380E+01  0.26243347943E+01  0.76134734032E+01  0.00000000000E+00 0. -1.
</event>
<event>
 7    1  0.5441610E-013  0.5052886E+02  0.7816164E-02  0.1300439E+00
        -11   -1    0    0    0    0  0.00000000000E+00  0.00000000000E+00  0.45593999997E+02  0.45594000000E+02  0.51100000000E-03 0.  1.
         11   -1    0    0    0    0 -0.00000000000E+00 -0.00000000000E+00 -0.45593999997E+02  0.45594000000E+02  0.51100000000E-03 0. -1.
    9900012    2    1    2    0    0 -0.30188491905E+02  0.49157351032E+01 -0.26789100204E+02  0.50528863452E+02  0.30000010948E+02 0.  0.
        -12    1    1    2    0    0  0.30188491905E+02 -0.49157351032E+01  0.26789100204E+02  0.40659136548E+02  0.00000000000E+00 0.  1.
         11    1    3    3    0    0 -0.92692563438E+01  0.41593132928E+01 -0.13005252132E+02  0.16503199191E+02  0.51100000000E-03 0. -1.
        -11    1    3    3    0    0 -0.10740144944E+02  0.10122918587E+02 -0.13781484979E+02  0.20192907730E+02  0.51100000000E-03 0.  1.
        -12    1    3    3    0    0 -0.10179090618E+02 -0.93664967763E+01 -0.23630928363E-02  0.13832756531E+02  0.00000000000E+00 0.  1.
</event>
<event>
 7    1  0.5441610E-013  0.5052886E+02  0.7816164E-02  0.1300439E+00
        -11   -1    0    0    0    0  0.00000000000E+00  0.00000000000E+00  0.45593999997E+02  0.45594000000E+02  0.51100000000E-03 0.  1.
         11   -1    0    0    0    0 -0.00000000000E+00 -0.00000000000E+00 -0.45593999997E+02  0.45594000000E+02  0.51100000000E-03 0. -1.
    9900012    2    1    2    0    0  0.18009518547E+02 -0.30091945427E+02 -0.20574193854E+02  0.50528863381E+02  0.30000010733E+02 0.  0.
        -12    1    1    2    0    0 -0.18009518547E+02  0.30091945427E+02  0.20574193854E+02  0.40659136619E+02  0.00000000000E+00 0.  1.
         11    1    3    3    0    0  0.59511603002E+01 -0.10077972526E+02 -0.72665562421E+01  0.13776236026E+02  0.51100000000E-03 0.  1.
        -11    1    3    3    0    0  0.16050435067E+02 -0.23301375532E+02 -0.13941303874E+02  0.31542519264E+02  0.51100000000E-03 0. -1.
        -12    1    3    3    0    0 -0.39920768198E+01  0.32874026315E+01  0.63366626203E+00  0.52101080918E+01  0.00000000000E+00 0.  1.
</event>
<event>
 7    1  0.5441610E-013  0.5052887E+02  0.7816164E-02  0.1300439E+00
        -11   -1    0    0    0    0  0.00000000000E+00  0.00000000000E+00  0.45593999997E+02  0.45594000000E+02  0.51100000000E-03 0.  1.
         11   -1    0    0    0    0 -0.00000000000E+00 -0.00000000000E+00 -0.45593999997E+02  0.45594000000E+02  0.51100000000E-03 0. -1.
    9900012    2    1    2    0    0  0.11820065169E+02 -0.35475508617E+02 -0.15966822770E+02  0.50528867181E+02  0.30000022283E+02 0.  0.
        -12    1    1    2    0    0 -0.11820065169E+02  0.35475508617E+02  0.15966822770E+02  0.40659132819E+02  0.00000000000E+00 0.  1.
         11    1    3    3    0    0  0.71513208987E+01 -0.13871190517E+02 -0.17031785764E+02  0.23100498772E+02  0.51100000000E-03 0. -1.
        -11    1    3    3    0    0 -0.44353682853E+01 -0.22663980778E+01 -0.27909817943E+01  0.57095211454E+01  0.51100000000E-03 0.  1.
         12    1    3    3    0    0  0.91041125560E+01 -0.19337920022E+02  0.38559447883E+01  0.21718847263E+02  0.00000000000E+00 0. -1.
</event>
<event>
 7    1  0.5441610E-013  0.5052886E+02  0.7816164E-02  0.1300439E+00
        -11   -1    0    0    0    0  0.00000000000E+00  0.00000000000E+00  0.45593999997E+02  0.45594000000E+02  0.51100000000E-03 0. -1.
         11   -1    0    0    0    0 -0.00000000000E+00 -0.00000000000E+00 -0.45593999997E+02  0.45594000000E+02  0.51100000000E-03 0.  1.
    9900012    2    1    2    0    0  0.27632112378E+02  0.13634173840E+02  0.26528118584E+02  0.50528863187E+02  0.30000010142E+02 0.  0.
        -12    1    1    2    0    0 -0.27632112378E+02 -0.13634173840E+02 -0.26528118584E+02  0.40659136813E+02  0.00000000000E+00 0.  1.
         11    1    3    3    0    0  0.25330417132E+02 -0.30628880477E+00  0.14531844225E+02  0.29204423326E+02  0.51100000000E-03 0. -1.
        -11    1    3    3    0    0 -0.77721053661E+00 -0.92492908215E+00  0.39753092656E+01  0.41548326132E+01  0.51100000000E-03 0.  1.
        -12    1    3    3    0    0  0.30789057822E+01  0.14865391727E+02  0.80209650932E+01  0.17169607248E+02  0.00000000000E+00 0.  1.
</event>
<event>
 7    1  0.5441610E-013  0.5052886E+02  0.7816164E-02  0.1300439E+00
        -11   -1    0    0    0    0  0.00000000000E+00  0.00000000000E+00  0.45593999997E+02  0.45594000000E+02  0.51100000000E-03 0.  1.
         11   -1    0    0    0    0 -0.00000000000E+00 -0.00000000000E+00 -0.45593999997E+02  0.45594000000E+02  0.51100000000E-03 0. -1.
    9900012    2    1    2    0    0 -0.33260986948E+02 -0.21820436801E+02 -0.84107604513E+01  0.50528860728E+02  0.30000002669E+02 0.  0.
        -12    1    1    2    0    0  0.33260986948E+02  0.21820436801E+02  0.84107604513E+01  0.40659139272E+02  0.00000000000E+00 0.  1.
         11    1    3    3    0    0 -0.10558802476E+02 -0.14198235565E+02 -0.13586447678E+02  0.22308513255E+02  0.51100000000E-03 0.  1.
        -11    1    3    3    0    0 -0.10865216283E+02 -0.10953361064E+02  0.33663909471E+01  0.15791188421E+02  0.51100000000E-03 0. -1.
        -12    1    3    3    0    0 -0.11836968189E+02  0.33311598281E+01  0.18092962795E+01  0.12429159052E+02  0.00000000000E+00 0.  1.
</event>
<event>
 7    1  0.5441610E-013  0.5052881E+02  0.7816164E-02  0.1300439E+00
        -11   -1    0    0    0    0  0.00000000000E+00  0.00000000000E+00  0.45593999997E+02  0.45594000000E+02  0.51100000000E-03 0.  1.
         11   -1    0    0    0    0 -0.00000000000E+00 -0.00000000000E+00 -0.45593999997E+02  0.45594000000E+02  0.51100000000E-03 0. -1.
    9900012    2    1    2    0    0  0.35332379859E+02  0.90705716034E+01  0.17958770753E+02  0.50528809370E+02  0.29999846561E+02 0.  0.
        -12    1    1    2    0    0 -0.35332379859E+02 -0.90705716034E+01 -0.17958770753E+02  0.40659190630E+02  0.00000000000E+00 0.  1.
         11    1    3    3    0    0  0.12893300708E+01 -0.89209984601E+00 -0.15269713989E+01  0.21885739834E+01  0.51100000000E-03 0. -1.
        -11    1    3    3    0    0  0.36462623342E+02  0.26982950927E+01  0.16654572935E+02  0.40176840310E+02  0.51100000000E-03 0.  1.
        -12    1    3    3    0    0 -0.24195735543E+01  0.72643763568E+01  0.28311692177E+01  0.81633950766E+01  0.00000000000E+00 0.  1.
</event>
<event>
 7    1  0.5441610E-013  0.5052886E+02  0.7816164E-02  0.1300439E+00
        -11   -1    0    0    0    0  0.00000000000E+00  0.00000000000E+00  0.45593999997E+02  0.45594000000E+02  0.51100000000E-03 0. -1.
         11   -1    0    0    0    0 -0.00000000000E+00 -0.00000000000E+00 -0.45593999997E+02  0.45594000000E+02  0.51100000000E-03 0.  1.
    9900012    2    1    2    0    0 -0.56300539742E+00  0.38660811042E+02  0.12577388718E+02  0.50528855980E+02  0.29999988236E+02 0.  0.
        -12    1    1    2    0    0  0.56300539742E+00 -0.38660811042E+02 -0.12577388718E+02  0.40659144020E+02  0.00000000000E+00 0.  1.
         11    1    3    3    0    0 -0.58874932857E+00  0.23651605215E+01 -0.31999412132E+01  0.40224661706E+01  0.51100000000E-03 0.  1.
        -11    1    3    3    0    0  0.80238857024E+01  0.24399981523E+01  0.61845871967E+01  0.10420434339E+02  0.51100000000E-03 0. -1.
         12    1    3    3    0    0 -0.79981417713E+01  0.33855652368E+02  0.95927427350E+01  0.36085955471E+02  0.00000000000E+00 0. -1.
</event>
<event>
 7    1  0.5441610E-013  0.5052885E+02  0.7816164E-02  0.1300439E+00
        -11   -1    0    0    0    0  0.00000000000E+00  0.00000000000E+00  0.45593999997E+02  0.45594000000E+02  0.51100000000E-03 0. -1.
         11   -1    0    0    0    0 -0.00000000000E+00 -0.00000000000E+00 -0.45593999997E+02  0.45594000000E+02  0.51100000000E-03 0.  1.
    9900012    2    1    2    0    0  0.33076469429E+02 -0.37018489915E+01  0.23354022427E+02  0.50528845073E+02  0.29999955084E+02 0.  0.
        -12    1    1    2    0    0 -0.33076469429E+02  0.37018489915E+01 -0.23354022427E+02  0.40659154927E+02  0.00000000000E+00 0.  1.
         11    1    3    3    0    0  0.37166712701E+00  0.32248159550E+01  0.35090039170E+01  0.47802388170E+01  0.51100000000E-03 0. -1.
        -11    1    3    3    0    0  0.17196880785E+02 -0.12914873380E+02  0.19637879234E+02  0.29123409213E+02  0.51100000000E-03 0.  1.
         12    1    3    3    0    0  0.15507921517E+02  0.59882084331E+01  0.20713927567E+00  0.16625197043E+02  0.00000000000E+00 0. -1.
</event>
<event>
 7    1  0.5441610E-013  0.5052886E+02  0.7816164E-02  0.1300439E+00
        -11   -1    0    0    0    0  0.00000000000E+00  0.00000000000E+00  0.45593999997E+02  0.45594000000E+02  0.51100000000E-03 0.  1.
         11   -1    0    0    0    0 -0.00000000000E+00 -0.00000000000E+00 -0.45593999997E+02  0.45594000000E+02  0.51100000000E-03 0. -1.
    9900012    2    1    2    0    0  0.36177033033E+02  0.89861960896E+01 -0.16236873102E+02  0.50528862191E+02  0.30000007115E+02 0.  0.
        -12    1    1    2    0    0 -0.36177033033E+02 -0.89861960896E+01  0.16236873102E+02  0.40659137809E+02  0.00000000000E+00 0.  1.
         11    1    3    3    0    0  0.14177115277E+02  0.29179264351E+01  0.51819047802E+01  0.15373907430E+02  0.51100000000E-03 0. -1.
        -11    1    3    3    0    0  0.21559456559E+02  0.62679663694E+01 -0.11502830470E+02  0.25227220984E+02  0.51100000000E-03 0.  1.
        -12    1    3    3    0    0  0.44046119757E+00 -0.19969671495E+00 -0.99159474124E+01  0.99277337761E+01  0.00000000000E+00 0.  1.
</event>
<event>
 7    1  0.5441610E-013  0.5052884E+02  0.7816164E-02  0.1300439E+00
        -11   -1    0    0    0    0  0.00000000000E+00  0.00000000000E+00  0.45593999997E+02  0.45594000000E+02  0.51100000000E-03 0. -1.
         11   -1    0    0    0    0 -0.00000000000E+00 -0.00000000000E+00 -0.45593999997E+02  0.45594000000E+02  0.51100000000E-03 0.  1.
    9900012    2    1    2    0    0  0.39626441691E+02 -0.91051805090E+01 -0.91262172943E-01  0.50528837171E+02  0.29999931064E+02 0.  0.
        -12    1    1    2    0    0 -0.39626441691E+02  0.91051805090E+01  0.91262172943E-01  0.40659162829E+02  0.00000000000E+00 0.  1.
         11    1    3    3    0    0  0.13680098553E+02 -0.49260733291E+01 -0.49740304804E+01  0.15367246804E+02  0.51100000000E-03 0. -1.
        -11    1    3    3    0    0  0.86473505940E+01 -0.12739061987E+02  0.70055310480E+00  0.15412694363E+02  0.51100000000E-03 0.  1.
         12    1    3    3    0    0  0.17298992545E+02  0.85599548075E+01  0.41822152027E+01  0.19748896004E+02  0.00000000000E+00 0. -1.
</event>
<event>
 7    1  0.5441610E-013  0.5052888E+02  0.7816164E-02  0.1300439E+00
        -11   -1    0    0    0    0  0.00000000000E+00  0.00000000000E+00  0.45593999997E+02  0.45594000000E+02  0.51100000000E-03 0. -1.
         11   -1    0    0    0    0 -0.00000000000E+00 -0.00000000000E+00 -0.45593999997E+02  0.45594000000E+02  0.51100000000E-03 0.  1.
    9900012    2    1    2    0    0  0.40112048480E+02  0.38918553743E+01 -0.53889768253E+01  0.50528879956E+02  0.30000061115E+02 0.  0.
        -12    1    1    2    0    0 -0.40112048480E+02 -0.38918553743E+01  0.53889768253E+01  0.40659120044E+02  0.00000000000E+00 0.  1.
         11    1    3    3    0    0  0.18387720406E+02 -0.34260384408E+01 -0.85636747153E+01  0.20571400682E+02  0.51100000000E-03 0. -1.
        -11    1    3    3    0    0  0.15870999222E+02 -0.43533768795E+01  0.37833137390E+01  0.16886502588E+02  0.51100000000E-03 0.  1.
        -12    1    3    3    0    0  0.58533288526E+01  0.11671270695E+02 -0.60861584902E+00  0.13070976686E+02  0.00000000000E+00 0.  1.
</event>
<event>
 7    1  0.5441610E-013  0.5052886E+02  0.7816164E-02  0.1300439E+00
        -11   -1    0    0    0    0  0.00000000000E+00  0.00000000000E+00  0.45593999997E+02  0.45594000000E+02  0.51100000000E-03 0.  1.
         11   -1    0    0    0    0 -0.00000000000E+00 -0.00000000000E+00 -0.45593999997E+02  0.45594000000E+02  0.51100000000E-03 0. -1.
    9900012    2    1    2    0    0 -0.15827593596E+02 -0.36683701497E+02 -0.75471060863E+01  0.50528862222E+02  0.30000007211E+02 0.  0.
        -12    1    1    2    0    0  0.15827593596E+02  0.36683701497E+02  0.75471060863E+01  0.40659137778E+02  0.00000000000E+00 0.  1.
         11    1    3    3    0    0  0.13962557086E+01  0.48151695945E+00  0.15559689606E+01  0.21453270738E+01  0.51100000000E-03 0.  1.
        -11    1    3    3    0    0 -0.50489668968E+01  0.23398231119E+01  0.13864461033E+01  0.57348994741E+01  0.51100000000E-03 0. -1.
         12    1    3    3    0    0 -0.12174882408E+02 -0.39505041568E+02 -0.10489521150E+02  0.42648635674E+02  0.00000000000E+00 0. -1.
</event>
<event>
 7    1  0.5441610E-013  0.5052883E+02  0.7816164E-02  0.1300439E+00
        -11   -1    0    0    0    0  0.00000000000E+00  0.00000000000E+00  0.45593999997E+02  0.45594000000E+02  0.51100000000E-03 0.  1.
         11   -1    0    0    0    0 -0.00000000000E+00 -0.00000000000E+00 -0.45593999997E+02  0.45594000000E+02  0.51100000000E-03 0. -1.
    9900012    2    1    2    0    0  0.37580247549E+02 -0.14490810097E+02 -0.55596166164E+01  0.50528832276E+02  0.29999916185E+02 0.  0.
        -12    1    1    2    0    0 -0.37580247549E+02  0.14490810097E+02  0.55596166164E+01  0.40659167724E+02  0.00000000000E+00 0.  1.
         11    1    3    3    0    0  0.14896098992E+02  0.51391187973E+01 -0.53310493982E+01  0.16635035171E+02  0.51100000000E-03 0. -1.
        -11    1    3    3    0    0  0.71193702471E+01 -0.62034022555E+01 -0.75324250884E+01  0.12079116699E+02  0.51100000000E-03 0.  1.
        -12    1    3    3    0    0  0.15564778310E+02 -0.13426526638E+02  0.73038578703E+01  0.21814680406E+02  0.00000000000E+00 0.  1.
</event>
<event>
 7    1  0.5441610E-013  0.5052886E+02  0.7816164E-02  0.1300439E+00
        -11   -1    0    0    0    0  0.00000000000E+00  0.00000000000E+00  0.45593999997E+02  0.45594000000E+02  0.51100000000E-03 0.  1.
         11   -1    0    0    0    0 -0.00000000000E+00 -0.00000000000E+00 -0.45593999997E+02  0.45594000000E+02  0.51100000000E-03 0. -1.
    9900012    2    1    2    0    0  0.93901192979E+01 -0.35906365594E+02 -0.16604940052E+02  0.50528862470E+02  0.30000007963E+02 0.  0.
        -12    1    1    2    0    0 -0.93901192979E+01  0.35906365594E+02  0.16604940052E+02  0.40659137530E+02  0.00000000000E+00 0.  1.
         11    1    3    3    0    0  0.32776041677E+00 -0.58770718619E+01  0.20063301527E+01  0.62187427591E+01  0.51100000000E-03 0. -1.
        -11    1    3    3    0    0 -0.28906551649E+01  0.77997382655E+00 -0.96011066217E+01  0.10057111667E+02  0.51100000000E-03 0.  1.
         12    1    3    3    0    0  0.11953014046E+02 -0.30809267558E+02 -0.90101635828E+01  0.34253008044E+02  0.00000000000E+00 0. -1.
</event>
<event>
 7    1  0.5441610E-013  0.5052885E+02  0.7816164E-02  0.1300439E+00
        -11   -1    0    0    0    0  0.00000000000E+00  0.00000000000E+00  0.45593999997E+02  0.45594000000E+02  0.51100000000E-03 0.  1.
         11   -1    0    0    0    0 -0.00000000000E+00 -0.00000000000E+00 -0.45593999997E+02  0.45594000000E+02  0.51100000000E-03 0. -1.
    9900012    2    1    2    0    0  0.21339004290E+01  0.30953540147E+02  0.26277199086E+02  0.50528851331E+02  0.29999974105E+02 0.  0.
        -12    1    1    2    0    0 -0.21339004290E+01 -0.30953540147E+02 -0.26277199086E+02  0.40659148669E+02  0.00000000000E+00 0.  1.
         11    1    3    3    0    0  0.74992634363E-01  0.11397565058E+02  0.31063298315E+01  0.11813526080E+02  0.51100000000E-03 0. -1.
        -11    1    3    3    0    0  0.12134233701E+02  0.15757782000E+02  0.17763871223E+02  0.26666504123E+02  0.51100000000E-03 0.  1.
         12    1    3    3    0    0 -0.10075325906E+02  0.37981930893E+01  0.54069980312E+01  0.12048821128E+02  0.00000000000E+00 0. -1.
</event>
<event>
 7    1  0.5441610E-013  0.5052886E+02  0.7816164E-02  0.1300439E+00
        -11   -1    0    0    0    0  0.00000000000E+00  0.00000000000E+00  0.45593999997E+02  0.45594000000E+02  0.51100000000E-03 0.  1.
         11   -1    0    0    0    0 -0.00000000000E+00 -0.00000000000E+00 -0.45593999997E+02  0.45594000000E+02  0.51100000000E-03 0. -1.
    9900012    2    1    2    0    0  0.29734840711E+02  0.15682626635E+02 -0.22870511723E+02  0.50528857895E+02  0.29999994057E+02 0.  0.
        -12    1    1    2    0    0 -0.29734840711E+02 -0.15682626635E+02  0.22870511723E+02  0.40659142105E+02  0.00000000000E+00 0.  1.
         11    1    3    3    0    0  0.30384436551E+01 -0.28446527658E+01 -0.57819258414E-01  0.41626352868E+01  0.51100000000E-03 0. -1.
        -11    1    3    3    0    0  0.22279149402E+01 -0.55848098884E+01 -0.34846330817E+01  0.69495592986E+01  0.51100000000E-03 0.  1.
         12    1    3    3    0    0  0.24468482116E+02  0.24112089289E+02 -0.19328059383E+02  0.39416663309E+02  0.00000000000E+00 0. -1.
</event>
<event>
 7    1  0.5441610E-013  0.5052884E+02  0.7816164E-02  0.1300439E+00
        -11   -1    0    0    0    0  0.00000000000E+00  0.00000000000E+00  0.45593999997E+02  0.45594000000E+02  0.51100000000E-03 0.  1.
         11   -1    0    0    0    0 -0.00000000000E+00 -0.00000000000E+00 -0.45593999997E+02  0.45594000000E+02  0.51100000000E-03 0. -1.
    9900012    2    1    2    0    0  0.35825255292E+02  0.18877510896E+02 -0.36548570341E+01  0.50528839724E+02  0.29999938826E+02 0.  0.
        -12    1    1    2    0    0 -0.35825255292E+02 -0.18877510896E+02  0.36548570341E+01  0.40659160276E+02  0.00000000000E+00 0.  1.
         11    1    3    3    0    0  0.19863401907E+02  0.91606485740E+01 -0.14964143055E+02  0.26502788443E+02  0.51100000000E-03 0. -1.
        -11    1    3    3    0    0  0.10551168844E+01 -0.13502284531E+00  0.49453297786E+01  0.50584374750E+01  0.51100000000E-03 0.  1.
        -12    1    3    3    0    0  0.14906736501E+02  0.98518851673E+01  0.63639562424E+01  0.18967613806E+02  0.00000000000E+00 0.  1.
</event>
<event>
 7    1  0.5441610E-013  0.5052889E+02  0.7816164E-02  0.1300439E+00
        -11   -1    0    0    0    0  0.00000000000E+00  0.00000000000E+00  0.45593999997E+02  0.45594000000E+02  0.51100000000E-03 0.  1.
         11   -1    0    0    0    0 -0.00000000000E+00 -0.00000000000E+00 -0.45593999997E+02  0.45594000000E+02  0.51100000000E-03 0. -1.
    9900012    2    1    2    0    0 -0.10360670601E+02 -0.39219753414E+02  0.27624291294E+01  0.50528885797E+02  0.30000078867E+02 0.  0.
        -12    1    1    2    0    0  0.10360670601E+02  0.39219753414E+02 -0.27624291294E+01  0.40659114203E+02  0.00000000000E+00 0.  1.
         11    1    3    3    0    0  0.16032374162E+01 -0.23804170697E+01  0.71600000558E+01  0.77137770708E+01  0.51100000000E-03 0.  1.
        -11    1    3    3    0    0  0.35008574354E+01 -0.11511308467E+02 -0.52486337370E+01  0.13126857269E+02  0.51100000000E-03 0. -1.
         12    1    3    3    0    0 -0.15464765452E+02 -0.25328027877E+02  0.85106281062E+00  0.29688251456E+02  0.00000000000E+00 0. -1.
</event>
<event>
 7    1  0.5441610E-013  0.5052882E+02  0.7816164E-02  0.1300439E+00
        -11   -1    0    0    0    0  0.00000000000E+00  0.00000000000E+00  0.45593999997E+02  0.45594000000E+02  0.51100000000E-03 0. -1.
         11   -1    0    0    0    0 -0.00000000000E+00 -0.00000000000E+00 -0.45593999997E+02  0.45594000000E+02  0.51100000000E-03 0.  1.
    9900012    2    1    2    0    0 -0.39734068691E+02  0.74096699760E+01  0.44124311853E+01  0.50528819329E+02  0.29999876831E+02 0.  0.
        -12    1    1    2    0    0  0.39734068691E+02 -0.74096699760E+01 -0.44124311853E+01  0.40659180671E+02  0.00000000000E+00 0.  1.
         11    1    3    3    0    0 -0.18066644328E+02  0.11672870191E+02  0.35599420183E+00  0.21512467731E+02  0.51100000000E-03 0. -1.
        -11    1    3    3    0    0 -0.14894253070E+02  0.81670947344E+00 -0.58163240037E+01  0.16010478258E+02  0.51100000000E-03 0.  1.
        -12    1    3    3    0    0 -0.67731712933E+01 -0.50799096882E+01  0.98727609872E+01  0.13005873339E+02  0.00000000000E+00 0.  1.
</event>
<event>
 7    1  0.5441610E-013  0.5052885E+02  0.7816164E-02  0.1300439E+00
        -11   -1    0    0    0    0  0.00000000000E+00  0.00000000000E+00  0.45593999997E+02  0.45594000000E+02  0.51100000000E-03 0.  1.
         11   -1    0    0    0    0 -0.00000000000E+00 -0.00000000000E+00 -0.45593999997E+02  0.45594000000E+02  0.51100000000E-03 0. -1.
    9900012    2    1    2    0    0  0.26783188652E+02 -0.12897033668E+01 -0.30564099695E+02  0.50528847041E+02  0.29999961066E+02 0.  0.
        -12    1    1    2    0    0 -0.26783188652E+02  0.12897033668E+01  0.30564099695E+02  0.40659152959E+02  0.00000000000E+00 0.  1.
         11    1    3    3    0    0  0.21747400978E+01  0.63524369891E+01 -0.10495914118E+02  0.12459821974E+02  0.51100000000E-03 0. -1.
        -11    1    3    3    0    0  0.49603552118E+01  0.18436052044E+01  0.31900407235E+01  0.61790261414E+01  0.51100000000E-03 0.  1.
         12    1    3    3    0    0  0.19648093342E+02 -0.94857455603E+01 -0.23258226301E+02  0.31889998926E+02  0.00000000000E+00 0. -1.
</event>
<event>
 7    1  0.5441610E-013  0.5052886E+02  0.7816164E-02  0.1300439E+00
        -11   -1    0    0    0    0  0.00000000000E+00  0.00000000000E+00  0.45593999997E+02  0.45594000000E+02  0.51100000000E-03 0. -1.
         11   -1    0    0    0    0 -0.00000000000E+00 -0.00000000000E+00 -0.45593999997E+02  0.45594000000E+02  0.51100000000E-03 0.  1.
    9900012    2    1    2    0    0 -0.31819253305E+01 -0.12424937542E+02  0.38583184309E+02  0.50528857938E+02  0.29999994190E+02 0.  0.
        -12    1    1    2    0    0  0.31819253305E+01  0.12424937542E+02 -0.38583184309E+02  0.40659142062E+02  0.00000000000E+00 0.  1.
         11    1    3    3    0    0 -0.32627460190E+01  0.13833233998E+01  0.42891565742E+01  0.55638080118E+01  0.51100000000E-03 0. -1.
        -11    1    3    3    0    0 -0.35455818953E+01 -0.12107043703E+02  0.24265098343E+01  0.12846774242E+02  0.51100000000E-03 0.  1.
        -12    1    3    3    0    0  0.36264025837E+01 -0.17012172396E+01  0.31867517901E+02  0.32118275684E+02  0.00000000000E+00 0.  1.
</event>
<event>
 7    1  0.5441610E-013  0.5052885E+02  0.7816164E-02  0.1300439E+00
        -11   -1    0    0    0    0  0.00000000000E+00  0.00000000000E+00  0.45593999997E+02  0.45594000000E+02  0.51100000000E-03 0. -1.
         11   -1    0    0    0    0 -0.00000000000E+00 -0.00000000000E+00 -0.45593999997E+02  0.45594000000E+02  0.51100000000E-03 0.  1.
    9900012    2    1    2    0    0  0.46905132573E+01 -0.31845758620E+02 -0.24839750995E+02  0.50528849908E+02  0.29999969782E+02 0.  0.
        -12    1    1    2    0    0 -0.46905132573E+01  0.31845758620E+02  0.24839750995E+02  0.40659150092E+02  0.00000000000E+00 0.  1.
         11    1    3    3    0    0 -0.17480563884E+01  0.44838008870E+01  0.37241458406E+00  0.48268897248E+01  0.51100000000E-03 0. -1.
        -11    1    3    3    0    0 -0.20514025418E+01 -0.10724716818E+02 -0.95687478741E+01  0.14518565334E+02  0.51100000000E-03 0.  1.
        -12    1    3    3    0    0  0.84899721876E+01 -0.25604842689E+02 -0.15643417705E+02  0.31183394850E+02  0.00000000000E+00 0.  1.
</event>
<event>
 7    1  0.5441610E-013  0.5052886E+02  0.7816164E-02  0.1300439E+00
        -11   -1    0    0    0    0  0.00000000000E+00  0.00000000000E+00  0.45593999997E+02  0.45594000000E+02  0.51100000000E-03 0.  1.
         11   -1    0    0    0    0 -0.00000000000E+00 -0.00000000000E+00 -0.45593999997E+02  0.45594000000E+02  0.51100000000E-03 0. -1.
    9900012    2    1    2    0    0 -0.23334963780E+02 -0.77354242605E+01 -0.32385309293E+02  0.50528861038E+02  0.30000003612E+02 0.  0.
        -12    1    1    2    0    0  0.23334963780E+02  0.77354242605E+01  0.32385309293E+02  0.40659138962E+02  0.00000000000E+00 0.  1.
         11    1    3    3    0    0  0.90616294574E+00  0.54610417694E+01 -0.12417355845E+02  0.13595397565E+02  0.51100000000E-03 0.  1.
        -11    1    3    3    0    0 -0.17494245921E+02 -0.15424148447E+01 -0.12249912267E+02  0.21412333706E+02  0.51100000000E-03 0. -1.
        -12    1    3    3    0    0 -0.67468808049E+01 -0.11654051185E+02 -0.77180411801E+01  0.15521129768E+02  0.00000000000E+00 0.  1.
</event>
<event>
 7    1  0.5441610E-013  0.5052886E+02  0.7816164E-02  0.1300439E+00
        -11   -1    0    0    0    0  0.00000000000E+00  0.00000000000E+00  0.45593999997E+02  0.45594000000E+02  0.51100000000E-03 0. -1.
         11   -1    0    0    0    0 -0.00000000000E+00 -0.00000000000E+00 -0.45593999997E+02  0.45594000000E+02  0.51100000000E-03 0.  1.
    9900012    2    1    2    0    0  0.13708074870E+02  0.30330102172E+02 -0.23352507647E+02  0.50528855545E+02  0.29999986915E+02 0.  0.
        -12    1    1    2    0    0 -0.13708074870E+02 -0.30330102172E+02  0.23352507647E+02  0.40659144455E+02  0.00000000000E+00 0.  1.
         11    1    3    3    0    0  0.17143033676E+01  0.10793816648E+02  0.36025227153E+01  0.11507540313E+02  0.51100000000E-03 0. -1.
        -11    1    3    3    0    0  0.81743022479E+01 -0.97984889287E-01 -0.69183332296E+01  0.10709442246E+02  0.51100000000E-03 0.  1.
        -12    1    3    3    0    0  0.38194692542E+01  0.19634270413E+02 -0.20036697133E+02  0.28311872987E+02  0.00000000000E+00 0.  1.
</event>
<event>
 7    1  0.5441610E-013  0.5052886E+02  0.7816164E-02  0.1300439E+00
        -11   -1    0    0    0    0  0.00000000000E+00  0.00000000000E+00  0.45593999997E+02  0.45594000000E+02  0.51100000000E-03 0.  1.
         11   -1    0    0    0    0 -0.00000000000E+00 -0.00000000000E+00 -0.45593999997E+02  0.45594000000E+02  0.51100000000E-03 0. -1.
    9900012    2    1    2    0    0  0.16798223135E+01 -0.34495811124E+02 -0.21456531913E+02  0.50528861423E+02  0.30000004780E+02 0.  0.
        -12    1    1    2    0    0 -0.16798223135E+01  0.34495811124E+02  0.21456531913E+02  0.40659138577E+02  0.00000000000E+00 0.  1.
         11    1    3    3    0    0  0.44899831695E+01 -0.26030382844E+02 -0.12473074206E+02  0.29211613448E+02  0.51100000000E-03 0. -1.
        -11    1    3    3    0    0  0.37444724828E+01 -0.94335983235E+01  0.63324528197E-02  0.10149575945E+02  0.51100000000E-03 0.  1.
        -12    1    3    3    0    0 -0.65546333388E+01  0.96817004294E+00 -0.89897901596E+01  0.11167672029E+02  0.00000000000E+00 0.  1.
</event>
<event>
 7    1  0.5441610E-013  0.5052886E+02  0.7816164E-02  0.1300439E+00
        -11   -1    0    0    0    0  0.00000000000E+00  0.00000000000E+00  0.45593999997E+02  0.45594000000E+02  0.51100000000E-03 0.  1.
         11   -1    0    0    0    0 -0.00000000000E+00 -0.00000000000E+00 -0.45593999997E+02  0.45594000000E+02  0.51100000000E-03 0. -1.
    9900012    2    1    2    0    0 -0.21120722421E+02 -0.31273194538E+02 -0.15134986261E+02  0.50528863003E+02  0.30000009584E+02 0.  0.
        -12    1    1    2    0    0  0.21120722421E+02  0.31273194538E+02  0.15134986261E+02  0.40659136997E+02  0.00000000000E+00 0.  1.
         11    1    3    3    0    0 -0.46421272474E+01 -0.42723910476E+01 -0.11272415769E+02  0.12917818243E+02  0.51100000000E-03 0. -1.
        -11    1    3    3    0    0  0.23384271130E+01 -0.24350793381E+01 -0.56862513465E+01  0.66129650976E+01  0.51100000000E-03 0.  1.
         12    1    3    3    0    0 -0.18817022287E+02 -0.24565724152E+02  0.18236808547E+01  0.30998079662E+02  0.00000000000E+00 0. -1.
</event>
<event>
 7    1  0.5441610E-013  0.5052885E+02  0.7816164E-02  0.1300439E+00
        -11   -1    0    0    0    0  0.00000000000E+00  0.00000000000E+00  0.45593999997E+02  0.45594000000E+02  0.51100000000E-03 0.  1.
         11   -1    0    0    0    0 -0.00000000000E+00 -0.00000000000E+00 -0.45593999997E+02  0.45594000000E+02  0.51100000000E-03 0. -1.
    9900012    2    1    2    0    0 -0.28388783494E+02 -0.27922916705E+02  0.82191334970E+01  0.50528850218E+02  0.29999970722E+02 0.  0.
        -12    1    1    2    0    0  0.28388783494E+02  0.27922916705E+02 -0.82191334970E+01  0.40659149782E+02  0.00000000000E+00 0.  1.
         11    1    3    3    0    0 -0.21455347984E+02 -0.30443339865E+01  0.38980039312E+01  0.22018046268E+02  0.51100000000E-03 0. -1.
        -11    1    3    3    0    0 -0.51127309171E+01 -0.24471446979E+01  0.11430168905E+01  0.57823025238E+01  0.51100000000E-03 0.  1.
        -12    1    3    3    0    0 -0.18207045921E+01 -0.22431438021E+02  0.31781126753E+01  0.22728501426E+02  0.00000000000E+00 0.  1.
</event>
<event>
 7    1  0.5441610E-013  0.5052886E+02  0.7816164E-02  0.1300439E+00
        -11   -1    0    0    0    0  0.00000000000E+00  0.00000000000E+00  0.45593999997E+02  0.45594000000E+02  0.51100000000E-03 0.  1.
         11   -1    0    0    0    0 -0.00000000000E+00 -0.00000000000E+00 -0.45593999997E+02  0.45594000000E+02  0.51100000000E-03 0. -1.
    9900012    2    1    2    0    0  0.99049635303E+01 -0.33651870533E+02 -0.20557452924E+02  0.50528861253E+02  0.30000004264E+02 0.  0.
        -12    1    1    2    0    0 -0.99049635303E+01  0.33651870533E+02  0.20557452924E+02  0.40659138747E+02  0.00000000000E+00 0.  1.
         11    1    3    3    0    0 -0.29321266883E+00 -0.19179346460E+02 -0.84419234245E+01  0.20957084141E+02  0.51100000000E-03 0. -1.
        -11    1    3    3    0    0  0.10308442726E+02 -0.46992113916E+01 -0.15526040421E+02  0.19219898818E+02  0.51100000000E-03 0.  1.
         12    1    3    3    0    0 -0.11026652665E+00 -0.97733126813E+01  0.34105109217E+01  0.10351878294E+02  0.00000000000E+00 0. -1.
</event>
<event>
 7    1  0.5441610E-013  0.5052895E+02  0.7816164E-02  0.1300438E+00
        -11   -1    0    0    0    0  0.00000000000E+00  0.00000000000E+00  0.45593999997E+02  0.45594000000E+02  0.51100000000E-03 0.  1.
         11   -1    0    0    0    0 -0.00000000000E+00 -0.00000000000E+00 -0.45593999997E+02  0.45594000000E+02  0.51100000000E-03 0. -1.
    9900012    2    1    2    0    0  0.16235697628E+02  0.18070743124E+02 -0.32603819679E+02  0.50528945754E+02  0.30000261113E+02 0.  0.
        -12    1    1    2    0    0 -0.16235697628E+02 -0.18070743124E+02  0.32603819679E+02  0.40659054246E+02  0.00000000000E+00 0.  1.
         11    1    3    3    0    0  0.96055745084E+01  0.17509947226E+02 -0.27684281732E+02  0.34136267646E+02  0.51100000000E-03 0. -1.
        -11    1    3    3    0    0  0.36434144023E+01  0.72081442440E+01 -0.10589372018E+01  0.81457449142E+01  0.51100000000E-03 0.  1.
        -12    1    3    3    0    0  0.29867087173E+01 -0.66473483460E+01 -0.38606007448E+01  0.82469331940E+01  0.00000000000E+00 0.  1.
</event>
<event>
 7    1  0.5441610E-013  0.5052887E+02  0.7816164E-02  0.1300439E+00
        -11   -1    0    0    0    0  0.00000000000E+00  0.00000000000E+00  0.45593999997E+02  0.45594000000E+02  0.51100000000E-03 0.  1.
         11   -1    0    0    0    0 -0.00000000000E+00 -0.00000000000E+00 -0.45593999997E+02  0.45594000000E+02  0.51100000000E-03 0. -1.
    9900012    2    1    2    0    0 -0.21137321611E+01  0.10459330803E+02 -0.39233905265E+02  0.50528870806E+02  0.30000033301E+02 0.  0.
        -12    1    1    2    0    0  0.21137321611E+01 -0.10459330803E+02  0.39233905265E+02  0.40659129194E+02  0.00000000000E+00 0.  1.
         11    1    3    3    0    0  0.13736489993E+00  0.97673996458E+00 -0.38803422255E+02  0.38815956372E+02  0.51100000000E-03 0. -1.
        -11    1    3    3    0    0  0.14310872739E+01  0.47596020642E+01 -0.22474277510E+01  0.54546085425E+01  0.51100000000E-03 0.  1.
        -12    1    3    3    0    0 -0.36821843350E+01  0.47229887743E+01  0.18169447411E+01  0.62583058915E+01  0.00000000000E+00 0.  1.
</event>
<event>
 7    1  0.5441610E-013  0.5052891E+02  0.7816164E-02  0.1300439E+00
        -11   -1    0    0    0    0  0.00000000000E+00  0.00000000000E+00  0.45593999997E+02  0.45594000000E+02  0.51100000000E-03 0. -1.
         11   -1    0    0    0    0 -0.00000000000E+00 -0.00000000000E+00 -0.45593999997E+02  0.45594000000E+02  0.51100000000E-03 0.  1.
    9900012    2    1    2    0    0 -0.31838283933E+02  0.23167258505E+02  0.10137243350E+02  0.50528906390E+02  0.30000141462E+02 0.  0.
        -12    1    1    2    0    0  0.31838283933E+02 -0.23167258505E+02 -0.10137243350E+02  0.40659093610E+02  0.00000000000E+00 0.  1.
         11    1    3    3    0    0 -0.14803554690E+02  0.12044231809E+02 -0.36890126568E+01  0.19437529832E+02  0.51100000000E-03 0. -1.
        -11    1    3    3    0    0 -0.18532926208E+02  0.33234742716E+01  0.55698611925E+01  0.19635126408E+02  0.51100000000E-03 0.  1.
        -12    1    3    3    0    0  0.14981969651E+01  0.77995524249E+01  0.82563948146E+01  0.11456250150E+02  0.00000000000E+00 0.  1.
</event>
<event>
 7    1  0.5441610E-013  0.5052885E+02  0.7816164E-02  0.1300439E+00
        -11   -1    0    0    0    0  0.00000000000E+00  0.00000000000E+00  0.45593999997E+02  0.45594000000E+02  0.51100000000E-03 0.  1.
         11   -1    0    0    0    0 -0.00000000000E+00 -0.00000000000E+00 -0.45593999997E+02  0.45594000000E+02  0.51100000000E-03 0. -1.
    9900012    2    1    2    0    0  0.24101962559E+02 -0.18454670187E+02 -0.27049709233E+02  0.50528853175E+02  0.29999979712E+02 0.  0.
        -12    1    1    2    0    0 -0.24101962559E+02  0.18454670187E+02  0.27049709233E+02  0.40659146825E+02  0.00000000000E+00 0.  1.
         11    1    3    3    0    0  0.19754816183E+01  0.47888406954E+01 -0.85846301072E+01  0.10026534654E+02  0.51100000000E-03 0. -1.
        -11    1    3    3    0    0  0.17941093553E+02 -0.95167995432E+01 -0.16190064955E+02  0.25972495354E+02  0.51100000000E-03 0.  1.
        -12    1    3    3    0    0  0.41853873880E+01 -0.13726711340E+02 -0.22750141707E+01  0.14529823167E+02  0.00000000000E+00 0.  1.
</event>
<event>
 7    1  0.5441610E-013  0.5052888E+02  0.7816164E-02  0.1300439E+00
        -11   -1    0    0    0    0  0.00000000000E+00  0.00000000000E+00  0.45593999997E+02  0.45594000000E+02  0.51100000000E-03 0. -1.
         11   -1    0    0    0    0 -0.00000000000E+00 -0.00000000000E+00 -0.45593999997E+02  0.45594000000E+02  0.51100000000E-03 0.  1.
    9900012    2    1    2    0    0  0.28359140743E+02 -0.55797943185E+01  0.28597016049E+02  0.50528876851E+02  0.30000051675E+02 0.  0.
        -12    1    1    2    0    0 -0.28359140743E+02  0.55797943185E+01 -0.28597016049E+02  0.40659123149E+02  0.00000000000E+00 0.  1.
         11    1    3    3    0    0  0.22078972796E+02 -0.46613545149E+01  0.11284989582E+02  0.25230145774E+02  0.51100000000E-03 0. -1.
        -11    1    3    3    0    0  0.66182174916E+01  0.58360459079E+01  0.16196852952E+02  0.18444464764E+02  0.51100000000E-03 0.  1.
        -12    1    3    3    0    0 -0.33804954442E+00 -0.67544857115E+01  0.11151735158E+01  0.68542663131E+01  0.00000000000E+00 0.  1.
</event>
<event>
 7    1  0.5441610E-013  0.5052884E+02  0.7816164E-02  0.1300439E+00
        -11   -1    0    0    0    0  0.00000000000E+00  0.00000000000E+00  0.45593999997E+02  0.45594000000E+02  0.51100000000E-03 0.  1.
         11   -1    0    0    0    0 -0.00000000000E+00 -0.00000000000E+00 -0.45593999997E+02  0.45594000000E+02  0.51100000000E-03 0. -1.
    9900012    2    1    2    0    0 -0.37300441949E+02  0.87636070204E+01 -0.13603061155E+02  0.50528842970E+02  0.29999948691E+02 0.  0.
        -12    1    1    2    0    0  0.37300441949E+02 -0.87636070204E+01  0.13603061155E+02  0.40659157030E+02  0.00000000000E+00 0.  1.
         11    1    3    3    0    0 -0.93689091884E+01  0.11966235034E+02 -0.13875912707E+02  0.20579314711E+02  0.51100000000E-03 0. -1.
        -11    1    3    3    0    0 -0.63074660345E+01  0.35999095661E+01  0.49900864840E+00  0.72795938453E+01  0.51100000000E-03 0.  1.
         12    1    3    3    0    0 -0.21624066726E+02 -0.68025375792E+01 -0.22615709684E+00  0.22669934414E+02  0.00000000000E+00 0. -1.
</event>
<event>
 7    1  0.5441610E-013  0.5052886E+02  0.7816164E-02  0.1300439E+00
        -11   -1    0    0    0    0  0.00000000000E+00  0.00000000000E+00  0.45593999997E+02  0.45594000000E+02  0.51100000000E-03 0.  1.
         11   -1    0    0    0    0 -0.00000000000E+00 -0.00000000000E+00 -0.45593999997E+02  0.45594000000E+02  0.51100000000E-03 0. -1.
    9900012    2    1    2    0    0 -0.21400161170E+02  0.78328574108E+01 -0.33672610991E+02  0.50528864688E+02  0.30000014707E+02 0.  0.
        -12    1    1    2    0    0  0.21400161170E+02 -0.78328574108E+01  0.33672610991E+02  0.40659135312E+02  0.00000000000E+00 0.  1.
         11    1    3    3    0    0 -0.43379919693E+00  0.41916025220E+01 -0.50751207595E+01  0.65965570133E+01  0.51100000000E-03 0. -1.
        -11    1    3    3    0    0 -0.20482415427E+02  0.10497178994E+02 -0.11974182104E+02  0.25944192912E+02  0.51100000000E-03 0.  1.
        -12    1    3    3    0    0 -0.48394654648E+00 -0.68559241056E+01 -0.16623308128E+02  0.17988114763E+02  0.00000000000E+00 0.  1.
</event>
<event>
 7    1  0.5441610E-013  0.5052886E+02  0.7816164E-02  0.1300439E+00
        -11   -1    0    0    0    0  0.00000000000E+00  0.00000000000E+00  0.45593999997E+02  0.45594000000E+02  0.51100000000E-03 0.  1.
         11   -1    0    0    0    0 -0.00000000000E+00 -0.00000000000E+00 -0.45593999997E+02  0.45594000000E+02  0.51100000000E-03 0. -1.
    9900012    2    1    2    0    0 -0.23386044137E+02 -0.32832479787E+02  0.53185070148E+01  0.50528864419E+02  0.30000013887E+02 0.  0.
        -12    1    1    2    0    0  0.23386044137E+02  0.32832479787E+02 -0.53185070148E+01  0.40659135581E+02  0.00000000000E+00 0.  1.
         11    1    3    3    0    0 -0.73316858263E+01 -0.66305677444E+01 -0.58615395273E+01  0.11492418873E+02  0.51100000000E-03 0. -1.
        -11    1    3    3    0    0 -0.20636229845E+02 -0.16911088911E+02  0.55693048572E+01  0.27255386023E+02  0.51100000000E-03 0.  1.
        -12    1    3    3    0    0  0.45818715345E+01 -0.92908231314E+01  0.56107416848E+01  0.11781059522E+02  0.00000000000E+00 0.  1.
</event>
<event>
 7    1  0.5441610E-013  0.5052886E+02  0.7816164E-02  0.1300439E+00
        -11   -1    0    0    0    0  0.00000000000E+00  0.00000000000E+00  0.45593999997E+02  0.45594000000E+02  0.51100000000E-03 0.  1.
         11   -1    0    0    0    0 -0.00000000000E+00 -0.00000000000E+00 -0.45593999997E+02  0.45594000000E+02  0.51100000000E-03 0. -1.
    9900012    2    1    2    0    0 -0.42403419358E+01  0.39623794129E+02 -0.80709349281E+01  0.50528861402E+02  0.30000004716E+02 0.  0.
        -12    1    1    2    0    0  0.42403419358E+01 -0.39623794129E+02  0.80709349281E+01  0.40659138598E+02  0.00000000000E+00 0.  1.
         11    1    3    3    0    0  0.32031774572E+01  0.13102639648E+02 -0.52264600956E+01  0.14465662687E+02  0.51100000000E-03 0. -1.
        -11    1    3    3    0    0  0.33829333257E+01  0.17540200014E+02  0.66841921145E+01  0.19073051117E+02  0.51100000000E-03 0.  1.
         12    1    3    3    0    0 -0.10826452719E+02  0.89809544669E+01 -0.95286669471E+01  0.16990147598E+02  0.00000000000E+00 0. -1.
</event>
<event>
 7    1  0.5441610E-013  0.5052887E+02  0.7816164E-02  0.1300439E+00
        -11   -1    0    0    0    0  0.00000000000E+00  0.00000000000E+00  0.45593999997E+02  0.45594000000E+02  0.51100000000E-03 0.  1.
         11   -1    0    0    0    0 -0.00000000000E+00 -0.00000000000E+00 -0.45593999997E+02  0.45594000000E+02  0.51100000000E-03 0. -1.
    9900012    2    1    2    0    0 -0.38091285968E+02  0.10929864830E+02 -0.90970991330E+01  0.50528865423E+02  0.30000016940E+02 0.  0.
        -12    1    1    2    0    0  0.38091285968E+02 -0.10929864830E+02  0.90970991330E+01  0.40659134577E+02  0.00000000000E+00 0.  1.
         11    1    3    3    0    0 -0.29437075727E+02  0.10594362183E+02 -0.66567808132E+01  0.31985851067E+02  0.51100000000E-03 0. -1.
        -11    1    3    3    0    0 -0.13025297863E+02  0.15566496836E+01  0.51340266498E+00  0.13128028230E+02  0.51100000000E-03 0.  1.
         12    1    3    3    0    0  0.43710876223E+01 -0.12211470363E+01 -0.29537209847E+01  0.54149861258E+01  0.00000000000E+00 0. -1.
</event>
<event>
 7    1  0.5441610E-013  0.5052886E+02  0.7816164E-02  0.1300439E+00
        -11   -1    0    0    0    0  0.00000000000E+00  0.00000000000E+00  0.45593999997E+02  0.45594000000E+02  0.51100000000E-03 0.  1.
         11   -1    0    0    0    0 -0.00000000000E+00 -0.00000000000E+00 -0.45593999997E+02  0.45594000000E+02  0.51100000000E-03 0. -1.
    9900012    2    1    2    0    0 -0.26574645212E+02  0.22207813643E+01 -0.30692376700E+02  0.50528860492E+02  0.30000001953E+02 0.  0.
        -12    1    1    2    0    0  0.26574645212E+02 -0.22207813643E+01  0.30692376700E+02  0.40659139508E+02  0.00000000000E+00 0.  1.
         11    1    3    3    0    0 -0.55279649903E+01  0.89186469638E+01 -0.12668978067E+02  0.16450035445E+02  0.51100000000E-03 0. -1.
        -11    1    3    3    0    0 -0.41289245395E+01 -0.10721338404E+02 -0.80976703943E+01  0.14055866430E+02  0.51100000000E-03 0.  1.
         12    1    3    3    0    0 -0.16917755682E+02  0.40234728049E+01 -0.99257282386E+01  0.20022958617E+02  0.00000000000E+00 0. -1.
</event>
<event>
 7    1  0.5441610E-013  0.5052884E+02  0.7816164E-02  0.1300439E+00
        -11   -1    0    0    0    0  0.00000000000E+00  0.00000000000E+00  0.45593999997E+02  0.45594000000E+02  0.51100000000E-03 0.  1.
         11   -1    0    0    0    0 -0.00000000000E+00 -0.00000000000E+00 -0.45593999997E+02  0.45594000000E+02  0.51100000000E-03 0. -1.
    9900012    2    1    2    0    0  0.28224901142E+02  0.19295908316E+02 -0.22004318312E+02  0.50528841787E+02  0.29999945095E+02 0.  0.
        -12    1    1    2    0    0 -0.28224901142E+02 -0.19295908316E+02  0.22004318312E+02  0.40659158213E+02  0.00000000000E+00 0.  1.
         11    1    3    3    0    0  0.21418179766E+02  0.12492040348E+02 -0.73299759110E+01  0.25855715880E+02  0.51100000000E-03 0. -1.
        -11    1    3    3    0    0  0.93188434680E+01  0.32652437644E+01 -0.54168010843E+00  0.98891899579E+01  0.51100000000E-03 0.  1.
        -12    1    3    3    0    0 -0.25121220921E+01  0.35386242037E+01 -0.14132662293E+02  0.14783935949E+02  0.00000000000E+00 0.  1.
</event>
<event>
 7    1  0.5441610E-013  0.5052885E+02  0.7816164E-02  0.1300439E+00
        -11   -1    0    0    0    0  0.00000000000E+00  0.00000000000E+00  0.45593999997E+02  0.45594000000E+02  0.51100000000E-03 0.  1.
         11   -1    0    0    0    0 -0.00000000000E+00 -0.00000000000E+00 -0.45593999997E+02  0.45594000000E+02  0.51100000000E-03 0. -1.
    9900012    2    1    2    0    0  0.17917816947E+02 -0.27125292082E+02 -0.24420009813E+02  0.50528849567E+02  0.29999968743E+02 0.  0.
        -12    1    1    2    0    0 -0.17917816947E+02  0.27125292082E+02  0.24420009813E+02  0.40659150433E+02  0.00000000000E+00 0.  1.
         11    1    3    3    0    0  0.17738518406E+02 -0.94434191725E+01 -0.10576766661E+02  0.22709055334E+02  0.51100000000E-03 0. -1.
        -11    1    3    3    0    0 -0.56605189347E+00  0.24687474281E+01  0.10600360590E+01  0.27456884960E+01  0.51100000000E-03 0.  1.
         12    1    3    3    0    0  0.74535043483E+00 -0.20150620337E+02 -0.14903279212E+02  0.25074105737E+02  0.00000000000E+00 0. -1.
</event>
<event>
 7    1  0.5975909E-013  0.5052886E+02  0.7816164E-02  0.1300439E+00
        -11   -1    0    0    0    0  0.00000000000E+00  0.00000000000E+00  0.45593999997E+02  0.45594000000E+02  0.51100000000E-03 0. -1.
         11   -1    0    0    0    0 -0.00000000000E+00 -0.00000000000E+00 -0.45593999997E+02  0.45594000000E+02  0.51100000000E-03 0.  1.
    9900012    2    1    2    0    0 -0.49549250904E+01  0.31955341431E+02  0.24646916801E+02  0.50528860358E+02  0.30000001544E+02 0.  0.
        -12    1    1    2    0    0  0.49549250904E+01 -0.31955341431E+02 -0.24646916801E+02  0.40659139642E+02  0.00000000000E+00 0.  1.
         11    1    3    3    0    0  0.10738613782E+01  0.23064903854E+02  0.84929891805E+01  0.24602313581E+02  0.51100000000E-03 0. -1.
        -11    1    3    3    0    0  0.58288236880E+01  0.11639190778E+01  0.32511228309E+01  0.67749312268E+01  0.51100000000E-03 0.  1.
         12    1    3    3    0    0 -0.11857610157E+02  0.77265184998E+01  0.12902804790E+02  0.19151615550E+02  0.00000000000E+00 0. -1.
</event>
<event>
 7    1  0.5441610E-013  0.5052886E+02  0.7816164E-02  0.1300439E+00
        -11   -1    0    0    0    0  0.00000000000E+00  0.00000000000E+00  0.45593999997E+02  0.45594000000E+02  0.51100000000E-03 0.  1.
         11   -1    0    0    0    0 -0.00000000000E+00 -0.00000000000E+00 -0.45593999997E+02  0.45594000000E+02  0.51100000000E-03 0. -1.
    9900012    2    1    2    0    0 -0.16142339877E+02 -0.13793661288E+02 -0.34674569676E+02  0.50528855756E+02  0.29999987555E+02 0.  0.
        -12    1    1    2    0    0  0.16142339877E+02  0.13793661288E+02  0.34674569676E+02  0.40659144244E+02  0.00000000000E+00 0.  1.
         11    1    3    3    0    0  0.18146277041E+00 -0.77887137404E+01 -0.25996208278E+02  0.27138530461E+02  0.51100000000E-03 0. -1.
        -11    1    3    3    0    0 -0.32505543406E+01  0.40375165270E+01 -0.13946454725E+01  0.53677443570E+01  0.51100000000E-03 0.  1.
        -12    1    3    3    0    0 -0.13073248307E+02 -0.10042464075E+02 -0.72837159256E+01  0.18022580938E+02  0.00000000000E+00 0.  1.
</event>
<event>
 7    1  0.5441610E-013  0.5052887E+02  0.7816164E-02  0.1300439E+00
        -11   -1    0    0    0    0  0.00000000000E+00  0.00000000000E+00  0.45593999997E+02  0.45594000000E+02  0.51100000000E-03 0.  1.
         11   -1    0    0    0    0 -0.00000000000E+00 -0.00000000000E+00 -0.45593999997E+02  0.45594000000E+02  0.51100000000E-03 0. -1.
    9900012    2    1    2    0    0 -0.26262250318E+02  0.99914491132E+01 -0.29387583198E+02  0.50528869496E+02  0.30000029319E+02 0.  0.
        -12    1    1    2    0    0  0.26262250318E+02 -0.99914491132E+01  0.29387583198E+02  0.40659130504E+02  0.00000000000E+00 0.  1.
         11    1    3    3    0    0 -0.19430386748E+02  0.18383473814E+01 -0.71884898472E+01  0.20798890278E+02  0.51100000000E-03 0. -1.
        -11    1    3    3    0    0 -0.12169551801E+02  0.75767720393E+01 -0.14989646109E+02  0.20741141634E+02  0.51100000000E-03 0.  1.
         12    1    3    3    0    0  0.53376882304E+01  0.57632969246E+00 -0.72094472418E+01  0.89888375829E+01  0.00000000000E+00 0. -1.
</event>
<event>
 7    1  0.6043794E-013  0.5052886E+02  0.7816164E-02  0.1300439E+00
        -11   -1    0    0    0    0  0.00000000000E+00  0.00000000000E+00  0.45593999997E+02  0.45594000000E+02  0.51100000000E-03 0.  1.
         11   -1    0    0    0    0 -0.00000000000E+00 -0.00000000000E+00 -0.45593999997E+02  0.45594000000E+02  0.51100000000E-03 0. -1.
    9900012    2    1    2    0    0 -0.37556082550E+02 -0.99498663208E-01 -0.15578718412E+02  0.50528859529E+02  0.29999999024E+02 0.  0.
        -12    1    1    2    0    0  0.37556082550E+02  0.99498663208E-01  0.15578718412E+02  0.40659140471E+02  0.00000000000E+00 0.  1.
         11    1    3    3    0    0 -0.28822378141E+02 -0.35919253255E+01 -0.12395701517E+02  0.31579816744E+02  0.51100000000E-03 0. -1.
        -11    1    3    3    0    0 -0.58174026135E+01  0.74113386092E+01 -0.77969590303E+01  0.12229582312E+02  0.51100000000E-03 0.  1.
        -12    1    3    3    0    0 -0.29163017960E+01 -0.39189119469E+01  0.46139421359E+01  0.67194604729E+01  0.00000000000E+00 0.  1.
</event>
<event>
 7    1  0.5441610E-013  0.5052886E+02  0.7816164E-02  0.1300439E+00
        -11   -1    0    0    0    0  0.00000000000E+00  0.00000000000E+00  0.45593999997E+02  0.45594000000E+02  0.51100000000E-03 0.  1.
         11   -1    0    0    0    0 -0.00000000000E+00 -0.00000000000E+00 -0.45593999997E+02  0.45594000000E+02  0.51100000000E-03 0. -1.
    9900012    2    1    2    0    0  0.30299789882E+02 -0.17013702998E+02 -0.21109764189E+02  0.50528862027E+02  0.30000006618E+02 0.  0.
        -12    1    1    2    0    0 -0.30299789882E+02  0.17013702998E+02  0.21109764189E+02  0.40659137973E+02  0.00000000000E+00 0.  1.
         11    1    3    3    0    0  0.27396284577E+02 -0.13510729474E+02 -0.10963004737E+02  0.32454332417E+02  0.51100000000E-03 0. -1.
        -11    1    3    3    0    0  0.35176752661E+01  0.60963710986E+00  0.27612147060E+01  0.45133140371E+01  0.51100000000E-03 0.  1.
        -12    1    3    3    0    0 -0.61416996083E+00 -0.41126106339E+01 -0.12907974158E+02  0.13561215573E+02  0.00000000000E+00 0.  1.
</event>
<event>
 7    1  0.5441610E-013  0.5052887E+02  0.7816164E-02  0.1300439E+00
        -11   -1    0    0    0    0  0.00000000000E+00  0.00000000000E+00  0.45593999997E+02  0.45594000000E+02  0.51100000000E-03 0.  1.
         11   -1    0    0    0    0 -0.00000000000E+00 -0.00000000000E+00 -0.45593999997E+02  0.45594000000E+02  0.51100000000E-03 0. -1.
    9900012    2    1    2    0    0 -0.15827539960E+02  0.33085024686E+02 -0.17550925427E+02  0.50528869869E+02  0.30000030455E+02 0.  0.
        -12    1    1    2    0    0  0.15827539960E+02 -0.33085024686E+02  0.17550925427E+02  0.40659130131E+02  0.00000000000E+00 0.  1.
         11    1    3    3    0    0  0.86829448906E+00  0.14168876205E+01 -0.70719340855E+01  0.72645548948E+01  0.51100000000E-03 0. -1.
        -11    1    3    3    0    0 -0.91565112656E+01  0.21348387812E+02 -0.17124852353E+02  0.28859243391E+02  0.51100000000E-03 0.  1.
        -12    1    3    3    0    0 -0.75393231831E+01  0.10319749254E+02  0.66458610124E+01  0.14405071583E+02  0.00000000000E+00 0.  1.
</event>
<event>
 7    1  0.5441610E-013  0.5052887E+02  0.7816164E-02  0.1300439E+00
        -11   -1    0    0    0    0  0.00000000000E+00  0.00000000000E+00  0.45593999997E+02  0.45594000000E+02  0.51100000000E-03 0.  1.
         11   -1    0    0    0    0 -0.00000000000E+00 -0.00000000000E+00 -0.45593999997E+02  0.45594000000E+02  0.51100000000E-03 0. -1.
    9900012    2    1    2    0    0  0.21459352209E+02 -0.22759807368E+02 -0.25974063192E+02  0.50528873259E+02  0.30000040757E+02 0.  0.
        -12    1    1    2    0    0 -0.21459352209E+02  0.22759807368E+02  0.25974063192E+02  0.40659126741E+02  0.00000000000E+00 0.  1.
         11    1    3    3    0    0  0.35090659268E+00 -0.32720738342E+01 -0.10122758554E+02  0.10644239927E+02  0.51100000000E-03 0. -1.
        -11    1    3    3    0    0  0.22136861236E+02 -0.13191861765E+02 -0.19697602677E+02  0.32435495891E+02  0.51100000000E-03 0.  1.
         12    1    3    3    0    0 -0.10284156194E+01 -0.62958717681E+01  0.38462980388E+01  0.74491374406E+01  0.00000000000E+00 0. -1.
</event>
<event>
 7    1  0.5441610E-013  0.5052886E+02  0.7816164E-02  0.1300439E+00
        -11   -1    0    0    0    0  0.00000000000E+00  0.00000000000E+00  0.45593999997E+02  0.45594000000E+02  0.51100000000E-03 0. -1.
         11   -1    0    0    0    0 -0.00000000000E+00 -0.00000000000E+00 -0.45593999997E+02  0.45594000000E+02  0.51100000000E-03 0.  1.
    9900012    2    1    2    0    0 -0.33225315455E+02 -0.10572536490E+02  0.20915680245E+02  0.50528858407E+02  0.29999995615E+02 0.  0.
        -12    1    1    2    0    0  0.33225315455E+02  0.10572536490E+02 -0.20915680245E+02  0.40659141593E+02  0.00000000000E+00 0.  1.
         11    1    3    3    0    0  0.19306888751E+01 -0.17886863229E+01  0.99682196226E+01  0.10309818670E+02  0.51100000000E-03 0. -1.
        -11    1    3    3    0    0 -0.11563756855E+02 -0.43142754717E+01 -0.26511514496E+01  0.12623868255E+02  0.51100000000E-03 0.  1.
        -12    1    3    3    0    0 -0.23592247476E+02 -0.44695746956E+01  0.13598612072E+02  0.27595171483E+02  0.00000000000E+00 0.  1.
</event>
<event>
 7    1  0.5441610E-013  0.5052883E+02  0.7816164E-02  0.1300439E+00
        -11   -1    0    0    0    0  0.00000000000E+00  0.00000000000E+00  0.45593999997E+02  0.45594000000E+02  0.51100000000E-03 0.  1.
         11   -1    0    0    0    0 -0.00000000000E+00 -0.00000000000E+00 -0.45593999997E+02  0.45594000000E+02  0.51100000000E-03 0. -1.
    9900012    2    1    2    0    0 -0.15774386979E+02  0.17920047819E+02 -0.32912132365E+02  0.50528833073E+02  0.29999918608E+02 0.  0.
        -12    1    1    2    0    0  0.15774386979E+02 -0.17920047819E+02  0.32912132365E+02  0.40659166927E+02  0.00000000000E+00 0.  1.
         11    1    3    3    0    0  0.17409050951E+00  0.94737800410E+01 -0.11115942701E+02  0.14606402643E+02  0.51100000000E-03 0. -1.
        -11    1    3    3    0    0 -0.85388074960E+01 -0.55784485642E+01 -0.16119720040E+02  0.19075526107E+02  0.51100000000E-03 0.  1.
         12    1    3    3    0    0 -0.74096699924E+01  0.14024716342E+02 -0.56764696237E+01  0.16846904322E+02  0.00000000000E+00 0. -1.
</event>
<event>
 7    1  0.5441610E-013  0.5052887E+02  0.7816164E-02  0.1300439E+00
        -11   -1    0    0    0    0  0.00000000000E+00  0.00000000000E+00  0.45593999997E+02  0.45594000000E+02  0.51100000000E-03 0.  1.
         11   -1    0    0    0    0 -0.00000000000E+00 -0.00000000000E+00 -0.45593999997E+02  0.45594000000E+02  0.51100000000E-03 0. -1.
    9900012    2    1    2    0    0  0.35423081219E+02 -0.49713385600E+01 -0.19330188689E+02  0.50528867141E+02  0.30000022162E+02 0.  0.
        -12    1    1    2    0    0 -0.35423081219E+02  0.49713385600E+01  0.19330188689E+02  0.40659132859E+02  0.00000000000E+00 0.  1.
         11    1    3    3    0    0  0.14530425263E+02 -0.89848045194E+01 -0.43018248641E+01  0.17617198075E+02  0.51100000000E-03 0. -1.
        -11    1    3    3    0    0  0.12185005261E+02 -0.78692671328E+01 -0.65616834092E+01  0.15920282907E+02  0.51100000000E-03 0.  1.
         12    1    3    3    0    0  0.87076506940E+01  0.11882733092E+02 -0.84666804154E+01  0.16991386159E+02  0.00000000000E+00 0. -1.
</event>
<event>
 7    1  0.5441610E-013  0.5052886E+02  0.7816164E-02  0.1300439E+00
        -11   -1    0    0    0    0  0.00000000000E+00  0.00000000000E+00  0.45593999997E+02  0.45594000000E+02  0.51100000000E-03 0.  1.
         11   -1    0    0    0    0 -0.00000000000E+00 -0.00000000000E+00 -0.45593999997E+02  0.45594000000E+02  0.51100000000E-03 0. -1.
    9900012    2    1    2    0    0  0.64118805031E+01  0.36010930583E+02 -0.17755733529E+02  0.50528863190E+02  0.30000010152E+02 0.  0.
        -12    1    1    2    0    0 -0.64118805031E+01 -0.36010930583E+02  0.17755733529E+02  0.40659136810E+02  0.00000000000E+00 0.  1.
         11    1    3    3    0    0 -0.10907326963E+01  0.16543345407E+02 -0.49009495667E+01  0.17288472517E+02  0.51100000000E-03 0. -1.
        -11    1    3    3    0    0  0.15347572305E+02  0.10804409992E+02 -0.97358892412E+01  0.21144048584E+02  0.51100000000E-03 0.  1.
         12    1    3    3    0    0 -0.78449591061E+01  0.86631751839E+01 -0.31188947207E+01  0.12096342088E+02  0.00000000000E+00 0. -1.
</event>
<event>
 7    1  0.5441610E-013  0.5052887E+02  0.7816164E-02  0.1300439E+00
        -11   -1    0    0    0    0  0.00000000000E+00  0.00000000000E+00  0.45593999997E+02  0.45594000000E+02  0.51100000000E-03 0.  1.
         11   -1    0    0    0    0 -0.00000000000E+00 -0.00000000000E+00 -0.45593999997E+02  0.45594000000E+02  0.51100000000E-03 0. -1.
    9900012    2    1    2    0    0 -0.29140454320E+02 -0.11569238451E+02 -0.25887284744E+02  0.50528869811E+02  0.30000030277E+02 0.  0.
        -12    1    1    2    0    0  0.29140454320E+02  0.11569238451E+02  0.25887284744E+02  0.40659130189E+02  0.00000000000E+00 0.  1.
         11    1    3    3    0    0 -0.17750335436E+02  0.25861667006E+01 -0.17704524364E+02  0.25203429320E+02  0.51100000000E-03 0. -1.
        -11    1    3    3    0    0 -0.96795448549E+01 -0.12501347894E+02  0.99721875220E+00  0.15842087403E+02  0.51100000000E-03 0.  1.
         12    1    3    3    0    0 -0.17105740291E+01 -0.16540572570E+01 -0.91799791325E+01  0.94833530880E+01  0.00000000000E+00 0. -1.
</event>
<event>
 7    1  0.5441610E-013  0.5052886E+02  0.7816164E-02  0.1300439E+00
        -11   -1    0    0    0    0  0.00000000000E+00  0.00000000000E+00  0.45593999997E+02  0.45594000000E+02  0.51100000000E-03 0.  1.
         11   -1    0    0    0    0 -0.00000000000E+00 -0.00000000000E+00 -0.45593999997E+02  0.45594000000E+02  0.51100000000E-03 0. -1.
    9900012    2    1    2    0    0 -0.18332875581E+02 -0.32970474970E+02 -0.15166371312E+02  0.50528863688E+02  0.30000011667E+02 0.  0.
        -12    1    1    2    0    0  0.18332875581E+02  0.32970474970E+02  0.15166371312E+02  0.40659136312E+02  0.00000000000E+00 0.  1.
         11    1    3    3    0    0  0.57673568445E+01 -0.59736609546E+01 -0.59960653767E+01  0.10242061825E+02  0.51100000000E-03 0. -1.
        -11    1    3    3    0    0 -0.59723952362E+01 -0.14066494584E+02  0.19356872522E+01  0.15403981957E+02  0.51100000000E-03 0.  1.
        -12    1    3    3    0    0 -0.18127837190E+02 -0.12930319431E+02 -0.11105993188E+02  0.24882819906E+02  0.00000000000E+00 0.  1.
</event>
<event>
 7    1  0.5441610E-013  0.5052886E+02  0.7816164E-02  0.1300439E+00
        -11   -1    0    0    0    0  0.00000000000E+00  0.00000000000E+00  0.45593999997E+02  0.45594000000E+02  0.51100000000E-03 0.  1.
         11   -1    0    0    0    0 -0.00000000000E+00 -0.00000000000E+00 -0.45593999997E+02  0.45594000000E+02  0.51100000000E-03 0. -1.
    9900012    2    1    2    0    0 -0.95129679385E+01  0.10660289749E+01 -0.39516233350E+02  0.50528859885E+02  0.30000000106E+02 0.  0.
        -12    1    1    2    0    0  0.95129679385E+01 -0.10660289749E+01  0.39516233350E+02  0.40659140115E+02  0.00000000000E+00 0.  1.
         11    1    3    3    0    0 -0.10007866863E+01 -0.58186802893E+01 -0.78434921966E+01  0.98172798880E+01  0.51100000000E-03 0. -1.
        -11    1    3    3    0    0  0.11243264881E+01  0.15157095281E+01  0.34307819110E+01  0.39155778893E+01  0.51100000000E-03 0.  1.
         12    1    3    3    0    0 -0.96365077402E+01  0.53689997360E+01 -0.35103523064E+02  0.36796002107E+02  0.00000000000E+00 0. -1.
</event>
<event>
 7    1  0.5441610E-013  0.5052884E+02  0.7816164E-02  0.1300439E+00
        -11   -1    0    0    0    0  0.00000000000E+00  0.00000000000E+00  0.45593999997E+02  0.45594000000E+02  0.51100000000E-03 0.  1.
         11   -1    0    0    0    0 -0.00000000000E+00 -0.00000000000E+00 -0.45593999997E+02  0.45594000000E+02  0.51100000000E-03 0. -1.
    9900012    2    1    2    0    0  0.18606687781E+02 -0.17556513089E+02 -0.31602643898E+02  0.50528842564E+02  0.29999947459E+02 0.  0.
        -12    1    1    2    0    0 -0.18606687781E+02  0.17556513089E+02  0.31602643898E+02  0.40659157436E+02  0.00000000000E+00 0.  1.
         11    1    3    3    0    0 -0.10045525015E+01  0.15860490835E+01  0.61254275746E+00  0.19748129821E+01  0.51100000000E-03 0. -1.
        -11    1    3    3    0    0  0.53320554178E+01 -0.15337135096E+02 -0.40306019301E+01  0.16730340108E+02  0.51100000000E-03 0.  1.
         12    1    3    3    0    0  0.14279184865E+02 -0.38054270765E+01 -0.28184584725E+02  0.31823689475E+02  0.00000000000E+00 0. -1.
</event>
<event>
 7    1  0.5567145E-013  0.5052886E+02  0.7816164E-02  0.1300439E+00
        -11   -1    0    0    0    0  0.00000000000E+00  0.00000000000E+00  0.45593999997E+02  0.45594000000E+02  0.51100000000E-03 0.  1.
         11   -1    0    0    0    0 -0.00000000000E+00 -0.00000000000E+00 -0.45593999997E+02  0.45594000000E+02  0.51100000000E-03 0. -1.
    9900012    2    1    2    0    0 -0.24217119396E+02 -0.26293727825E+02 -0.19373612296E+02  0.50528857754E+02  0.29999993630E+02 0.  0.
        -12    1    1    2    0    0  0.24217119396E+02  0.26293727825E+02  0.19373612296E+02  0.40659142246E+02  0.00000000000E+00 0.  1.
         11    1    3    3    0    0 -0.12172081985E+02 -0.17064718524E+02 -0.18972289150E+02  0.28272105581E+02  0.51100000000E-03 0. -1.
        -11    1    3    3    0    0 -0.14581691341E+02 -0.11684904122E+02 -0.80369352158E+00  0.18703171662E+02  0.51100000000E-03 0.  1.
        -12    1    3    3    0    0  0.25366539297E+01  0.24558948205E+01  0.40237037568E+00  0.35535805109E+01  0.00000000000E+00 0.  1.
</event>
<event>
 7    1  0.5441610E-013  0.5052890E+02  0.7816164E-02  0.1300439E+00
        -11   -1    0    0    0    0  0.00000000000E+00  0.00000000000E+00  0.45593999997E+02  0.45594000000E+02  0.51100000000E-03 0.  1.
         11   -1    0    0    0    0 -0.00000000000E+00 -0.00000000000E+00 -0.45593999997E+02  0.45594000000E+02  0.51100000000E-03 0. -1.
    9900012    2    1    2    0    0 -0.38697694223E+02  0.10493701220E+02 -0.67478259265E+01  0.50528899442E+02  0.30000120343E+02 0.  0.
        -12    1    1    2    0    0  0.38697694223E+02 -0.10493701220E+02  0.67478259265E+01  0.40659100558E+02  0.00000000000E+00 0.  1.
         11    1    3    3    0    0 -0.47153880177E+01 -0.38335759729E+01 -0.67628634756E+01  0.90921675935E+01  0.51100000000E-03 0. -1.
        -11    1    3    3    0    0 -0.33097099598E+01 -0.31317011155E+01  0.38105009639E+01  0.59398358354E+01  0.51100000000E-03 0.  1.
         12    1    3    3    0    0 -0.30672596245E+02  0.17458978309E+02 -0.37954634147E+01  0.35496896013E+02  0.00000000000E+00 0. -1.
</event>
<event>
 7    1  0.5441610E-013  0.5052886E+02  0.7816164E-02  0.1300439E+00
        -11   -1    0    0    0    0  0.00000000000E+00  0.00000000000E+00  0.45593999997E+02  0.45594000000E+02  0.51100000000E-03 0.  1.
         11   -1    0    0    0    0 -0.00000000000E+00 -0.00000000000E+00 -0.45593999997E+02  0.45594000000E+02  0.51100000000E-03 0. -1.
    9900012    2    1    2    0    0 -0.50156708192E+01 -0.38635132603E+02 -0.11633358724E+02  0.50528862525E+02  0.30000008130E+02 0.  0.
        -12    1    1    2    0    0  0.50156708192E+01  0.38635132603E+02  0.11633358724E+02  0.40659137475E+02  0.00000000000E+00 0.  1.
         11    1    3    3    0    0 -0.51112824628E+01 -0.59624038196E+01  0.34942945133E+01  0.85956711273E+01  0.51100000000E-03 0.  1.
        -11    1    3    3    0    0 -0.82036132092E+01 -0.28745301641E+02 -0.12316138828E+02  0.32330773452E+02  0.51100000000E-03 0. -1.
        -12    1    3    3    0    0  0.82992248528E+01 -0.39274271424E+01 -0.28115144096E+01  0.96024179450E+01  0.00000000000E+00 0.  1.
</event>
<event>
 7    1  0.5441610E-013  0.5052893E+02  0.7816164E-02  0.1300439E+00
        -11   -1    0    0    0    0  0.00000000000E+00  0.00000000000E+00  0.45593999997E+02  0.45594000000E+02  0.51100000000E-03 0. -1.
         11   -1    0    0    0    0 -0.00000000000E+00 -0.00000000000E+00 -0.45593999997E+02  0.45594000000E+02  0.51100000000E-03 0.  1.
    9900012    2    1    2    0    0 -0.12785026295E+02  0.37394699909E+02 -0.95571822787E+01  0.50528927067E+02  0.30000204312E+02 0.  0.
        -12    1    1    2    0    0  0.12785026295E+02 -0.37394699909E+02  0.95571822787E+01  0.40659072933E+02  0.00000000000E+00 0.  1.
         11    1    3    3    0    0 -0.47732889884E+01  0.22799992853E+02  0.20953952785E+01  0.23388344180E+02  0.51100000000E-03 0. -1.
        -11    1    3    3    0    0 -0.58886621996E+00  0.27900072071E+01  0.47941142140E+01  0.55780314627E+01  0.51100000000E-03 0.  1.
        -12    1    3    3    0    0 -0.74228710866E+01  0.11804699849E+02 -0.16446691771E+02  0.21562551424E+02  0.00000000000E+00 0.  1.
</event>
<event>
 7    1  0.5441610E-013  0.5052889E+02  0.7816164E-02  0.1300439E+00
        -11   -1    0    0    0    0  0.00000000000E+00  0.00000000000E+00  0.45593999997E+02  0.45594000000E+02  0.51100000000E-03 0.  1.
         11   -1    0    0    0    0 -0.00000000000E+00 -0.00000000000E+00 -0.45593999997E+02  0.45594000000E+02  0.51100000000E-03 0. -1.
    9900012    2    1    2    0    0  0.11925641450E+02 -0.20003072954E+02 -0.33328955881E+02  0.50528890913E+02  0.30000094419E+02 0.  0.
        -12    1    1    2    0    0 -0.11925641450E+02  0.20003072954E+02  0.33328955881E+02  0.40659109087E+02  0.00000000000E+00 0.  1.
         11    1    3    3    0    0  0.79740182897E+01 -0.13526570074E+02 -0.47047730470E+01  0.16391703857E+02  0.51100000000E-03 0. -1.
        -11    1    3    3    0    0 -0.17281237464E+01 -0.10453215236E+02 -0.22567310784E+02  0.24930696675E+02  0.51100000000E-03 0.  1.
        -12    1    3    3    0    0  0.56797469070E+01  0.39767123558E+01 -0.60568720507E+01  0.92064903805E+01  0.00000000000E+00 0.  1.
</event>
<event>
 7    1  0.5441610E-013  0.5052886E+02  0.7816164E-02  0.1300439E+00
        -11   -1    0    0    0    0  0.00000000000E+00  0.00000000000E+00  0.45593999997E+02  0.45594000000E+02  0.51100000000E-03 0.  1.
         11   -1    0    0    0    0 -0.00000000000E+00 -0.00000000000E+00 -0.45593999997E+02  0.45594000000E+02  0.51100000000E-03 0. -1.
    9900012    2    1    2    0    0 -0.23510896514E+02 -0.13162831195E+02 -0.30449025166E+02  0.50528861869E+02  0.30000006138E+02 0.  0.
        -12    1    1    2    0    0  0.23510896514E+02  0.13162831195E+02  0.30449025166E+02  0.40659138131E+02  0.00000000000E+00 0.  1.
         11    1    3    3    0    0 -0.13089182920E+02  0.79941974794E-01 -0.21088883772E+01  0.13258224266E+02  0.51100000000E-03 0. -1.
        -11    1    3    3    0    0 -0.12574141241E+02 -0.25384284412E+01 -0.18869859678E+02  0.22817192015E+02  0.51100000000E-03 0.  1.
        -12    1    3    3    0    0  0.21524276472E+01 -0.10704344728E+02 -0.94702771110E+01  0.14453445589E+02  0.00000000000E+00 0.  1.
</event>
<event>
 7    1  0.5441610E-013  0.5052886E+02  0.7816164E-02  0.1300439E+00
        -11   -1    0    0    0    0  0.00000000000E+00  0.00000000000E+00  0.45593999997E+02  0.45594000000E+02  0.51100000000E-03 0.  1.
         11   -1    0    0    0    0 -0.00000000000E+00 -0.00000000000E+00 -0.45593999997E+02  0.45594000000E+02  0.51100000000E-03 0. -1.
    9900012    2    1    2    0    0 -0.29573599141E+02  0.19177956736E+02 -0.20267550524E+02  0.50528863327E+02  0.30000010569E+02 0.  0.
        -12    1    1    2    0    0  0.29573599141E+02 -0.19177956736E+02  0.20267550524E+02  0.40659136673E+02  0.00000000000E+00 0.  1.
         11    1    3    3    0    0 -0.20685343406E+00  0.53832913810E+01  0.56353808545E+00  0.54166585522E+01  0.51100000000E-03 0. -1.
        -11    1    3    3    0    0 -0.35638929124E+01 -0.98645509355E-01 -0.14759974780E+02  0.15184463092E+02  0.51100000000E-03 0.  1.
         12    1    3    3    0    0 -0.25802852794E+02  0.13893310865E+02 -0.60711138299E+01  0.29927741683E+02  0.00000000000E+00 0. -1.
</event>
<event>
 7    1  0.5562177E-013  0.5052889E+02  0.7816164E-02  0.1300439E+00
        -11   -1    0    0    0    0  0.00000000000E+00  0.00000000000E+00  0.45593999997E+02  0.45594000000E+02  0.51100000000E-03 0.  1.
         11   -1    0    0    0    0 -0.00000000000E+00 -0.00000000000E+00 -0.45593999997E+02  0.45594000000E+02  0.51100000000E-03 0. -1.
    9900012    2    1    2    0    0 -0.80736618525E+01  0.37036967704E+02 -0.14705181202E+02  0.50528888517E+02  0.30000087137E+02 0.  0.
        -12    1    1    2    0    0  0.80736618525E+01 -0.37036967704E+02  0.14705181202E+02  0.40659111483E+02  0.00000000000E+00 0.  1.
         11    1    3    3    0    0  0.45401943489E+01  0.18463085505E+02 -0.26551363935E+01  0.19197620702E+02  0.51100000000E-03 0. -1.
        -11    1    3    3    0    0 -0.26687808092E+00  0.13934652786E+02 -0.11601335661E+02  0.18133856776E+02  0.51100000000E-03 0.  1.
        -12    1    3    3    0    0 -0.12346978121E+02  0.46392294135E+01 -0.44870914669E+00  0.13197411040E+02  0.00000000000E+00 0.  1.
</event>
<event>
 7    1  0.5441610E-013  0.5052884E+02  0.7816164E-02  0.1300439E+00
        -11   -1    0    0    0    0  0.00000000000E+00  0.00000000000E+00  0.45593999997E+02  0.45594000000E+02  0.51100000000E-03 0.  1.
         11   -1    0    0    0    0 -0.00000000000E+00 -0.00000000000E+00 -0.45593999997E+02  0.45594000000E+02  0.51100000000E-03 0. -1.
    9900012    2    1    2    0    0 -0.23895459566E+02  0.30748256095E+02 -0.11692701450E+02  0.50528837343E+02  0.29999931588E+02 0.  0.
        -12    1    1    2    0    0  0.23895459566E+02 -0.30748256095E+02  0.11692701450E+02  0.40659162657E+02  0.00000000000E+00 0.  1.
         11    1    3    3    0    0 -0.13094397890E+01  0.21949635821E+02 -0.22689975734E+01  0.22105417786E+02  0.51100000000E-03 0. -1.
        -11    1    3    3    0    0 -0.82207999791E+01  0.89347091216E+01 -0.21829665056E+01  0.12335960539E+02  0.51100000000E-03 0.  1.
         12    1    3    3    0    0 -0.14365219798E+02 -0.13608884737E+00 -0.72407373704E+01  0.16087459019E+02  0.00000000000E+00 0. -1.
</event>
<event>
 7    1  0.5441610E-013  0.5052886E+02  0.7816164E-02  0.1300439E+00
        -11   -1    0    0    0    0  0.00000000000E+00  0.00000000000E+00  0.45593999997E+02  0.45594000000E+02  0.51100000000E-03 0. -1.
         11   -1    0    0    0    0 -0.00000000000E+00 -0.00000000000E+00 -0.45593999997E+02  0.45594000000E+02  0.51100000000E-03 0.  1.
    9900012    2    1    2    0    0  0.50142095499E+01 -0.22888954169E+02  0.33228292308E+02  0.50528856747E+02  0.29999990567E+02 0.  0.
        -12    1    1    2    0    0 -0.50142095499E+01  0.22888954169E+02 -0.33228292308E+02  0.40659143253E+02  0.00000000000E+00 0.  1.
         11    1    3    3    0    0  0.28391718061E+01 -0.15407566036E+02  0.15302409865E+02  0.21900176612E+02  0.51100000000E-03 0. -1.
        -11    1    3    3    0    0  0.23390677188E+01 -0.23343130526E+01  0.21884944526E+02  0.22133030799E+02  0.51100000000E-03 0.  1.
        -12    1    3    3    0    0 -0.16402997493E+00 -0.51470750809E+01 -0.39590620822E+01  0.64956493356E+01  0.00000000000E+00 0.  1.
</event>
<event>
 7    1  0.5441610E-013  0.5052885E+02  0.7816164E-02  0.1300439E+00
        -11   -1    0    0    0    0  0.00000000000E+00  0.00000000000E+00  0.45593999997E+02  0.45594000000E+02  0.51100000000E-03 0. -1.
         11   -1    0    0    0    0 -0.00000000000E+00 -0.00000000000E+00 -0.45593999997E+02  0.45594000000E+02  0.51100000000E-03 0.  1.
    9900012    2    1    2    0    0 -0.16916789491E+02 -0.16385375092E+02  0.33143748834E+02  0.50528851332E+02  0.29999974109E+02 0.  0.
        -12    1    1    2    0    0  0.16916789491E+02  0.16385375092E+02 -0.33143748834E+02  0.40659148668E+02  0.00000000000E+00 0.  1.
         11    1    3    3    0    0  0.32123196616E+01 -0.80916647197E+01  0.13273899182E+02  0.15874206604E+02  0.51100000000E-03 0. -1.
        -11    1    3    3    0    0 -0.16903310534E+02 -0.10023936177E+00  0.19548334865E+02  0.25843168366E+02  0.51100000000E-03 0.  1.
         12    1    3    3    0    0 -0.32257986185E+01 -0.81934710105E+01  0.32151478747E+00  0.88114763624E+01  0.00000000000E+00 0. -1.
</event>
<event>
 7    1  0.5441610E-013  0.5052887E+02  0.7816164E-02  0.1300439E+00
        -11   -1    0    0    0    0  0.00000000000E+00  0.00000000000E+00  0.45593999997E+02  0.45594000000E+02  0.51100000000E-03 0.  1.
         11   -1    0    0    0    0 -0.00000000000E+00 -0.00000000000E+00 -0.45593999997E+02  0.45594000000E+02  0.51100000000E-03 0. -1.
    9900012    2    1    2    0    0  0.31537117979E+02  0.16056660020E+02 -0.20018958721E+02  0.50528870033E+02  0.30000030951E+02 0.  0.
        -12    1    1    2    0    0 -0.31537117979E+02 -0.16056660020E+02  0.20018958721E+02  0.40659129967E+02  0.00000000000E+00 0.  1.
         11    1    3    3    0    0 -0.97589257465E+00  0.60881043558E+01  0.21787315291E+00  0.61696717852E+01  0.51100000000E-03 0. -1.
        -11    1    3    3    0    0  0.22942758325E+02  0.14115689529E+02 -0.76302239851E+01  0.27997199302E+02  0.51100000000E-03 0.  1.
         12    1    3    3    0    0  0.95702522286E+01 -0.41471338648E+01 -0.12606607889E+02  0.16361998945E+02  0.00000000000E+00 0. -1.
</event>
<event>
 7    1  0.5441610E-013  0.5052887E+02  0.7816164E-02  0.1300439E+00
        -11   -1    0    0    0    0  0.00000000000E+00  0.00000000000E+00  0.45593999997E+02  0.45594000000E+02  0.51100000000E-03 0.  1.
         11   -1    0    0    0    0 -0.00000000000E+00 -0.00000000000E+00 -0.45593999997E+02  0.45594000000E+02  0.51100000000E-03 0. -1.
    9900012    2    1    2    0    0  0.33723187101E+02 -0.28860501531E+01 -0.22529578393E+02  0.50528873886E+02  0.30000042665E+02 0.  0.
        -12    1    1    2    0    0 -0.33723187101E+02  0.28860501531E+01  0.22529578393E+02  0.40659126114E+02  0.00000000000E+00 0.  1.
         11    1    3    3    0    0  0.16563483237E+02  0.60399701099E+01 -0.24668105401E+02  0.30320713056E+02  0.51100000000E-03 0. -1.
        -11    1    3    3    0    0  0.71166880284E+01 -0.59274867393E+01 -0.87317708253E+00  0.93029450185E+01  0.51100000000E-03 0.  1.
        -12    1    3    3    0    0  0.10043015836E+02 -0.29985335238E+01  0.30117040907E+01  0.10905215812E+02  0.00000000000E+00 0.  1.
</event>
<event>
 7    1  0.5441610E-013  0.5052885E+02  0.7816164E-02  0.1300439E+00
        -11   -1    0    0    0    0  0.00000000000E+00  0.00000000000E+00  0.45593999997E+02  0.45594000000E+02  0.51100000000E-03 0.  1.
         11   -1    0    0    0    0 -0.00000000000E+00 -0.00000000000E+00 -0.45593999997E+02  0.45594000000E+02  0.51100000000E-03 0. -1.
    9900012    2    1    2    0    0  0.14688189148E+02 -0.27531183557E+02 -0.26066408291E+02  0.50528848389E+02  0.29999965164E+02 0.  0.
        -12    1    1    2    0    0 -0.14688189148E+02  0.27531183557E+02  0.26066408291E+02  0.40659151611E+02  0.00000000000E+00 0.  1.
         11    1    3    3    0    0 -0.44312562587E+01 -0.92936322012E+01 -0.17799992210E+02  0.20563252526E+02  0.51100000000E-03 0. -1.
        -11    1    3    3    0    0  0.11893801058E+01 -0.18539283444E+01  0.25571392679E+01  0.33750017539E+01  0.51100000000E-03 0.  1.
        -12    1    3    3    0    0  0.17930065301E+02 -0.16383623012E+02 -0.10823555349E+02  0.26590594109E+02  0.00000000000E+00 0.  1.
</event>
<event>
 7    1  0.5441610E-013  0.5052888E+02  0.7816164E-02  0.1300439E+00
        -11   -1    0    0    0    0  0.00000000000E+00  0.00000000000E+00  0.45593999997E+02  0.45594000000E+02  0.51100000000E-03 0. -1.
         11   -1    0    0    0    0 -0.00000000000E+00 -0.00000000000E+00 -0.45593999997E+02  0.45594000000E+02  0.51100000000E-03 0.  1.
    9900012    2    1    2    0    0 -0.27858160381E+02 -0.25528016650E+02  0.15013581707E+02  0.50528875937E+02  0.30000048899E+02 0.  0.
        -12    1    1    2    0    0  0.27858160381E+02  0.25528016650E+02 -0.15013581707E+02  0.40659124063E+02  0.00000000000E+00 0.  1.
         11    1    3    3    0    0 -0.20065943443E+02 -0.24418576141E+02  0.85890587479E+01  0.32751807239E+02  0.51100000000E-03 0. -1.
        -11    1    3    3    0    0  0.13351764946E+01 -0.60325454286E+01  0.28880720599E+01  0.68202097552E+01  0.51100000000E-03 0.  1.
        -12    1    3    3    0    0 -0.91273934329E+01  0.49231049200E+01  0.35364508995E+01  0.10956858943E+02  0.00000000000E+00 0.  1.
</event>
<event>
 7    1  0.5441610E-013  0.5052885E+02  0.7816164E-02  0.1300439E+00
        -11   -1    0    0    0    0  0.00000000000E+00  0.00000000000E+00  0.45593999997E+02  0.45594000000E+02  0.51100000000E-03 0. -1.
         11   -1    0    0    0    0 -0.00000000000E+00 -0.00000000000E+00 -0.45593999997E+02  0.45594000000E+02  0.51100000000E-03 0.  1.
    9900012    2    1    2    0    0  0.25737869239E+00 -0.24650248788E+01  0.40583537365E+02  0.50528854700E+02  0.29999984346E+02 0.  0.
        -12    1    1    2    0    0 -0.25737869239E+00  0.24650248788E+01 -0.40583537365E+02  0.40659145300E+02  0.00000000000E+00 0.  1.
         11    1    3    3    0    0  0.34720895657E+01 -0.51436662457E+01  0.22955398638E+02  0.23779466674E+02  0.51100000000E-03 0. -1.
        -11    1    3    3    0    0 -0.67631639203E+01  0.79728566398E+01  0.17487445875E+02  0.20374434782E+02  0.51100000000E-03 0.  1.
         12    1    3    3    0    0  0.35484530469E+01 -0.52942152729E+01  0.14069285231E+00  0.63749532438E+01  0.00000000000E+00 0. -1.
</event>
<event>
 7    1  0.5441610E-013  0.5052886E+02  0.7816164E-02  0.1300439E+00
        -11   -1    0    0    0    0  0.00000000000E+00  0.00000000000E+00  0.45593999997E+02  0.45594000000E+02  0.51100000000E-03 0. -1.
         11   -1    0    0    0    0 -0.00000000000E+00 -0.00000000000E+00 -0.45593999997E+02  0.45594000000E+02  0.51100000000E-03 0.  1.
    9900012    2    1    2    0    0  0.10341092305E+02 -0.13033398753E+02  0.37099300555E+02  0.50528858657E+02  0.29999996373E+02 0.  0.
        -12    1    1    2    0    0 -0.10341092305E+02  0.13033398753E+02 -0.37099300555E+02  0.40659141343E+02  0.00000000000E+00 0.  1.
         11    1    3    3    0    0  0.82290807927E+01 -0.13816310505E+02  0.71880751971E+01  0.17614670930E+02  0.51100000000E-03 0.  1.
        -11    1    3    3    0    0  0.18698456458E+01 -0.56058392693E+01  0.21797034237E+02  0.22583898212E+02  0.51100000000E-03 0. -1.
        -12    1    3    3    0    0  0.24216586679E+00  0.63887510216E+01  0.81141911209E+01  0.10330289515E+02  0.00000000000E+00 0.  1.
</event>
<event>
 7    1  0.5441610E-013  0.5052886E+02  0.7816164E-02  0.1300439E+00
        -11   -1    0    0    0    0  0.00000000000E+00  0.00000000000E+00  0.45593999997E+02  0.45594000000E+02  0.51100000000E-03 0. -1.
         11   -1    0    0    0    0 -0.00000000000E+00 -0.00000000000E+00 -0.45593999997E+02  0.45594000000E+02  0.51100000000E-03 0.  1.
    9900012    2    1    2    0    0  0.23896331839E+02  0.19805297270E+02  0.26265588974E+02  0.50528860320E+02  0.30000001430E+02 0.  0.
        -12    1    1    2    0    0 -0.23896331839E+02 -0.19805297270E+02 -0.26265588974E+02  0.40659139680E+02  0.00000000000E+00 0.  1.
         11    1    3    3    0    0  0.27265739305E+01  0.81232017062E+01 -0.11400508768E+01  0.86440920646E+01  0.51100000000E-03 0. -1.
        -11    1    3    3    0    0  0.28706838103E+00  0.65713861080E+00 -0.31709637203E+01  0.32510383858E+01  0.51100000000E-03 0.  1.
         12    1    3    3    0    0  0.20882689528E+02  0.11024956953E+02  0.30576603571E+02  0.38633729870E+02  0.00000000000E+00 0. -1.
</event>
<event>
 7    1  0.5441610E-013  0.5052886E+02  0.7816164E-02  0.1300439E+00
        -11   -1    0    0    0    0  0.00000000000E+00  0.00000000000E+00  0.45593999997E+02  0.45594000000E+02  0.51100000000E-03 0.  1.
         11   -1    0    0    0    0 -0.00000000000E+00 -0.00000000000E+00 -0.45593999997E+02  0.45594000000E+02  0.51100000000E-03 0. -1.
    9900012    2    1    2    0    0 -0.23056873652E+02 -0.16801443074E+02 -0.28969940156E+02  0.50528863947E+02  0.30000012453E+02 0.  0.
        -12    1    1    2    0    0  0.23056873652E+02  0.16801443074E+02  0.28969940156E+02  0.40659136053E+02  0.00000000000E+00 0.  1.
         11    1    3    3    0    0 -0.98618349207E+00  0.26103673327E+01 -0.42383289582E+01  0.50744465817E+01  0.51100000000E-03 0. -1.
        -11    1    3    3    0    0  0.20592635213E+01  0.30357560014E+01 -0.73041012953E+01  0.81735106743E+01  0.51100000000E-03 0.  1.
         12    1    3    3    0    0 -0.24129953681E+02 -0.22447566408E+02 -0.17427509902E+02  0.37280906691E+02  0.00000000000E+00 0. -1.
</event>
<event>
 7    1  0.5441610E-013  0.5052886E+02  0.7816164E-02  0.1300439E+00
        -11   -1    0    0    0    0  0.00000000000E+00  0.00000000000E+00  0.45593999997E+02  0.45594000000E+02  0.51100000000E-03 0.  1.
         11   -1    0    0    0    0 -0.00000000000E+00 -0.00000000000E+00 -0.45593999997E+02  0.45594000000E+02  0.51100000000E-03 0. -1.
    9900012    2    1    2    0    0  0.66452854376E+01 -0.18816609292E+02 -0.35425148508E+02  0.50528858954E+02  0.29999997278E+02 0.  0.
        -12    1    1    2    0    0 -0.66452854376E+01  0.18816609292E+02  0.35425148508E+02  0.40659141046E+02  0.00000000000E+00 0.  1.
         11    1    3    3    0    0  0.63178345054E+01 -0.70443511502E+01 -0.90645338971E+01  0.13103575504E+02  0.51100000000E-03 0. -1.
        -11    1    3    3    0    0 -0.23641905373E+01 -0.15463105814E+02 -0.28399650671E+02  0.32422788233E+02  0.51100000000E-03 0.  1.
        -12    1    3    3    0    0  0.26916414695E+01  0.36908476727E+01  0.20390360603E+01  0.50024952172E+01  0.00000000000E+00 0.  1.
</event>
<event>
 7    1  0.5441610E-013  0.5052884E+02  0.7816164E-02  0.1300439E+00
        -11   -1    0    0    0    0  0.00000000000E+00  0.00000000000E+00  0.45593999997E+02  0.45594000000E+02  0.51100000000E-03 0.  1.
         11   -1    0    0    0    0 -0.00000000000E+00 -0.00000000000E+00 -0.45593999997E+02  0.45594000000E+02  0.51100000000E-03 0. -1.
    9900012    2    1    2    0    0  0.10668505271E+02 -0.29850845325E+02  0.25461294337E+02  0.50528837679E+02  0.29999932608E+02 0.  0.
        -12    1    1    2    0    0 -0.10668505271E+02  0.29850845325E+02 -0.25461294337E+02  0.40659162321E+02  0.00000000000E+00 0.  1.
         11    1    3    3    0    0  0.80410919805E+01 -0.10161217039E+02 -0.32509125899E+01  0.13359563050E+02  0.51100000000E-03 0. -1.
        -11    1    3    3    0    0 -0.43813429753E+01 -0.26585425267E+01  0.51753721334E+01  0.72834395456E+01  0.51100000000E-03 0.  1.
        -12    1    3    3    0    0  0.70087562658E+01 -0.17031085759E+02  0.23536834793E+02  0.29885835083E+02  0.00000000000E+00 0.  1.
</event>
<event>
 7    1  0.5441610E-013  0.5052887E+02  0.7816164E-02  0.1300439E+00
        -11   -1    0    0    0    0  0.00000000000E+00  0.00000000000E+00  0.45593999997E+02  0.45594000000E+02  0.51100000000E-03 0. -1.
         11   -1    0    0    0    0 -0.00000000000E+00 -0.00000000000E+00 -0.45593999997E+02  0.45594000000E+02  0.51100000000E-03 0.  1.
    9900012    2    1    2    0    0 -0.27719766522E+02  0.52020815701E+01  0.29286822478E+02  0.50528867206E+02  0.30000022358E+02 0.  0.
        -12    1    1    2    0    0  0.27719766522E+02 -0.52020815701E+01 -0.29286822478E+02  0.40659132794E+02  0.00000000000E+00 0.  1.
         11    1    3    3    0    0  0.33755502288E+01 -0.15104635372E+01  0.47918785148E+01  0.60529281680E+01  0.51100000000E-03 0. -1.
        -11    1    3    3    0    0 -0.11497862622E+02  0.12057503614E+02  0.90682894515E+01  0.18968872189E+02  0.51100000000E-03 0.  1.
        -12    1    3    3    0    0 -0.19597454129E+02 -0.53449585071E+01  0.15426654512E+02  0.25507066849E+02  0.00000000000E+00 0.  1.
</event>
<event>
 7    1  0.5441610E-013  0.5052885E+02  0.7816164E-02  0.1300439E+00
        -11   -1    0    0    0    0  0.00000000000E+00  0.00000000000E+00  0.45593999997E+02  0.45594000000E+02  0.51100000000E-03 0.  1.
         11   -1    0    0    0    0 -0.00000000000E+00 -0.00000000000E+00 -0.45593999997E+02  0.45594000000E+02  0.51100000000E-03 0. -1.
    9900012    2    1    2    0    0  0.34854237971E+02  0.17536634675E+02 -0.11437428251E+02  0.50528853117E+02  0.29999979535E+02 0.  0.
        -12    1    1    2    0    0 -0.34854237971E+02 -0.17536634675E+02  0.11437428251E+02  0.40659146883E+02  0.00000000000E+00 0.  1.
         11    1    3    3    0    0  0.11719168937E+02  0.13660818461E+02 -0.17470853423E+01  0.18083395396E+02  0.51100000000E-03 0.  1.
        -11    1    3    3    0    0  0.12033711272E+02  0.14107796884E+01 -0.15501628741E+02  0.19674882469E+02  0.51100000000E-03 0. -1.
         12    1    3    3    0    0  0.11101357762E+02  0.24650365256E+01  0.58112858324E+01  0.12770575251E+02  0.00000000000E+00 0. -1.
</event>
<event>
 7    1  0.5441610E-013  0.5052885E+02  0.7816164E-02  0.1300439E+00
        -11   -1    0    0    0    0  0.00000000000E+00  0.00000000000E+00  0.45593999997E+02  0.45594000000E+02  0.51100000000E-03 0.  1.
         11   -1    0    0    0    0 -0.00000000000E+00 -0.00000000000E+00 -0.45593999997E+02  0.45594000000E+02  0.51100000000E-03 0. -1.
    9900012    2    1    2    0    0  0.25857786586E+02 -0.30487957655E+02 -0.74179521008E+01  0.50528847248E+02  0.29999961696E+02 0.  0.
        -12    1    1    2    0    0 -0.25857786586E+02  0.30487957655E+02  0.74179521008E+01  0.40659152752E+02  0.00000000000E+00 0.  1.
         11    1    3    3    0    0  0.15719182095E+02 -0.16676319199E+02 -0.11257600604E+02  0.25532839235E+02  0.51100000000E-03 0. -1.
        -11    1    3    3    0    0 -0.39492941928E+01 -0.78516137511E+01 -0.12442851039E+01  0.88765426152E+01  0.51100000000E-03 0.  1.
        -12    1    3    3    0    0  0.14087898684E+02 -0.59600247048E+01  0.50839336074E+01  0.16119465398E+02  0.00000000000E+00 0.  1.
</event>
<event>
 7    1  0.6413152E-013  0.5052887E+02  0.7816164E-02  0.1300439E+00
        -11   -1    0    0    0    0  0.00000000000E+00  0.00000000000E+00  0.45593999997E+02  0.45594000000E+02  0.51100000000E-03 0. -1.
         11   -1    0    0    0    0 -0.00000000000E+00 -0.00000000000E+00 -0.45593999997E+02  0.45594000000E+02  0.51100000000E-03 0.  1.
    9900012    2    1    2    0    0  0.13021462536E+02 -0.19351852319E+02  0.33303340319E+02  0.50528866326E+02  0.30000019683E+02 0.  0.
        -12    1    1    2    0    0 -0.13021462536E+02  0.19351852319E+02 -0.33303340319E+02  0.40659133674E+02  0.00000000000E+00 0.  1.
         11    1    3    3    0    0  0.18362381981E+02 -0.14634225396E+02  0.20039688412E+02  0.30869511445E+02  0.51100000000E-03 0. -1.
        -11    1    3    3    0    0  0.39884624437E+00 -0.49883235402E+01 -0.21304183905E+00  0.50087760136E+01  0.51100000000E-03 0.  1.
         12    1    3    3    0    0 -0.57397656888E+01  0.27069661656E+00  0.13476693746E+02  0.14650578867E+02  0.00000000000E+00 0. -1.
</event>
<event>
 7    1  0.5441610E-013  0.5052887E+02  0.7816164E-02  0.1300439E+00
        -11   -1    0    0    0    0  0.00000000000E+00  0.00000000000E+00  0.45593999997E+02  0.45594000000E+02  0.51100000000E-03 0.  1.
         11   -1    0    0    0    0 -0.00000000000E+00 -0.00000000000E+00 -0.45593999997E+02  0.45594000000E+02  0.51100000000E-03 0. -1.
    9900012    2    1    2    0    0 -0.24188724676E+02 -0.31478597944E+02 -0.87845660164E+01  0.50528866585E+02  0.30000020472E+02 0.  0.
        -12    1    1    2    0    0  0.24188724676E+02  0.31478597944E+02  0.87845660164E+01  0.40659133415E+02  0.00000000000E+00 0.  1.
         11    1    3    3    0    0 -0.20547415249E+01 -0.84423945638E+01  0.27140495928E+01  0.91028596693E+01  0.51100000000E-03 0. -1.
        -11    1    3    3    0    0  0.13294758617E+01  0.38581168558E+01 -0.16456117376E+01  0.44000693167E+01  0.51100000000E-03 0.  1.
         12    1    3    3    0    0 -0.23463459013E+02 -0.26894320236E+02 -0.98530038716E+01  0.37025937599E+02  0.00000000000E+00 0. -1.
</event>
<event>
 7    1  0.5441610E-013  0.5052887E+02  0.7816164E-02  0.1300439E+00
        -11   -1    0    0    0    0  0.00000000000E+00  0.00000000000E+00  0.45593999997E+02  0.45594000000E+02  0.51100000000E-03 0. -1.
         11   -1    0    0    0    0 -0.00000000000E+00 -0.00000000000E+00 -0.45593999997E+02  0.45594000000E+02  0.51100000000E-03 0.  1.
    9900012    2    1    2    0    0 -0.99754408963E+01 -0.12833704985E+01  0.39395540176E+02  0.50528867610E+02  0.30000023588E+02 0.  0.
        -12    1    1    2    0    0  0.99754408963E+01  0.12833704985E+01 -0.39395540176E+02  0.40659132390E+02  0.00000000000E+00 0.  1.
         11    1    3    3    0    0  0.24731596667E+01 -0.71238974042E+01  0.21205996072E+02  0.22506903444E+02  0.51100000000E-03 0. -1.
        -11    1    3    3    0    0 -0.48091960902E+00  0.33506476662E+01 -0.23495614490E+01  0.41205051532E+01  0.51100000000E-03 0.  1.
         12    1    3    3    0    0 -0.11967680954E+02  0.24898792395E+01  0.20539105553E+02  0.23901459013E+02  0.00000000000E+00 0. -1.
</event>
<event>
 7    1  0.7463313E-013  0.5052886E+02  0.7816164E-02  0.1300439E+00
        -11   -1    0    0    0    0  0.00000000000E+00  0.00000000000E+00  0.45593999997E+02  0.45594000000E+02  0.51100000000E-03 0.  1.
         11   -1    0    0    0    0 -0.00000000000E+00 -0.00000000000E+00 -0.45593999997E+02  0.45594000000E+02  0.51100000000E-03 0. -1.
    9900012    2    1    2    0    0  0.30080329757E+02 -0.26993434657E+02  0.44377825117E+01  0.50528859988E+02  0.30000000420E+02 0.  0.
        -12    1    1    2    0    0 -0.30080329757E+02  0.26993434657E+02 -0.44377825117E+01  0.40659140012E+02  0.00000000000E+00 0.  1.
         11    1    3    3    0    0  0.17974142756E+02 -0.92873219276E+01  0.16460377608E+01  0.20298610715E+02  0.51100000000E-03 0. -1.
        -11    1    3    3    0    0  0.12545648127E+02 -0.14680026498E+02 -0.65575704586E+01  0.20393582213E+02  0.51100000000E-03 0.  1.
        -12    1    3    3    0    0 -0.43946112596E+00 -0.30260862318E+01  0.93493152096E+01  0.98366670601E+01  0.00000000000E+00 0.  1.
</event>
<event>
 7    1  0.5441610E-013  0.5052888E+02  0.7816164E-02  0.1300439E+00
        -11   -1    0    0    0    0  0.00000000000E+00  0.00000000000E+00  0.45593999997E+02  0.45594000000E+02  0.51100000000E-03 0. -1.
         11   -1    0    0    0    0 -0.00000000000E+00 -0.00000000000E+00 -0.45593999997E+02  0.45594000000E+02  0.51100000000E-03 0.  1.
    9900012    2    1    2    0    0 -0.20172116430E+01  0.30492689445E+02  0.26819594816E+02  0.50528881484E+02  0.30000065759E+02 0.  0.
        -12    1    1    2    0    0  0.20172116430E+01 -0.30492689445E+02 -0.26819594816E+02  0.40659118516E+02  0.00000000000E+00 0.  1.
         11    1    3    3    0    0 -0.33604504632E+01  0.52498939192E+01  0.17567544890E+02  0.18640618209E+02  0.51100000000E-03 0. -1.
        -11    1    3    3    0    0  0.18245093922E+01  0.16627707568E+02  0.14199799253E+02  0.21941827467E+02  0.51100000000E-03 0.  1.
         12    1    3    3    0    0 -0.48127057192E+00  0.86150879574E+01 -0.49477493274E+01  0.99464358080E+01  0.00000000000E+00 0. -1.
</event>
<event>
 7    1  0.5441610E-013  0.5052885E+02  0.7816164E-02  0.1300439E+00
        -11   -1    0    0    0    0  0.00000000000E+00  0.00000000000E+00  0.45593999997E+02  0.45594000000E+02  0.51100000000E-03 0. -1.
         11   -1    0    0    0    0 -0.00000000000E+00 -0.00000000000E+00 -0.45593999997E+02  0.45594000000E+02  0.51100000000E-03 0.  1.
    9900012    2    1    2    0    0  0.31791597082E+02  0.24921818997E+02  0.46220554234E+01  0.50528854614E+02  0.29999984086E+02 0.  0.
        -12    1    1    2    0    0 -0.31791597082E+02 -0.24921818997E+02 -0.46220554234E+01  0.40659145386E+02  0.00000000000E+00 0.  1.
         11    1    3    3    0    0  0.82163451877E+01  0.17626287821E+02  0.72506411806E+01  0.20754906610E+02  0.51100000000E-03 0. -1.
        -11    1    3    3    0    0  0.90199248214E+01  0.81103776140E+01 -0.76667571460E+01  0.14349788647E+02  0.51100000000E-03 0.  1.
         12    1    3    3    0    0  0.14555327073E+02 -0.81484643879E+00  0.50381713887E+01  0.15424159357E+02  0.00000000000E+00 0. -1.
</event>
<event>
 7    1  0.5441610E-013  0.5052887E+02  0.7816164E-02  0.1300439E+00
        -11   -1    0    0    0    0  0.00000000000E+00  0.00000000000E+00  0.45593999997E+02  0.45594000000E+02  0.51100000000E-03 0.  1.
         11   -1    0    0    0    0 -0.00000000000E+00 -0.00000000000E+00 -0.45593999997E+02  0.45594000000E+02  0.51100000000E-03 0. -1.
    9900012    2    1    2    0    0  0.24668264345E+02 -0.30121373932E+02 -0.11719418512E+02  0.50528865681E+02  0.30000017723E+02 0.  0.
        -12    1    1    2    0    0 -0.24668264345E+02  0.30121373932E+02  0.11719418512E+02  0.40659134319E+02  0.00000000000E+00 0.  1.
         11    1    3    3    0    0  0.97989337751E+01 -0.22106014337E+02 -0.91770665435E+01  0.25863362574E+02  0.51100000000E-03 0. -1.
        -11    1    3    3    0    0  0.18719496186E+02 -0.43518958440E+01 -0.20760456602E+01  0.19330506997E+02  0.51100000000E-03 0.  1.
         12    1    3    3    0    0 -0.38501656165E+01 -0.36634637505E+01 -0.46630630805E+00  0.53349961104E+01  0.00000000000E+00 0. -1.
</event>
<event>
 7    1  0.5441610E-013  0.5052887E+02  0.7816164E-02  0.1300439E+00
        -11   -1    0    0    0    0  0.00000000000E+00  0.00000000000E+00  0.45593999997E+02  0.45594000000E+02  0.51100000000E-03 0.  1.
         11   -1    0    0    0    0 -0.00000000000E+00 -0.00000000000E+00 -0.45593999997E+02  0.45594000000E+02  0.51100000000E-03 0. -1.
    9900012    2    1    2    0    0  0.22039683220E+02 -0.32888432645E+02  0.92611058639E+01  0.50528871626E+02  0.30000035796E+02 0.  0.
        -12    1    1    2    0    0 -0.22039683220E+02  0.32888432645E+02 -0.92611058639E+01  0.40659128374E+02  0.00000000000E+00 0.  1.
         11    1    3    3    0    0  0.63215459285E+00  0.17892695069E+01 -0.55472999868E+01  0.58629039052E+01  0.51100000000E-03 0. -1.
        -11    1    3    3    0    0  0.31141467963E+01 -0.50528445636E+01 -0.16408868436E+01  0.61580563774E+01  0.51100000000E-03 0.  1.
         12    1    3    3    0    0  0.18293381831E+02 -0.29624857588E+02  0.16449292694E+02  0.38507911344E+02  0.00000000000E+00 0. -1.
</event>
<event>
 7    1  0.5441610E-013  0.5052886E+02  0.7816164E-02  0.1300439E+00
        -11   -1    0    0    0    0  0.00000000000E+00  0.00000000000E+00  0.45593999997E+02  0.45594000000E+02  0.51100000000E-03 0.  1.
         11   -1    0    0    0    0 -0.00000000000E+00 -0.00000000000E+00 -0.45593999997E+02  0.45594000000E+02  0.51100000000E-03 0. -1.
    9900012    2    1    2    0    0 -0.13109906810E+02  0.29072187312E+02 -0.25221105338E+02  0.50528857288E+02  0.29999992212E+02 0.  0.
        -12    1    1    2    0    0  0.13109906810E+02 -0.29072187312E+02  0.25221105338E+02  0.40659142712E+02  0.00000000000E+00 0.  1.
         11    1    3    3    0    0 -0.16167778749E+02  0.19744506147E+02 -0.19561724218E+02  0.32154372134E+02  0.51100000000E-03 0. -1.
        -11    1    3    3    0    0  0.29070239200E+01  0.96132738587E+01 -0.99113280949E+01  0.14110288701E+02  0.51100000000E-03 0.  1.
        -12    1    3    3    0    0  0.15084801885E+00 -0.28559269448E+00  0.42519469751E+01  0.42641964532E+01  0.00000000000E+00 0.  1.
</event>
<event>
 7    1  0.5441610E-013  0.5052887E+02  0.7816164E-02  0.1300439E+00
        -11   -1    0    0    0    0  0.00000000000E+00  0.00000000000E+00  0.45593999997E+02  0.45594000000E+02  0.51100000000E-03 0.  1.
         11   -1    0    0    0    0 -0.00000000000E+00 -0.00000000000E+00 -0.45593999997E+02  0.45594000000E+02  0.51100000000E-03 0. -1.
    9900012    2    1    2    0    0 -0.40600020129E+02 -0.16454500020E+01 -0.14477574060E+01  0.50528866442E+02  0.30000020037E+02 0.  0.
        -12    1    1    2    0    0  0.40600020129E+02  0.16454500020E+01  0.14477574060E+01  0.40659133558E+02  0.00000000000E+00 0.  1.
         11    1    3    3    0    0 -0.95734619663E+01 -0.56191146436E+01  0.39125950421E+01  0.11770047732E+02  0.51100000000E-03 0.  1.
        -11    1    3    3    0    0 -0.18431964343E+02  0.37220462301E+01  0.79652459347E+01  0.20421461279E+02  0.51100000000E-03 0. -1.
         12    1    3    3    0    0 -0.12594593819E+02  0.25161841143E+00 -0.13325598383E+02  0.18337357431E+02  0.00000000000E+00 0. -1.
</event>
<event>
 7    1  0.5441610E-013  0.5052886E+02  0.7816164E-02  0.1300439E+00
        -11   -1    0    0    0    0  0.00000000000E+00  0.00000000000E+00  0.45593999997E+02  0.45594000000E+02  0.51100000000E-03 0.  1.
         11   -1    0    0    0    0 -0.00000000000E+00 -0.00000000000E+00 -0.45593999997E+02  0.45594000000E+02  0.51100000000E-03 0. -1.
    9900012    2    1    2    0    0 -0.21606321472E+02 -0.74012714734E+01 -0.33638573663E+02  0.50528860990E+02  0.30000003466E+02 0.  0.
        -12    1    1    2    0    0  0.21606321472E+02  0.74012714734E+01  0.33638573663E+02  0.40659139010E+02  0.00000000000E+00 0.  1.
         11    1    3    3    0    0 -0.29980124687E+01 -0.28627190915E+01 -0.50573960249E+01  0.65391508755E+01  0.51100000000E-03 0.  1.
        -11    1    3    3    0    0 -0.63153508581E+01  0.16807440160E+01  0.46468991095E+01  0.80188670336E+01  0.51100000000E-03 0. -1.
         12    1    3    3    0    0 -0.12292958145E+02 -0.62192963979E+01 -0.33228076747E+02  0.35970843081E+02  0.00000000000E+00 0. -1.
</event>
<event>
 7    1  0.5441610E-013  0.5052885E+02  0.7816164E-02  0.1300439E+00
        -11   -1    0    0    0    0  0.00000000000E+00  0.00000000000E+00  0.45593999997E+02  0.45594000000E+02  0.51100000000E-03 0.  1.
         11   -1    0    0    0    0 -0.00000000000E+00 -0.00000000000E+00 -0.45593999997E+02  0.45594000000E+02  0.51100000000E-03 0. -1.
    9900012    2    1    2    0    0 -0.11451320499E+02  0.13956870937E+02 -0.36431296649E+02  0.50528851423E+02  0.29999974384E+02 0.  0.
        -12    1    1    2    0    0  0.11451320499E+02 -0.13956870937E+02  0.36431296649E+02  0.40659148577E+02  0.00000000000E+00 0.  1.
         11    1    3    3    0    0 -0.10985111012E+02  0.93131722779E+01 -0.19342948466E+02  0.24115503259E+02  0.51100000000E-03 0. -1.
        -11    1    3    3    0    0 -0.34933665807E+01  0.11072005264E+02 -0.55635738094E+01  0.12874248111E+02  0.51100000000E-03 0.  1.
         12    1    3    3    0    0  0.30271570939E+01 -0.64283066045E+01 -0.11524774374E+02  0.13539100053E+02  0.00000000000E+00 0. -1.
</event>
<event>
 7    1  0.5441610E-013  0.5052886E+02  0.7816164E-02  0.1300439E+00
        -11   -1    0    0    0    0  0.00000000000E+00  0.00000000000E+00  0.45593999997E+02  0.45594000000E+02  0.51100000000E-03 0. -1.
         11   -1    0    0    0    0 -0.00000000000E+00 -0.00000000000E+00 -0.45593999997E+02  0.45594000000E+02  0.51100000000E-03 0.  1.
    9900012    2    1    2    0    0  0.98889853974E+01 -0.33643433140E+02  0.20578955781E+02  0.50528855313E+02  0.29999986210E+02 0.  0.
        -12    1    1    2    0    0 -0.98889853974E+01  0.33643433140E+02 -0.20578955781E+02  0.40659144687E+02  0.00000000000E+00 0.  1.
         11    1    3    3    0    0 -0.57495644080E+01 -0.26854354627E+02  0.11919012938E+02  0.29937881070E+02  0.51100000000E-03 0. -1.
        -11    1    3    3    0    0  0.61990194781E+00 -0.29907189406E+01  0.23919641713E+01  0.38794549959E+01  0.51100000000E-03 0.  1.
        -12    1    3    3    0    0  0.15018647858E+02 -0.37983595728E+01  0.62679786717E+01  0.16711519247E+02  0.00000000000E+00 0.  1.
</event>
<event>
 7    1  0.5441610E-013  0.5052887E+02  0.7816164E-02  0.1300439E+00
        -11   -1    0    0    0    0  0.00000000000E+00  0.00000000000E+00  0.45593999997E+02  0.45594000000E+02  0.51100000000E-03 0.  1.
         11   -1    0    0    0    0 -0.00000000000E+00 -0.00000000000E+00 -0.45593999997E+02  0.45594000000E+02  0.51100000000E-03 0. -1.
    9900012    2    1    2    0    0 -0.44627246541E+01 -0.24925064471E+02 -0.31811795260E+02  0.50528867350E+02  0.30000022797E+02 0.  0.
        -12    1    1    2    0    0  0.44627246541E+01  0.24925064471E+02  0.31811795260E+02  0.40659132650E+02  0.00000000000E+00 0.  1.
         11    1    3    3    0    0 -0.58921160354E+01 -0.13588142881E+02 -0.24012390743E+02  0.28212578184E+02  0.51100000000E-03 0. -1.
        -11    1    3    3    0    0 -0.58700958659E+01 -0.76006129619E+01  0.17153657604E+01  0.97555021821E+01  0.51100000000E-03 0.  1.
         12    1    3    3    0    0  0.72994872472E+01 -0.37363086277E+01 -0.95147702764E+01  0.12560786984E+02  0.00000000000E+00 0. -1.
</event>
<event>
 7    1  0.5441610E-013  0.5052886E+02  0.7816164E-02  0.1300439E+00
        -11   -1    0    0    0    0  0.00000000000E+00  0.00000000000E+00  0.45593999997E+02  0.45594000000E+02  0.51100000000E-03 0.  1.
         11   -1    0    0    0    0 -0.00000000000E+00 -0.00000000000E+00 -0.45593999997E+02  0.45594000000E+02  0.51100000000E-03 0. -1.
    9900012    2    1    2    0    0  0.26847355500E+02  0.28395012556E+02  0.11229795137E+02  0.50528861615E+02  0.30000005364E+02 0.  0.
        -12    1    1    2    0    0 -0.26847355500E+02 -0.28395012556E+02 -0.11229795137E+02  0.40659138385E+02  0.00000000000E+00 0.  1.
         11    1    3    3    0    0  0.23306246493E+02  0.25636589217E+02  0.11222880234E+02  0.36419347513E+02  0.51100000000E-03 0. -1.
        -11    1    3    3    0    0 -0.45176522929E+01  0.37838358852E+01  0.80075041073E+00  0.59470831277E+01  0.51100000000E-03 0.  1.
         12    1    3    3    0    0  0.80587613004E+01 -0.10254125470E+01 -0.79383550738E+00  0.81624309737E+01  0.00000000000E+00 0. -1.
</event>
<event>
 7    1  0.5441610E-013  0.5052885E+02  0.7816164E-02  0.1300439E+00
        -11   -1    0    0    0    0  0.00000000000E+00  0.00000000000E+00  0.45593999997E+02  0.45594000000E+02  0.51100000000E-03 0. -1.
         11   -1    0    0    0    0 -0.00000000000E+00 -0.00000000000E+00 -0.45593999997E+02  0.45594000000E+02  0.51100000000E-03 0.  1.
    9900012    2    1    2    0    0 -0.25389898187E+01 -0.11760199287E+02  0.38838353614E+02  0.50528850132E+02  0.29999970461E+02 0.  0.
        -12    1    1    2    0    0  0.25389898187E+01  0.11760199287E+02 -0.38838353614E+02  0.40659149868E+02  0.00000000000E+00 0.  1.
         11    1    3    3    0    0  0.43868015313E+01 -0.52355373587E+01  0.90028900568E+01  0.11300748150E+02  0.51100000000E-03 0. -1.
        -11    1    3    3    0    0 -0.86701060691E+01 -0.35640981848E+01  0.18163594160E+00  0.93758480681E+01  0.51100000000E-03 0.  1.
         12    1    3    3    0    0  0.17443147191E+01 -0.29605637439E+01  0.29653827615E+02  0.29852253914E+02  0.00000000000E+00 0. -1.
</event>
<event>
 7    1  0.5441610E-013  0.5052890E+02  0.7816164E-02  0.1300439E+00
        -11   -1    0    0    0    0  0.00000000000E+00  0.00000000000E+00  0.45593999997E+02  0.45594000000E+02  0.51100000000E-03 0. -1.
         11   -1    0    0    0    0 -0.00000000000E+00 -0.00000000000E+00 -0.45593999997E+02  0.45594000000E+02  0.51100000000E-03 0.  1.
    9900012    2    1    2    0    0 -0.10692858566E+02  0.37328410581E+02 -0.12058818149E+02  0.50528898240E+02  0.30000116690E+02 0.  0.
        -12    1    1    2    0    0  0.10692858566E+02 -0.37328410581E+02  0.12058818149E+02  0.40659101760E+02  0.00000000000E+00 0.  1.
         11    1    3    3    0    0 -0.11681958818E+02  0.16422954456E+02 -0.55942745947E+00  0.20161710102E+02  0.51100000000E-03 0. -1.
        -11    1    3    3    0    0 -0.20152073751E+01 -0.24215992856E+01 -0.50962875027E+01  0.59914397632E+01  0.51100000000E-03 0.  1.
         12    1    3    3    0    0  0.30043076269E+01  0.23327055410E+02 -0.64031031865E+01  0.24375748375E+02  0.00000000000E+00 0. -1.
</event>
<event>
 7    1  0.5441610E-013  0.5052887E+02  0.7816164E-02  0.1300439E+00
        -11   -1    0    0    0    0  0.00000000000E+00  0.00000000000E+00  0.45593999997E+02  0.45594000000E+02  0.51100000000E-03 0.  1.
         11   -1    0    0    0    0 -0.00000000000E+00 -0.00000000000E+00 -0.45593999997E+02  0.45594000000E+02  0.51100000000E-03 0. -1.
    9900012    2    1    2    0    0 -0.17691012006E+01  0.15977087950E+02 -0.37346594163E+02  0.50528866291E+02  0.30000019579E+02 0.  0.
        -12    1    1    2    0    0  0.17691012006E+01 -0.15977087950E+02  0.37346594163E+02  0.40659133709E+02  0.00000000000E+00 0.  1.
         11    1    3    3    0    0  0.40728959512E+01  0.15194363127E+02 -0.33602202542E+02  0.37102091157E+02  0.51100000000E-03 0. -1.
        -11    1    3    3    0    0 -0.36530136450E+01  0.55122836360E+01 -0.47201838004E+01  0.81246486044E+01  0.51100000000E-03 0.  1.
        -12    1    3    3    0    0 -0.21889835069E+01 -0.47295588131E+01  0.97579218012E+00  0.53021265299E+01  0.00000000000E+00 0.  1.
</event>
<event>
 7    1  0.5441610E-013  0.5052885E+02  0.7816164E-02  0.1300439E+00
        -11   -1    0    0    0    0  0.00000000000E+00  0.00000000000E+00  0.45593999997E+02  0.45594000000E+02  0.51100000000E-03 0.  1.
         11   -1    0    0    0    0 -0.00000000000E+00 -0.00000000000E+00 -0.45593999997E+02  0.45594000000E+02  0.51100000000E-03 0. -1.
    9900012    2    1    2    0    0 -0.85975119321E+00  0.11957615588E+02 -0.38851545782E+02  0.50528851554E+02  0.29999974785E+02 0.  0.
        -12    1    1    2    0    0  0.85975119321E+00 -0.11957615588E+02  0.38851545782E+02  0.40659148446E+02  0.00000000000E+00 0.  1.
         11    1    3    3    0    0 -0.42009786422E+01 -0.69667736147E+01 -0.12619312912E+02  0.15014366946E+02  0.51100000000E-03 0. -1.
        -11    1    3    3    0    0  0.47997075814E+01  0.50975436666E+01 -0.18100625199E+02  0.19407595862E+02  0.51100000000E-03 0.  1.
        -12    1    3    3    0    0 -0.14584801324E+01  0.13826845536E+02 -0.81316076715E+01  0.16106888747E+02  0.00000000000E+00 0.  1.
</event>
<event>
 7    1  0.5441610E-013  0.5052891E+02  0.7816164E-02  0.1300439E+00
        -11   -1    0    0    0    0  0.00000000000E+00  0.00000000000E+00  0.45593999997E+02  0.45594000000E+02  0.51100000000E-03 0.  1.
         11   -1    0    0    0    0 -0.00000000000E+00 -0.00000000000E+00 -0.45593999997E+02  0.45594000000E+02  0.51100000000E-03 0. -1.
    9900012    2    1    2    0    0  0.22056041351E+02  0.16474466257E+02 -0.29921309893E+02  0.50528907730E+02  0.30000145535E+02 0.  0.
        -12    1    1    2    0    0 -0.22056041351E+02 -0.16474466257E+02  0.29921309893E+02  0.40659092270E+02  0.00000000000E+00 0.  1.
         11    1    3    3    0    0  0.68842869632E+01  0.76519583565E+01 -0.17234440510E+02  0.20074157856E+02  0.51100000000E-03 0. -1.
        -11    1    3    3    0    0  0.15017885496E+02 -0.22036196301E+01 -0.12100935604E+02  0.19411992865E+02  0.51100000000E-03 0.  1.
        -12    1    3    3    0    0  0.15386889188E+00  0.11026127530E+02 -0.58593377912E+00  0.11042757008E+02  0.00000000000E+00 0.  1.
</event>
<event>
 7    1  0.5441610E-013  0.5052886E+02  0.7816164E-02  0.1300439E+00
        -11   -1    0    0    0    0  0.00000000000E+00  0.00000000000E+00  0.45593999997E+02  0.45594000000E+02  0.51100000000E-03 0.  1.
         11   -1    0    0    0    0 -0.00000000000E+00 -0.00000000000E+00 -0.45593999997E+02  0.45594000000E+02  0.51100000000E-03 0. -1.
    9900012    2    1    2    0    0 -0.34101701498E+02  0.21076512428E+01 -0.22040813594E+02  0.50528859543E+02  0.29999999067E+02 0.  0.
        -12    1    1    2    0    0  0.34101701498E+02 -0.21076512428E+01  0.22040813594E+02  0.40659140457E+02  0.00000000000E+00 0.  1.
         11    1    3    3    0    0 -0.76184266364E+01  0.72128705765E+01 -0.14005505800E+02  0.17499146246E+02  0.51100000000E-03 0. -1.
        -11    1    3    3    0    0 -0.16590445035E-01 -0.39862892877E+01 -0.49571587080E+01  0.63611477145E+01  0.51100000000E-03 0.  1.
        -12    1    3    3    0    0 -0.26466684416E+02 -0.11189300459E+01 -0.30781490863E+01  0.26668565583E+02  0.00000000000E+00 0.  1.
</event>
<event>
 7    1  0.5441610E-013  0.5052888E+02  0.7816164E-02  0.1300439E+00
        -11   -1    0    0    0    0  0.00000000000E+00  0.00000000000E+00  0.45593999997E+02  0.45594000000E+02  0.51100000000E-03 0. -1.
         11   -1    0    0    0    0 -0.00000000000E+00 -0.00000000000E+00 -0.45593999997E+02  0.45594000000E+02  0.51100000000E-03 0.  1.
    9900012    2    1    2    0    0  0.24323886428E+02 -0.31841853950E+02  0.68999492779E+01  0.50528875391E+02  0.30000047239E+02 0.  0.
        -12    1    1    2    0    0 -0.24323886428E+02  0.31841853950E+02 -0.68999492779E+01  0.40659124609E+02  0.00000000000E+00 0.  1.
         11    1    3    3    0    0  0.44758423810E+01 -0.42660929270E+01  0.25866890645E+01  0.67025125482E+01  0.51100000000E-03 0. -1.
        -11    1    3    3    0    0 -0.28714928585E+01 -0.19171209790E+02  0.22228560417E+01  0.19512094846E+02  0.51100000000E-03 0.  1.
         12    1    3    3    0    0  0.22719536905E+02 -0.84045512332E+01  0.20904041717E+01  0.24314267997E+02  0.00000000000E+00 0. -1.
</event>
<event>
 7    1  0.5441610E-013  0.5052886E+02  0.7816164E-02  0.1300439E+00
        -11   -1    0    0    0    0  0.00000000000E+00  0.00000000000E+00  0.45593999997E+02  0.45594000000E+02  0.51100000000E-03 0.  1.
         11   -1    0    0    0    0 -0.00000000000E+00 -0.00000000000E+00 -0.45593999997E+02  0.45594000000E+02  0.51100000000E-03 0. -1.
    9900012    2    1    2    0    0 -0.24083788993E+02  0.17784106831E+02 -0.27511126018E+02  0.50528863231E+02  0.30000010277E+02 0.  0.
        -12    1    1    2    0    0  0.24083788993E+02 -0.17784106831E+02  0.27511126018E+02  0.40659136769E+02  0.00000000000E+00 0.  1.
         11    1    3    3    0    0 -0.24409341044E+02  0.10695626207E+02 -0.28613635718E+02  0.39101822201E+02  0.51100000000E-03 0. -1.
        -11    1    3    3    0    0 -0.42396795914E+01  0.27908788789E+01  0.94439584029E-01  0.50766925306E+01  0.51100000000E-03 0.  1.
        -12    1    3    3    0    0  0.45652316419E+01  0.42976017448E+01  0.10080701166E+01  0.63503484992E+01  0.00000000000E+00 0.  1.
</event>
<event>
 7    1  0.5441610E-013  0.5052883E+02  0.7816164E-02  0.1300439E+00
        -11   -1    0    0    0    0  0.00000000000E+00  0.00000000000E+00  0.45593999997E+02  0.45594000000E+02  0.51100000000E-03 0.  1.
         11   -1    0    0    0    0 -0.00000000000E+00 -0.00000000000E+00 -0.45593999997E+02  0.45594000000E+02  0.51100000000E-03 0. -1.
    9900012    2    1    2    0    0 -0.92566475443E+01 -0.38213648468E+01 -0.39406595005E+02  0.50528830273E+02  0.29999910096E+02 0.  0.
        -12    1    1    2    0    0  0.92566475443E+01  0.38213648468E+01  0.39406595005E+02  0.40659169727E+02  0.00000000000E+00 0.  1.
         11    1    3    3    0    0  0.71894672626E+01  0.39124507659E+01 -0.14715087231E+02  0.16838334329E+02  0.51100000000E-03 0. -1.
        -11    1    3    3    0    0 -0.16572846042E+01  0.21935375393E+00  0.17164666264E+01  0.23960313582E+01  0.51100000000E-03 0.  1.
         12    1    3    3    0    0 -0.14788830203E+02 -0.79531693666E+01 -0.26407974400E+02  0.31294464585E+02  0.00000000000E+00 0. -1.
</event>
<event>
 7    1  0.5441610E-013  0.5052886E+02  0.7816164E-02  0.1300439E+00
        -11   -1    0    0    0    0  0.00000000000E+00  0.00000000000E+00  0.45593999997E+02  0.45594000000E+02  0.51100000000E-03 0.  1.
         11   -1    0    0    0    0 -0.00000000000E+00 -0.00000000000E+00 -0.45593999997E+02  0.45594000000E+02  0.51100000000E-03 0. -1.
    9900012    2    1    2    0    0 -0.12946274572E+02 -0.13169452090E+02 -0.36223263597E+02  0.50528864258E+02  0.30000013399E+02 0.  0.
        -12    1    1    2    0    0  0.12946274572E+02  0.13169452090E+02  0.36223263597E+02  0.40659135742E+02  0.00000000000E+00 0.  1.
         11    1    3    3    0    0 -0.16371521267E+02 -0.80270867872E+01 -0.20149196620E+02  0.27174454099E+02  0.51100000000E-03 0. -1.
        -11    1    3    3    0    0  0.18707268344E+01 -0.10698320418E+02 -0.12537388095E+02  0.16587337916E+02  0.51100000000E-03 0.  1.
        -12    1    3    3    0    0  0.15545198602E+01  0.55559551145E+01 -0.35366788816E+01  0.67670722429E+01  0.00000000000E+00 0.  1.
</event>
<event>
 7    1  0.5441610E-013  0.5052886E+02  0.7816164E-02  0.1300439E+00
        -11   -1    0    0    0    0  0.00000000000E+00  0.00000000000E+00  0.45593999997E+02  0.45594000000E+02  0.51100000000E-03 0. -1.
         11   -1    0    0    0    0 -0.00000000000E+00 -0.00000000000E+00 -0.45593999997E+02  0.45594000000E+02  0.51100000000E-03 0.  1.
    9900012    2    1    2    0    0 -0.14060626497E+02 -0.37392462980E+02  0.75675760167E+01  0.50528859429E+02  0.29999998721E+02 0.  0.
        -12    1    1    2    0    0  0.14060626497E+02  0.37392462980E+02 -0.75675760167E+01  0.40659140571E+02  0.00000000000E+00 0.  1.
         11    1    3    3    0    0  0.21523337701E+01 -0.66515457839E+01  0.94234980870E+01  0.11733623414E+02  0.51100000000E-03 0. -1.
        -11    1    3    3    0    0  0.55984092342E-02 -0.16315709872E+02  0.29086849555E+01  0.16572955934E+02  0.51100000000E-03 0.  1.
        -12    1    3    3    0    0 -0.16218558676E+02 -0.14425207324E+02 -0.47646070258E+01  0.22222280081E+02  0.00000000000E+00 0.  1.
</event>
<event>
 7    1  0.5441610E-013  0.5052886E+02  0.7816164E-02  0.1300439E+00
        -11   -1    0    0    0    0  0.00000000000E+00  0.00000000000E+00  0.45593999997E+02  0.45594000000E+02  0.51100000000E-03 0. -1.
         11   -1    0    0    0    0 -0.00000000000E+00 -0.00000000000E+00 -0.45593999997E+02  0.45594000000E+02  0.51100000000E-03 0.  1.
    9900012    2    1    2    0    0  0.97117817164E+01  0.30077781822E+02  0.25576830539E+02  0.50528856823E+02  0.29999990800E+02 0.  0.
        -12    1    1    2    0    0 -0.97117817164E+01 -0.30077781822E+02 -0.25576830539E+02  0.40659143177E+02  0.00000000000E+00 0.  1.
         11    1    3    3    0    0 -0.69011492192E+01  0.14038331035E+02  0.30547938302E+01  0.15938392779E+02  0.51100000000E-03 0. -1.
        -11    1    3    3    0    0  0.38749095624E+01  0.42846930667E+01 -0.47102448629E+00  0.57961524411E+01  0.51100000000E-03 0.  1.
         12    1    3    3    0    0  0.12738021373E+02  0.11754757721E+02  0.22993061195E+02  0.28794311603E+02  0.00000000000E+00 0. -1.
</event>
<event>
 7    1  0.5441610E-013  0.5052886E+02  0.7816164E-02  0.1300439E+00
        -11   -1    0    0    0    0  0.00000000000E+00  0.00000000000E+00  0.45593999997E+02  0.45594000000E+02  0.51100000000E-03 0. -1.
         11   -1    0    0    0    0 -0.00000000000E+00 -0.00000000000E+00 -0.45593999997E+02  0.45594000000E+02  0.51100000000E-03 0.  1.
    9900012    2    1    2    0    0  0.26704244678E+02  0.18321012004E+02  0.24584337311E+02  0.50528858276E+02  0.29999995216E+02 0.  0.
        -12    1    1    2    0    0 -0.26704244678E+02 -0.18321012004E+02 -0.24584337311E+02  0.40659141724E+02  0.00000000000E+00 0.  1.
         11    1    3    3    0    0  0.56348353953E+01 -0.37790311050E+01  0.79357326402E+01  0.10440703943E+02  0.51100000000E-03 0. -1.
        -11    1    3    3    0    0  0.11806687086E+02  0.94517450234E+00  0.11327647913E+02  0.16389228850E+02  0.51100000000E-03 0.  1.
        -12    1    3    3    0    0  0.92627221972E+01  0.21154868606E+02  0.53209567583E+01  0.23698925484E+02  0.00000000000E+00 0.  1.
</event>
<event>
 7    1  0.5441610E-013  0.5052887E+02  0.7816164E-02  0.1300439E+00
        -11   -1    0    0    0    0  0.00000000000E+00  0.00000000000E+00  0.45593999997E+02  0.45594000000E+02  0.51100000000E-03 0.  1.
         11   -1    0    0    0    0 -0.00000000000E+00 -0.00000000000E+00 -0.45593999997E+02  0.45594000000E+02  0.51100000000E-03 0. -1.
    9900012    2    1    2    0    0  0.86368397935E+01 -0.48556448665E+01 -0.39433389583E+02  0.50528874300E+02  0.30000043923E+02 0.  0.
        -12    1    1    2    0    0 -0.86368397935E+01  0.48556448665E+01  0.39433389583E+02  0.40659125700E+02  0.00000000000E+00 0.  1.
         11    1    3    3    0    0 -0.25771833203E+00 -0.11982328430E+02 -0.19240714501E+02  0.22668209195E+02  0.51100000000E-03 0. -1.
        -11    1    3    3    0    0  0.11201938744E+02 -0.34111217235E+00 -0.10030531287E+02  0.15040324042E+02  0.51100000000E-03 0.  1.
        -12    1    3    3    0    0 -0.23073806185E+01  0.74677957357E+01 -0.10162143794E+02  0.12820341063E+02  0.00000000000E+00 0.  1.
</event>
<event>
 7    1  0.5441610E-013  0.5052885E+02  0.7816164E-02  0.1300439E+00
        -11   -1    0    0    0    0  0.00000000000E+00  0.00000000000E+00  0.45593999997E+02  0.45594000000E+02  0.51100000000E-03 0.  1.
         11   -1    0    0    0    0 -0.00000000000E+00 -0.00000000000E+00 -0.45593999997E+02  0.45594000000E+02  0.51100000000E-03 0. -1.
    9900012    2    1    2    0    0 -0.34051342313E+02 -0.27240022614E+01 -0.22051133000E+02  0.50528848899E+02  0.29999966715E+02 0.  0.
        -12    1    1    2    0    0  0.34051342313E+02  0.27240022614E+01  0.22051133000E+02  0.40659151101E+02  0.00000000000E+00 0.  1.
         11    1    3    3    0    0 -0.58068657974E+01  0.29301114193E+01 -0.77009856957E+01  0.10080199614E+02  0.51100000000E-03 0. -1.
        -11    1    3    3    0    0 -0.78469244538E+01  0.53152367689E+01  0.45895655122E+01  0.10530435753E+02  0.51100000000E-03 0.  1.
         12    1    3    3    0    0 -0.20397552062E+02 -0.10969350450E+02 -0.18939712816E+02  0.29918213532E+02  0.00000000000E+00 0. -1.
</event>
<event>
 7    1  0.5441610E-013  0.5052887E+02  0.7816164E-02  0.1300439E+00
        -11   -1    0    0    0    0  0.00000000000E+00  0.00000000000E+00  0.45593999997E+02  0.45594000000E+02  0.51100000000E-03 0.  1.
         11   -1    0    0    0    0 -0.00000000000E+00 -0.00000000000E+00 -0.45593999997E+02  0.45594000000E+02  0.51100000000E-03 0. -1.
    9900012    2    1    2    0    0 -0.19971034418E+02  0.81741855183E+01 -0.34460205039E+02  0.50528865037E+02  0.30000015766E+02 0.  0.
        -12    1    1    2    0    0  0.19971034418E+02 -0.81741855183E+01  0.34460205039E+02  0.40659134963E+02  0.00000000000E+00 0.  1.
         11    1    3    3    0    0 -0.15367313842E+02  0.15067441059E+02 -0.27570890732E+02  0.34976222363E+02  0.51100000000E-03 0. -1.
        -11    1    3    3    0    0  0.10262670169E+01  0.24719994503E+01 -0.80696914255E-01  0.26777822028E+01  0.51100000000E-03 0.  1.
        -12    1    3    3    0    0 -0.56299875932E+01 -0.93652549907E+01 -0.68086173928E+01  0.12874860471E+02  0.00000000000E+00 0.  1.
</event>
<event>
 7    1  0.5441610E-013  0.5052886E+02  0.7816164E-02  0.1300439E+00
        -11   -1    0    0    0    0  0.00000000000E+00  0.00000000000E+00  0.45593999997E+02  0.45594000000E+02  0.51100000000E-03 0.  1.
         11   -1    0    0    0    0 -0.00000000000E+00 -0.00000000000E+00 -0.45593999997E+02  0.45594000000E+02  0.51100000000E-03 0. -1.
    9900012    2    1    2    0    0 -0.15949446815E+02  0.33538000775E+02 -0.16552447330E+02  0.50528857580E+02  0.29999993100E+02 0.  0.
        -12    1    1    2    0    0  0.15949446815E+02 -0.33538000775E+02  0.16552447330E+02  0.40659142420E+02  0.00000000000E+00 0.  1.
         11    1    3    3    0    0 -0.16889144053E-01  0.24486008711E+02 -0.93798044798E+01  0.26221091514E+02  0.51100000000E-03 0. -1.
        -11    1    3    3    0    0 -0.59552445915E+00  0.95130536944E+00 -0.68691220019E+01  0.69602060763E+01  0.51100000000E-03 0.  1.
        -12    1    3    3    0    0 -0.15337033212E+02  0.81006866945E+01 -0.30352084833E+00  0.17347559989E+02  0.00000000000E+00 0.  1.
</event>
<event>
 7    1  0.5441610E-013  0.5052885E+02  0.7816164E-02  0.1300439E+00
        -11   -1    0    0    0    0  0.00000000000E+00  0.00000000000E+00  0.45593999997E+02  0.45594000000E+02  0.51100000000E-03 0.  1.
         11   -1    0    0    0    0 -0.00000000000E+00 -0.00000000000E+00 -0.45593999997E+02  0.45594000000E+02  0.51100000000E-03 0. -1.
    9900012    2    1    2    0    0 -0.36268196547E+02  0.17169539685E+02 -0.65567541753E+01  0.50528853439E+02  0.29999980513E+02 0.  0.
        -12    1    1    2    0    0  0.36268196547E+02 -0.17169539685E+02  0.65567541753E+01  0.40659146561E+02  0.00000000000E+00 0.  1.
         11    1    3    3    0    0 -0.23051240703E+02  0.85169876244E+01 -0.96176981080E+01  0.26389370839E+02  0.51100000000E-03 0. -1.
        -11    1    3    3    0    0 -0.80774759160E+01 -0.46730093709E+01  0.31736619255E+01  0.98567116237E+01  0.51100000000E-03 0.  1.
        -12    1    3    3    0    0 -0.51394799278E+01  0.13325561432E+02 -0.11271799279E+00  0.14282770976E+02  0.00000000000E+00 0.  1.
</event>
<event>
 7    1  0.5441610E-013  0.5052886E+02  0.7816164E-02  0.1300439E+00
        -11   -1    0    0    0    0  0.00000000000E+00  0.00000000000E+00  0.45593999997E+02  0.45594000000E+02  0.51100000000E-03 0. -1.
         11   -1    0    0    0    0 -0.00000000000E+00 -0.00000000000E+00 -0.45593999997E+02  0.45594000000E+02  0.51100000000E-03 0.  1.
    9900012    2    1    2    0    0 -0.33766987135E+02 -0.21273791499E+02  0.77705788400E+01  0.50528861784E+02  0.30000005880E+02 0.  0.
        -12    1    1    2    0    0  0.33766987135E+02  0.21273791499E+02 -0.77705788400E+01  0.40659138216E+02  0.00000000000E+00 0.  1.
         11    1    3    3    0    0 -0.52106371309E+01 -0.13230837224E+02  0.11020351033E+02  0.17990384379E+02  0.51100000000E-03 0. -1.
        -11    1    3    3    0    0 -0.12654873600E+01 -0.10726884287E+01  0.32342267187E+01  0.36348784646E+01  0.51100000000E-03 0.  1.
         12    1    3    3    0    0 -0.27290862644E+02 -0.69702658466E+01 -0.64839989117E+01  0.28903598940E+02  0.00000000000E+00 0. -1.
</event>
<event>
 7    1  0.5441610E-013  0.5052882E+02  0.7816164E-02  0.1300439E+00
        -11   -1    0    0    0    0  0.00000000000E+00  0.00000000000E+00  0.45593999997E+02  0.45594000000E+02  0.51100000000E-03 0. -1.
         11   -1    0    0    0    0 -0.00000000000E+00 -0.00000000000E+00 -0.45593999997E+02  0.45594000000E+02  0.51100000000E-03 0.  1.
    9900012    2    1    2    0    0 -0.31106861000E+02  0.23289897550E+02  0.11962987469E+02  0.50528816556E+02  0.29999868403E+02 0.  0.
        -12    1    1    2    0    0  0.31106861000E+02 -0.23289897550E+02 -0.11962987469E+02  0.40659183444E+02  0.00000000000E+00 0.  1.
         11    1    3    3    0    0 -0.66071434212E+01  0.54586719004E+01 -0.40690597038E+01  0.94872909852E+01  0.51100000000E-03 0. -1.
        -11    1    3    3    0    0  0.37448626669E+01  0.19073616526E+01  0.55571599787E+01  0.69673561813E+01  0.51100000000E-03 0.  1.
        -12    1    3    3    0    0 -0.28244580245E+02  0.15923863997E+02  0.10474887194E+02  0.34074169389E+02  0.00000000000E+00 0.  1.
</event>
<event>
 7    1  0.5441610E-013  0.5052886E+02  0.7816164E-02  0.1300439E+00
        -11   -1    0    0    0    0  0.00000000000E+00  0.00000000000E+00  0.45593999997E+02  0.45594000000E+02  0.51100000000E-03 0. -1.
         11   -1    0    0    0    0 -0.00000000000E+00 -0.00000000000E+00 -0.45593999997E+02  0.45594000000E+02  0.51100000000E-03 0.  1.
    9900012    2    1    2    0    0  0.19169963390E+01  0.40569951001E+02 -0.18895034801E+01  0.50528855609E+02  0.29999987109E+02 0.  0.
        -12    1    1    2    0    0 -0.19169963390E+01 -0.40569951001E+02  0.18895034801E+01  0.40659144391E+02  0.00000000000E+00 0.  1.
         11    1    3    3    0    0 -0.29675436827E+01  0.10723022643E+02  0.74587553604E+01  0.13394870731E+02  0.51100000000E-03 0. -1.
        -11    1    3    3    0    0  0.55539755828E+01  0.93279342823E+01 -0.12285711558E+02  0.16394990439E+02  0.51100000000E-03 0.  1.
         12    1    3    3    0    0 -0.66943556123E+00  0.20518994076E+02  0.29374527175E+01  0.20738994439E+02  0.00000000000E+00 0. -1.
</event>
<event>
 7    1  0.5441610E-013  0.5052886E+02  0.7816164E-02  0.1300439E+00
        -11   -1    0    0    0    0  0.00000000000E+00  0.00000000000E+00  0.45593999997E+02  0.45594000000E+02  0.51100000000E-03 0.  1.
         11   -1    0    0    0    0 -0.00000000000E+00 -0.00000000000E+00 -0.45593999997E+02  0.45594000000E+02  0.51100000000E-03 0. -1.
    9900012    2    1    2    0    0 -0.50612292745E+01  0.40304328039E+02 -0.17637375715E+01  0.50528859937E+02  0.30000000264E+02 0.  0.
        -12    1    1    2    0    0  0.50612292745E+01 -0.40304328039E+02  0.17637375715E+01  0.40659140063E+02  0.00000000000E+00 0.  1.
         11    1    3    3    0    0  0.67370103958E+01  0.16015782028E+01 -0.66158606914E+01  0.95771590131E+01  0.51100000000E-03 0. -1.
        -11    1    3    3    0    0 -0.22013285305E+01  0.11145351250E+02 -0.58042911285E-01  0.11360812956E+02  0.51100000000E-03 0.  1.
        -12    1    3    3    0    0 -0.95969111398E+01  0.27557398587E+02  0.49101660311E+01  0.29590887968E+02  0.00000000000E+00 0.  1.
</event>
<event>
 7    1  0.5441610E-013  0.5052883E+02  0.7816164E-02  0.1300439E+00
        -11   -1    0    0    0    0  0.00000000000E+00  0.00000000000E+00  0.45593999997E+02  0.45594000000E+02  0.51100000000E-03 0. -1.
         11   -1    0    0    0    0 -0.00000000000E+00 -0.00000000000E+00 -0.45593999997E+02  0.45594000000E+02  0.51100000000E-03 0.  1.
    9900012    2    1    2    0    0 -0.25941412916E+02  0.50776612432E-01  0.31308279684E+02  0.50528833025E+02  0.29999918462E+02 0.  0.
        -12    1    1    2    0    0  0.25941412916E+02 -0.50776612432E-01 -0.31308279684E+02  0.40659166975E+02  0.00000000000E+00 0.  1.
         11    1    3    3    0    0 -0.19752074303E+02 -0.39313335620E+01  0.70759321874E+01  0.21346396403E+02  0.51100000000E-03 0. -1.
        -11    1    3    3    0    0  0.20695463755E+01  0.73906958980E+00 -0.10155347231E+01  0.24208587513E+01  0.51100000000E-03 0.  1.
         12    1    3    3    0    0 -0.82588849885E+01  0.32430405846E+01  0.25247882220E+02  0.26761577870E+02  0.00000000000E+00 0. -1.
</event>
<event>
 7    1  0.5441610E-013  0.5052886E+02  0.7816164E-02  0.1300439E+00
        -11   -1    0    0    0    0  0.00000000000E+00  0.00000000000E+00  0.45593999997E+02  0.45594000000E+02  0.51100000000E-03 0.  1.
         11   -1    0    0    0    0 -0.00000000000E+00 -0.00000000000E+00 -0.45593999997E+02  0.45594000000E+02  0.51100000000E-03 0. -1.
    9900012    2    1    2    0    0  0.63796041871E+01  0.35558064337E+02 -0.18657183674E+02  0.50528858449E+02  0.29999995742E+02 0.  0.
        -12    1    1    2    0    0 -0.63796041871E+01 -0.35558064337E+02  0.18657183674E+02  0.40659141551E+02  0.00000000000E+00 0.  1.
         11    1    3    3    0    0 -0.23603828663E+01  0.57504700029E+01  0.16416467076E+01  0.64291769850E+01  0.51100000000E-03 0. -1.
        -11    1    3    3    0    0  0.47432855226E+01  0.30158712348E+02 -0.85786845528E+01  0.31711835597E+02  0.51100000000E-03 0.  1.
        -12    1    3    3    0    0  0.39967015308E+01 -0.35111801302E+00 -0.11720145829E+02  0.12387845867E+02  0.00000000000E+00 0.  1.
</event>
<event>
 7    1  0.5441610E-013  0.5052887E+02  0.7816164E-02  0.1300439E+00
        -11   -1    0    0    0    0  0.00000000000E+00  0.00000000000E+00  0.45593999997E+02  0.45594000000E+02  0.51100000000E-03 0. -1.
         11   -1    0    0    0    0 -0.00000000000E+00 -0.00000000000E+00 -0.45593999997E+02  0.45594000000E+02  0.51100000000E-03 0.  1.
    9900012    2    1    2    0    0  0.24811509399E+02 -0.31484844130E+02 -0.68013858913E+01  0.50528865004E+02  0.30000015667E+02 0.  0.
        -12    1    1    2    0    0 -0.24811509399E+02  0.31484844130E+02  0.68013858913E+01  0.40659134996E+02  0.00000000000E+00 0.  1.
         11    1    3    3    0    0  0.20555081363E+01 -0.12028148234E+02 -0.54464376697E+01  0.13362827066E+02  0.51100000000E-03 0. -1.
        -11    1    3    3    0    0  0.24073953670E+01 -0.12755179856E+02  0.62835932114E+01  0.14421293614E+02  0.51100000000E-03 0.  1.
        -12    1    3    3    0    0  0.20348605896E+02 -0.67015160407E+01 -0.76385414330E+01  0.22744744324E+02  0.00000000000E+00 0.  1.
</event>
<event>
 7    1  0.5441610E-013  0.5052886E+02  0.7816164E-02  0.1300439E+00
        -11   -1    0    0    0    0  0.00000000000E+00  0.00000000000E+00  0.45593999997E+02  0.45594000000E+02  0.51100000000E-03 0.  1.
         11   -1    0    0    0    0 -0.00000000000E+00 -0.00000000000E+00 -0.45593999997E+02  0.45594000000E+02  0.51100000000E-03 0. -1.
    9900012    2    1    2    0    0 -0.20986616127E+02  0.30102489808E+02  0.17509067659E+02  0.50528863272E+02  0.30000010403E+02 0.  0.
        -12    1    1    2    0    0  0.20986616127E+02 -0.30102489808E+02 -0.17509067659E+02  0.40659136728E+02  0.00000000000E+00 0.  1.
         11    1    3    3    0    0  0.16091755972E+01  0.11372489315E+02 -0.34325491855E+01  0.11987716776E+02  0.51100000000E-03 0. -1.
        -11    1    3    3    0    0 -0.91549114209E+01  0.16024256636E+02  0.99356708072E+01  0.20959645954E+02  0.51100000000E-03 0.  1.
        -12    1    3    3    0    0 -0.13440880304E+02  0.27057438574E+01  0.11005946037E+02  0.17581500543E+02  0.00000000000E+00 0.  1.
</event>
<event>
 7    1  0.5441610E-013  0.5052886E+02  0.7816164E-02  0.1300439E+00
        -11   -1    0    0    0    0  0.00000000000E+00  0.00000000000E+00  0.45593999997E+02  0.45594000000E+02  0.51100000000E-03 0.  1.
         11   -1    0    0    0    0 -0.00000000000E+00 -0.00000000000E+00 -0.45593999997E+02  0.45594000000E+02  0.51100000000E-03 0. -1.
    9900012    2    1    2    0    0  0.15444180258E+02  0.26344224988E+02 -0.26844460360E+02  0.50528856550E+02  0.29999989970E+02 0.  0.
        -12    1    1    2    0    0 -0.15444180258E+02 -0.26344224988E+02  0.26844460360E+02  0.40659143450E+02  0.00000000000E+00 0.  1.
         11    1    3    3    0    0 -0.13470579895E+01 -0.14784936766E+01 -0.62518342436E+01  0.65639881513E+01  0.51100000000E-03 0. -1.
        -11    1    3    3    0    0 -0.28872192555E+01 -0.14384530666E+01 -0.20399015563E+00  0.32321501355E+01  0.51100000000E-03 0.  1.
         12    1    3    3    0    0  0.19678457502E+02  0.29261171732E+02 -0.20388635961E+02  0.40732718263E+02  0.00000000000E+00 0. -1.
</event>
<event>
 7    1  0.5441610E-013  0.5052886E+02  0.7816164E-02  0.1300439E+00
        -11   -1    0    0    0    0  0.00000000000E+00  0.00000000000E+00  0.45593999997E+02  0.45594000000E+02  0.51100000000E-03 0.  1.
         11   -1    0    0    0    0 -0.00000000000E+00 -0.00000000000E+00 -0.45593999997E+02  0.45594000000E+02  0.51100000000E-03 0. -1.
    9900012    2    1    2    0    0  0.17212968211E+02 -0.36320390220E+02 -0.61407543778E+01  0.50528857305E+02  0.29999992264E+02 0.  0.
        -12    1    1    2    0    0 -0.17212968211E+02  0.36320390220E+02  0.61407543778E+01  0.40659142695E+02  0.00000000000E+00 0.  1.
         11    1    3    3    0    0  0.12478993085E+02 -0.25470949430E+02  0.36209704517E+01  0.28593809830E+02  0.51100000000E-03 0. -1.
        -11    1    3    3    0    0 -0.42764862996E+01  0.36155163777E-01  0.72545209579E+00  0.43377325034E+01  0.51100000000E-03 0.  1.
         12    1    3    3    0    0  0.90104614257E+01 -0.10885595953E+02 -0.10487176925E+02  0.17597314972E+02  0.00000000000E+00 0. -1.
</event>
<event>
 7    1  0.5441610E-013  0.5052886E+02  0.7816164E-02  0.1300439E+00
        -11   -1    0    0    0    0  0.00000000000E+00  0.00000000000E+00  0.45593999997E+02  0.45594000000E+02  0.51100000000E-03 0.  1.
         11   -1    0    0    0    0 -0.00000000000E+00 -0.00000000000E+00 -0.45593999997E+02  0.45594000000E+02  0.51100000000E-03 0. -1.
    9900012    2    1    2    0    0  0.27681917053E+02  0.30190084318E+01 -0.29627061380E+02  0.50528859458E+02  0.29999998807E+02 0.  0.
        -12    1    1    2    0    0 -0.27681917053E+02 -0.30190084318E+01  0.29627061380E+02  0.40659140542E+02  0.00000000000E+00 0.  1.
         11    1    3    3    0    0  0.10591469389E+02  0.82630564248E+01 -0.18146488152E+02  0.22577696025E+02  0.51100000000E-03 0. -1.
        -11    1    3    3    0    0  0.23816485546E+01  0.54599257464E+01 -0.70471162538E+01  0.92273986989E+01  0.51100000000E-03 0.  1.
        -12    1    3    3    0    0  0.14708799109E+02 -0.10703973739E+02 -0.44334569742E+01  0.18723764734E+02  0.00000000000E+00 0.  1.
</event>
<event>
 7    1  0.5441610E-013  0.5052886E+02  0.7816164E-02  0.1300439E+00
        -11   -1    0    0    0    0  0.00000000000E+00  0.00000000000E+00  0.45593999997E+02  0.45594000000E+02  0.51100000000E-03 0. -1.
         11   -1    0    0    0    0 -0.00000000000E+00 -0.00000000000E+00 -0.45593999997E+02  0.45594000000E+02  0.51100000000E-03 0.  1.
    9900012    2    1    2    0    0  0.12069066539E+02 -0.38793646049E+02  0.15988755669E+01  0.50528859035E+02  0.29999997524E+02 0.  0.
        -12    1    1    2    0    0 -0.12069066539E+02  0.38793646049E+02 -0.15988755669E+01  0.40659140965E+02  0.00000000000E+00 0.  1.
         11    1    3    3    0    0  0.18065577186E+02 -0.18265421167E+02 -0.49424859085E+01  0.26161400129E+02  0.51100000000E-03 0. -1.
        -11    1    3    3    0    0 -0.71022154674E+00 -0.48145207681E+01 -0.25129120692E+01  0.54771116659E+01  0.51100000000E-03 0.  1.
        -12    1    3    3    0    0 -0.52862891011E+01 -0.15713704114E+02  0.90542735446E+01  0.18890347240E+02  0.00000000000E+00 0.  1.
</event>
<event>
 7    1  0.5441610E-013  0.5052886E+02  0.7816164E-02  0.1300439E+00
        -11   -1    0    0    0    0  0.00000000000E+00  0.00000000000E+00  0.45593999997E+02  0.45594000000E+02  0.51100000000E-03 0. -1.
         11   -1    0    0    0    0 -0.00000000000E+00 -0.00000000000E+00 -0.45593999997E+02  0.45594000000E+02  0.51100000000E-03 0.  1.
    9900012    2    1    2    0    0 -0.25271585413E+02  0.30079234214E+02  0.10476255890E+02  0.50528864524E+02  0.30000014207E+02 0.  0.
        -12    1    1    2    0    0  0.25271585413E+02 -0.30079234214E+02 -0.10476255890E+02  0.40659135476E+02  0.00000000000E+00 0.  1.
         11    1    3    3    0    0 -0.17096411156E+02  0.47198967457E+01  0.10433832602E+02  0.20577404179E+02  0.51100000000E-03 0.  1.
        -11    1    3    3    0    0 -0.95380597703E+01  0.84231602678E+01 -0.18371923458E+01  0.12856884889E+02  0.51100000000E-03 0. -1.
         12    1    3    3    0    0  0.13628855139E+01  0.16936177201E+02  0.18796156341E+01  0.17094575456E+02  0.00000000000E+00 0. -1.
</event>
<event>
 7    1  0.5441610E-013  0.5052885E+02  0.7816164E-02  0.1300439E+00
        -11   -1    0    0    0    0  0.00000000000E+00  0.00000000000E+00  0.45593999997E+02  0.45594000000E+02  0.51100000000E-03 0. -1.
         11   -1    0    0    0    0 -0.00000000000E+00 -0.00000000000E+00 -0.45593999997E+02  0.45594000000E+02  0.51100000000E-03 0.  1.
    9900012    2    1    2    0    0  0.11240814658E+02 -0.48626586632E+01  0.38770670273E+02  0.50528852975E+02  0.29999979102E+02 0.  0.
        -12    1    1    2    0    0 -0.11240814658E+02  0.48626586632E+01 -0.38770670273E+02  0.40659147025E+02  0.00000000000E+00 0.  1.
         11    1    3    3    0    0 -0.49236700169E+01 -0.29021728520E+01  0.56965428812E+01  0.80694321211E+01  0.51100000000E-03 0.  1.
        -11    1    3    3    0    0  0.25903290499E+01 -0.21198010498E+01  0.27632193192E+02  0.27834177946E+02  0.51100000000E-03 0. -1.
         12    1    3    3    0    0  0.13574155625E+02  0.15931523864E+00  0.54419341995E+01  0.14625242908E+02  0.00000000000E+00 0. -1.
</event>
<event>
 7    1  0.5441610E-013  0.5052886E+02  0.7816164E-02  0.1300439E+00
        -11   -1    0    0    0    0  0.00000000000E+00  0.00000000000E+00  0.45593999997E+02  0.45594000000E+02  0.51100000000E-03 0. -1.
         11   -1    0    0    0    0 -0.00000000000E+00 -0.00000000000E+00 -0.45593999997E+02  0.45594000000E+02  0.51100000000E-03 0.  1.
    9900012    2    1    2    0    0 -0.36768751525E+02 -0.58819172566E+01 -0.16328723879E+02  0.50528864952E+02  0.30000015509E+02 0.  0.
        -12    1    1    2    0    0  0.36768751525E+02  0.58819172566E+01  0.16328723879E+02  0.40659135048E+02  0.00000000000E+00 0.  1.
         11    1    3    3    0    0 -0.28931782741E+02 -0.22283834595E+01 -0.74746976888E+01  0.29964726784E+02  0.51100000000E-03 0. -1.
        -11    1    3    3    0    0 -0.10230681727E+02 -0.78507700454E+01 -0.90070856283E+01  0.15729877008E+02  0.51100000000E-03 0.  1.
        -12    1    3    3    0    0  0.23937129433E+01  0.41972362483E+01  0.15305943824E+00  0.48342611608E+01  0.00000000000E+00 0.  1.
</event>
<event>
 7    1  0.5441610E-013  0.5052884E+02  0.7816164E-02  0.1300439E+00
        -11   -1    0    0    0    0  0.00000000000E+00  0.00000000000E+00  0.45593999997E+02  0.45594000000E+02  0.51100000000E-03 0. -1.
         11   -1    0    0    0    0 -0.00000000000E+00 -0.00000000000E+00 -0.45593999997E+02  0.45594000000E+02  0.51100000000E-03 0.  1.
    9900012    2    1    2    0    0  0.13008867464E+02  0.32239984247E+02 -0.21083637156E+02  0.50528843926E+02  0.29999951597E+02 0.  0.
        -12    1    1    2    0    0 -0.13008867464E+02 -0.32239984247E+02  0.21083637156E+02  0.40659156074E+02  0.00000000000E+00 0.  1.
         11    1    3    3    0    0  0.10404055269E+02  0.10056342252E+02 -0.13612264246E+02  0.19866255905E+02  0.51100000000E-03 0. -1.
        -11    1    3    3    0    0  0.63388740158E+01  0.33243260339E+01  0.40749710544E+01  0.82363740033E+01  0.51100000000E-03 0.  1.
         12    1    3    3    0    0 -0.37340618206E+01  0.18859315961E+02 -0.11546343965E+02  0.22426214017E+02  0.00000000000E+00 0. -1.
</event>
<event>
 7    1  0.5441610E-013  0.5052888E+02  0.7816164E-02  0.1300439E+00
        -11   -1    0    0    0    0  0.00000000000E+00  0.00000000000E+00  0.45593999997E+02  0.45594000000E+02  0.51100000000E-03 0. -1.
         11   -1    0    0    0    0 -0.00000000000E+00 -0.00000000000E+00 -0.45593999997E+02  0.45594000000E+02  0.51100000000E-03 0.  1.
    9900012    2    1    2    0    0 -0.98388197099E+01 -0.25340036454E+02  0.30236472121E+02  0.50528879657E+02  0.30000060204E+02 0.  0.
        -12    1    1    2    0    0  0.98388197099E+01  0.25340036454E+02 -0.30236472121E+02  0.40659120343E+02  0.00000000000E+00 0.  1.
         11    1    3    3    0    0 -0.68689256557E+01  0.22273795728E+01  0.53723945604E+01  0.90003323827E+01  0.51100000000E-03 0.  1.
        -11    1    3    3    0    0  0.42730029541E+01 -0.13503383376E+01  0.89669206115E+01  0.10024352018E+02  0.51100000000E-03 0. -1.
         12    1    3    3    0    0 -0.72428970083E+01 -0.26217077690E+02  0.15897156949E+02  0.31504195256E+02  0.00000000000E+00 0. -1.
</event>
<event>
 7    1  0.5441610E-013  0.5052886E+02  0.7816164E-02  0.1300439E+00
        -11   -1    0    0    0    0  0.00000000000E+00  0.00000000000E+00  0.45593999997E+02  0.45594000000E+02  0.51100000000E-03 0. -1.
         11   -1    0    0    0    0 -0.00000000000E+00 -0.00000000000E+00 -0.45593999997E+02  0.45594000000E+02  0.51100000000E-03 0.  1.
    9900012    2    1    2    0    0  0.23791039307E+02 -0.14569129346E+02  0.29578584312E+02  0.50528859193E+02  0.29999998004E+02 0.  0.
        -12    1    1    2    0    0 -0.23791039307E+02  0.14569129346E+02 -0.29578584312E+02  0.40659140807E+02  0.00000000000E+00 0.  1.
         11    1    3    3    0    0  0.27898050123E+01 -0.81108914269E+01 -0.95986340756E+00  0.86308116517E+01  0.51100000000E-03 0. -1.
        -11    1    3    3    0    0  0.35963842766E+01 -0.90885630115E+01  0.17310174316E+02  0.19879086815E+02  0.51100000000E-03 0.  1.
        -12    1    3    3    0    0  0.17404850018E+02  0.26303250919E+01  0.13228273404E+02  0.22018960727E+02  0.00000000000E+00 0.  1.
</event>
<event>
 7    1  0.5441610E-013  0.5052878E+02  0.7816164E-02  0.1300439E+00
        -11   -1    0    0    0    0  0.00000000000E+00  0.00000000000E+00  0.45593999997E+02  0.45594000000E+02  0.51100000000E-03 0.  1.
         11   -1    0    0    0    0 -0.00000000000E+00 -0.00000000000E+00 -0.45593999997E+02  0.45594000000E+02  0.51100000000E-03 0. -1.
    9900012    2    1    2    0    0  0.38662962473E+02  0.95684250767E+01 -0.81726589976E+01  0.50528784799E+02  0.29999771874E+02 0.  0.
        -12    1    1    2    0    0 -0.38662962473E+02 -0.95684250767E+01  0.81726589976E+01  0.40659215201E+02  0.00000000000E+00 0.  1.
         11    1    3    3    0    0  0.11014521346E+01  0.69384387774E+01 -0.39451026992E+01  0.80572306061E+01  0.51100000000E-03 0. -1.
        -11    1    3    3    0    0  0.13191175614E+02 -0.20800931821E+01 -0.10362717052E+02  0.16903248406E+02  0.51100000000E-03 0.  1.
         12    1    3    3    0    0  0.24370334725E+02  0.47100794814E+01  0.61351607535E+01  0.25568305787E+02  0.00000000000E+00 0. -1.
</event>
<event>
 7    1  0.5441610E-013  0.5052883E+02  0.7816164E-02  0.1300439E+00
        -11   -1    0    0    0    0  0.00000000000E+00  0.00000000000E+00  0.45593999997E+02  0.45594000000E+02  0.51100000000E-03 0. -1.
         11   -1    0    0    0    0 -0.00000000000E+00 -0.00000000000E+00 -0.45593999997E+02  0.45594000000E+02  0.51100000000E-03 0.  1.
    9900012    2    1    2    0    0  0.14718038009E+02  0.37899704103E+02  0.39991991922E+00  0.50528829449E+02  0.29999907593E+02 0.  0.
        -12    1    1    2    0    0 -0.14718038009E+02 -0.37899704103E+02 -0.39991991922E+00  0.40659170551E+02  0.00000000000E+00 0.  1.
         11    1    3    3    0    0  0.48285740509E+01  0.97734645977E+01  0.10869447224E+02  0.15394174899E+02  0.51100000000E-03 0. -1.
        -11    1    3    3    0    0  0.15898783218E+01 -0.32428669950E+00 -0.46597391705E+01  0.49341710894E+01  0.51100000000E-03 0.  1.
         12    1    3    3    0    0  0.82995856366E+01  0.28450526205E+02 -0.58097881340E+01  0.30200483461E+02  0.00000000000E+00 0. -1.
</event>
<event>
 7    1  0.5441610E-013  0.5052886E+02  0.7816164E-02  0.1300439E+00
        -11   -1    0    0    0    0  0.00000000000E+00  0.00000000000E+00  0.45593999997E+02  0.45594000000E+02  0.51100000000E-03 0.  1.
         11   -1    0    0    0    0 -0.00000000000E+00 -0.00000000000E+00 -0.45593999997E+02  0.45594000000E+02  0.51100000000E-03 0. -1.
    9900012    2    1    2    0    0  0.35231696523E+02  0.35322747594E+01 -0.19985409532E+02  0.50528855899E+02  0.29999987990E+02 0.  0.
        -12    1    1    2    0    0 -0.35231696523E+02 -0.35322747594E+01  0.19985409532E+02  0.40659144101E+02  0.00000000000E+00 0.  1.
         11    1    3    3    0    0  0.15856761180E+02  0.81742648018E+01 -0.35566984886E+01  0.18190810443E+02  0.51100000000E-03 0. -1.
        -11    1    3    3    0    0  0.18836718102E+01 -0.41397782233E+00  0.44050087429E+01  0.48087107848E+01  0.51100000000E-03 0.  1.
         12    1    3    3    0    0  0.17491263534E+02 -0.42280122201E+01 -0.20833719786E+02  0.27529334671E+02  0.00000000000E+00 0. -1.
</event>
<event>
 7    1  0.5441610E-013  0.5052885E+02  0.7816164E-02  0.1300439E+00
        -11   -1    0    0    0    0  0.00000000000E+00  0.00000000000E+00  0.45593999997E+02  0.45594000000E+02  0.51100000000E-03 0. -1.
         11   -1    0    0    0    0 -0.00000000000E+00 -0.00000000000E+00 -0.45593999997E+02  0.45594000000E+02  0.51100000000E-03 0.  1.
    9900012    2    1    2    0    0  0.37689279487E+02 -0.49651494600E+01  0.14423307125E+02  0.50528852372E+02  0.29999977271E+02 0.  0.
        -12    1    1    2    0    0 -0.37689279487E+02  0.49651494600E+01 -0.14423307125E+02  0.40659147628E+02  0.00000000000E+00 0.  1.
         11    1    3    3    0    0  0.14695200319E+02  0.27278039566E+01 -0.33235717687E+00  0.14949926033E+02  0.51100000000E-03 0. -1.
        -11    1    3    3    0    0 -0.24748582555E+01  0.12242999272E+01 -0.23528442341E+01  0.36276314515E+01  0.51100000000E-03 0.  1.
        -12    1    3    3    0    0  0.25468937423E+02 -0.89172533437E+01  0.17108508536E+02  0.31951294887E+02  0.00000000000E+00 0.  1.
</event>
<event>
 7    1  0.5441610E-013  0.5052886E+02  0.7816164E-02  0.1300439E+00
        -11   -1    0    0    0    0  0.00000000000E+00  0.00000000000E+00  0.45593999997E+02  0.45594000000E+02  0.51100000000E-03 0. -1.
         11   -1    0    0    0    0 -0.00000000000E+00 -0.00000000000E+00 -0.45593999997E+02  0.45594000000E+02  0.51100000000E-03 0.  1.
    9900012    2    1    2    0    0 -0.45927406157E+01  0.28090196256E+02  0.29034697028E+02  0.50528855597E+02  0.29999987074E+02 0.  0.
        -12    1    1    2    0    0  0.45927406157E+01 -0.28090196256E+02 -0.29034697028E+02  0.40659144403E+02  0.00000000000E+00 0.  1.
         11    1    3    3    0    0  0.41986831085E+01  0.22372502450E+02  0.15392272032E+02  0.27478716205E+02  0.51100000000E-03 0. -1.
        -11    1    3    3    0    0 -0.69440038580E+00  0.12577665635E+01  0.13730691370E+02  0.13805652987E+02  0.51100000000E-03 0.  1.
         12    1    3    3    0    0 -0.80970233384E+01  0.44599272424E+01 -0.88266374291E-01  0.92444864056E+01  0.00000000000E+00 0. -1.
</event>
<event>
 7    1  0.5441610E-013  0.5052885E+02  0.7816164E-02  0.1300439E+00
        -11   -1    0    0    0    0  0.00000000000E+00  0.00000000000E+00  0.45593999997E+02  0.45594000000E+02  0.51100000000E-03 0.  1.
         11   -1    0    0    0    0 -0.00000000000E+00 -0.00000000000E+00 -0.45593999997E+02  0.45594000000E+02  0.51100000000E-03 0. -1.
    9900012    2    1    2    0    0 -0.12048215562E+02  0.13370652386E+02 -0.36458639678E+02  0.50528852805E+02  0.29999978587E+02 0.  0.
        -12    1    1    2    0    0  0.12048215562E+02 -0.13370652386E+02  0.36458639678E+02  0.40659147195E+02  0.00000000000E+00 0.  1.
         11    1    3    3    0    0 -0.96589824709E+01  0.47166484592E+01 -0.14435662671E+02  0.17998085233E+02  0.51100000000E-03 0. -1.
        -11    1    3    3    0    0 -0.29814195664E+01  0.10108295202E+01 -0.24323940608E+02  0.24526816465E+02  0.51100000000E-03 0.  1.
         12    1    3    3    0    0  0.59218647503E+00  0.76431744062E+01  0.23009636012E+01  0.80039511067E+01  0.00000000000E+00 0. -1.
</event>
<event>
 7    1  0.5441610E-013  0.5052885E+02  0.7816164E-02  0.1300439E+00
        -11   -1    0    0    0    0  0.00000000000E+00  0.00000000000E+00  0.45593999997E+02  0.45594000000E+02  0.51100000000E-03 0.  1.
         11   -1    0    0    0    0 -0.00000000000E+00 -0.00000000000E+00 -0.45593999997E+02  0.45594000000E+02  0.51100000000E-03 0. -1.
    9900012    2    1    2    0    0  0.37494091931E+02  0.12866956309E+02 -0.90443821816E+01  0.50528851663E+02  0.29999975116E+02 0.  0.
        -12    1    1    2    0    0 -0.37494091931E+02 -0.12866956309E+02  0.90443821816E+01  0.40659148337E+02  0.00000000000E+00 0.  1.
         11    1    3    3    0    0  0.12137411256E+02  0.50364276266E+01 -0.74067939067E+00  0.13161723346E+02  0.51100000000E-03 0. -1.
        -11    1    3    3    0    0  0.21478296940E+02 -0.55717771563E+01 -0.73802992057E+01  0.23384412688E+02  0.51100000000E-03 0.  1.
        -12    1    3    3    0    0  0.38783837360E+01  0.13402305839E+02 -0.92340358523E+00  0.13982715629E+02  0.00000000000E+00 0.  1.
</event>
<event>
 7    1  0.5441610E-013  0.5052886E+02  0.7816164E-02  0.1300439E+00
        -11   -1    0    0    0    0  0.00000000000E+00  0.00000000000E+00  0.45593999997E+02  0.45594000000E+02  0.51100000000E-03 0.  1.
         11   -1    0    0    0    0 -0.00000000000E+00 -0.00000000000E+00 -0.45593999997E+02  0.45594000000E+02  0.51100000000E-03 0. -1.
    9900012    2    1    2    0    0 -0.85918557570E+01 -0.16378707565E+02 -0.36208885256E+02  0.50528863040E+02  0.30000009696E+02 0.  0.
        -12    1    1    2    0    0  0.85918557570E+01  0.16378707565E+02  0.36208885256E+02  0.40659136960E+02  0.00000000000E+00 0.  1.
         11    1    3    3    0    0 -0.55735697225E+01 -0.30679657400E+01  0.12374461595E+01  0.64813861552E+01  0.51100000000E-03 0.  1.
        -11    1    3    3    0    0  0.19715367415E+01 -0.11607122389E+02 -0.82434691548E+01  0.14372439989E+02  0.51100000000E-03 0. -1.
         12    1    3    3    0    0 -0.49898227759E+01 -0.17036194360E+01 -0.29202862261E+02  0.29675036895E+02  0.00000000000E+00 0. -1.
</event>
<event>
 7    1  0.5441610E-013  0.5052887E+02  0.7816164E-02  0.1300439E+00
        -11   -1    0    0    0    0  0.00000000000E+00  0.00000000000E+00  0.45593999997E+02  0.45594000000E+02  0.51100000000E-03 0. -1.
         11   -1    0    0    0    0 -0.00000000000E+00 -0.00000000000E+00 -0.45593999997E+02  0.45594000000E+02  0.51100000000E-03 0.  1.
    9900012    2    1    2    0    0 -0.13232113951E+02 -0.35737073549E+02 -0.14175258400E+02  0.50528865527E+02  0.30000017255E+02 0.  0.
        -12    1    1    2    0    0  0.13232113951E+02  0.35737073549E+02  0.14175258400E+02  0.40659134473E+02  0.00000000000E+00 0.  1.
         11    1    3    3    0    0  0.94245241406E+00 -0.22438012022E+02 -0.55807330984E+01  0.23140812048E+02  0.51100000000E-03 0. -1.
        -11    1    3    3    0    0 -0.23168487160E+01 -0.20435556367E+01  0.51657117386E+01  0.60190103539E+01  0.51100000000E-03 0.  1.
        -12    1    3    3    0    0 -0.11857717649E+02 -0.11255505890E+02 -0.13760237040E+02  0.21369043125E+02  0.00000000000E+00 0.  1.
</event>
<event>
 7    1  0.5441610E-013  0.5052888E+02  0.7816164E-02  0.1300439E+00
        -11   -1    0    0    0    0  0.00000000000E+00  0.00000000000E+00  0.45593999997E+02  0.45594000000E+02  0.51100000000E-03 0.  1.
         11   -1    0    0    0    0 -0.00000000000E+00 -0.00000000000E+00 -0.45593999997E+02  0.45594000000E+02  0.51100000000E-03 0. -1.
    9900012    2    1    2    0    0 -0.40687211197E+01  0.36845871141E+02 -0.16703040294E+02  0.50528877202E+02  0.30000052742E+02 0.  0.
        -12    1    1    2    0    0  0.40687211197E+01 -0.36845871141E+02  0.16703040294E+02  0.40659122798E+02  0.00000000000E+00 0.  1.
         11    1    3    3    0    0  0.50704535831E+01  0.32466704737E+01 -0.49099816714E+01  0.77690597229E+01  0.51100000000E-03 0. -1.
        -11    1    3    3    0    0 -0.29179395268E+01  0.30327911098E+01  0.56311699637E+01  0.70300973264E+01  0.51100000000E-03 0.  1.
         12    1    3    3    0    0 -0.62212351760E+01  0.30566409557E+02 -0.17424228586E+02  0.35729720152E+02  0.00000000000E+00 0. -1.
</event>
<event>
 7    1  0.5441610E-013  0.5052885E+02  0.7816164E-02  0.1300439E+00
        -11   -1    0    0    0    0  0.00000000000E+00  0.00000000000E+00  0.45593999997E+02  0.45594000000E+02  0.51100000000E-03 0.  1.
         11   -1    0    0    0    0 -0.00000000000E+00 -0.00000000000E+00 -0.45593999997E+02  0.45594000000E+02  0.51100000000E-03 0. -1.
    9900012    2    1    2    0    0 -0.57420969204E+00  0.10437623075E+02 -0.39292399230E+02  0.50528851835E+02  0.29999975637E+02 0.  0.
        -12    1    1    2    0    0  0.57420969204E+00 -0.10437623075E+02  0.39292399230E+02  0.40659148165E+02  0.00000000000E+00 0.  1.
         11    1    3    3    0    0 -0.59780241979E+01  0.17950584924E+02 -0.27598955955E+02  0.33461360440E+02  0.51100000000E-03 0. -1.
        -11    1    3    3    0    0  0.20327408161E+01 -0.56376287326E-02 -0.76172995726E+01  0.78838645376E+01  0.51100000000E-03 0.  1.
        -12    1    3    3    0    0  0.33710736897E+01 -0.75073242199E+01 -0.40761437025E+01  0.91836268570E+01  0.00000000000E+00 0.  1.
</event>
<event>
 7    1  0.5441610E-013  0.5052885E+02  0.7816164E-02  0.1300439E+00
        -11   -1    0    0    0    0  0.00000000000E+00  0.00000000000E+00  0.45593999997E+02  0.45594000000E+02  0.51100000000E-03 0.  1.
         11   -1    0    0    0    0 -0.00000000000E+00 -0.00000000000E+00 -0.45593999997E+02  0.45594000000E+02  0.51100000000E-03 0. -1.
    9900012    2    1    2    0    0  0.19439471476E+02  0.22716121118E+02 -0.27554511323E+02  0.50528852147E+02  0.29999976585E+02 0.  0.
        -12    1    1    2    0    0 -0.19439471476E+02 -0.22716121118E+02  0.27554511323E+02  0.40659147853E+02  0.00000000000E+00 0.  1.
         11    1    3    3    0    0  0.75374733971E+01  0.19155736344E+00 -0.40488923090E+01  0.85582549989E+01  0.51100000000E-03 0.  1.
        -11    1    3    3    0    0 -0.16606285538E+00  0.12082300007E+02  0.16340142546E+01  0.12193422538E+02  0.51100000000E-03 0. -1.
         12    1    3    3    0    0  0.12068060935E+02  0.10442263748E+02 -0.25139633268E+02  0.29777174610E+02  0.00000000000E+00 0. -1.
</event>
<event>
 7    1  0.5441610E-013  0.5052885E+02  0.7816164E-02  0.1300439E+00
        -11   -1    0    0    0    0  0.00000000000E+00  0.00000000000E+00  0.45593999997E+02  0.45594000000E+02  0.51100000000E-03 0.  1.
         11   -1    0    0    0    0 -0.00000000000E+00 -0.00000000000E+00 -0.45593999997E+02  0.45594000000E+02  0.51100000000E-03 0. -1.
    9900012    2    1    2    0    0  0.10323878407E+02 -0.55046608097E+01 -0.38939474382E+02  0.50528850708E+02  0.29999972211E+02 0.  0.
        -12    1    1    2    0    0 -0.10323878407E+02  0.55046608097E+01  0.38939474382E+02  0.40659149292E+02  0.00000000000E+00 0.  1.
         11    1    3    3    0    0  0.10731460644E+02  0.42593407294E+01 -0.10069952488E+02  0.15320253731E+02  0.51100000000E-03 0. -1.
        -11    1    3    3    0    0  0.56383449224E+01 -0.12248807403E+02 -0.17479182247E+02  0.22075915123E+02  0.51100000000E-03 0.  1.
         12    1    3    3    0    0 -0.60459271589E+01  0.24848058636E+01 -0.11390339647E+02  0.13132681854E+02  0.00000000000E+00 0. -1.
</event>
<event>
 7    1  0.5441610E-013  0.5052887E+02  0.7816164E-02  0.1300439E+00
        -11   -1    0    0    0    0  0.00000000000E+00  0.00000000000E+00  0.45593999997E+02  0.45594000000E+02  0.51100000000E-03 0. -1.
         11   -1    0    0    0    0 -0.00000000000E+00 -0.00000000000E+00 -0.45593999997E+02  0.45594000000E+02  0.51100000000E-03 0.  1.
    9900012    2    1    2    0    0  0.18989771253E+02 -0.35663858601E+01  0.35774776565E+02  0.50528866233E+02  0.30000019403E+02 0.  0.
        -12    1    1    2    0    0 -0.18989771253E+02  0.35663858601E+01 -0.35774776565E+02  0.40659133767E+02  0.00000000000E+00 0.  1.
         11    1    3    3    0    0  0.40927051976E+01  0.32118302593E+01  0.64423682834E+00  0.52422448246E+01  0.51100000000E-03 0. -1.
        -11    1    3    3    0    0  0.48481857736E+01  0.57690556456E+01  0.10544522691E+01  0.76091246662E+01  0.51100000000E-03 0.  1.
         12    1    3    3    0    0  0.10048880282E+02 -0.12547271765E+02  0.34076087468E+02  0.37677496743E+02  0.00000000000E+00 0. -1.
</event>
<event>
 7    1  0.5441610E-013  0.5052885E+02  0.7816164E-02  0.1300439E+00
        -11   -1    0    0    0    0  0.00000000000E+00  0.00000000000E+00  0.45593999997E+02  0.45594000000E+02  0.51100000000E-03 0.  1.
         11   -1    0    0    0    0 -0.00000000000E+00 -0.00000000000E+00 -0.45593999997E+02  0.45594000000E+02  0.51100000000E-03 0. -1.
    9900012    2    1    2    0    0  0.15683561474E+02 -0.36799886472E+02  0.72773895151E+01  0.50528854128E+02  0.29999982607E+02 0.  0.
        -12    1    1    2    0    0 -0.15683561474E+02  0.36799886472E+02 -0.72773895151E+01  0.40659145872E+02  0.00000000000E+00 0.  1.
         11    1    3    3    0    0  0.26387300675E+01 -0.20542730980E+02  0.96162457802E+01  0.22835036143E+02  0.51100000000E-03 0. -1.
        -11    1    3    3    0    0  0.10861131600E+02 -0.11130618253E+02  0.68133774516E+01  0.16978720649E+02  0.51100000000E-03 0.  1.
        -12    1    3    3    0    0  0.21836998071E+01 -0.51265372392E+01 -0.91522337166E+01  0.10715097336E+02  0.00000000000E+00 0.  1.
</event>
<event>
 7    1  0.5441610E-013  0.5052886E+02  0.7816164E-02  0.1300439E+00
        -11   -1    0    0    0    0  0.00000000000E+00  0.00000000000E+00  0.45593999997E+02  0.45594000000E+02  0.51100000000E-03 0.  1.
         11   -1    0    0    0    0 -0.00000000000E+00 -0.00000000000E+00 -0.45593999997E+02  0.45594000000E+02  0.51100000000E-03 0. -1.
    9900012    2    1    2    0    0 -0.57240718704E+01 -0.17374503212E+02 -0.36311535299E+02  0.50528856423E+02  0.29999989583E+02 0.  0.
        -12    1    1    2    0    0  0.57240718704E+01  0.17374503212E+02  0.36311535299E+02  0.40659143577E+02  0.00000000000E+00 0.  1.
         11    1    3    3    0    0 -0.82727556957E+01 -0.92860178288E+01 -0.88611561216E+01  0.15270517411E+02  0.51100000000E-03 0. -1.
        -11    1    3    3    0    0  0.40592157844E+01 -0.13078489199E+02 -0.97611252679E+01  0.16816767801E+02  0.51100000000E-03 0.  1.
        -12    1    3    3    0    0 -0.15105319591E+01  0.49900038153E+01 -0.17689253909E+02  0.18441571211E+02  0.00000000000E+00 0.  1.
</event>
<event>
 7    1  0.5441610E-013  0.5052886E+02  0.7816164E-02  0.1300439E+00
        -11   -1    0    0    0    0  0.00000000000E+00  0.00000000000E+00  0.45593999997E+02  0.45594000000E+02  0.51100000000E-03 0. -1.
         11   -1    0    0    0    0 -0.00000000000E+00 -0.00000000000E+00 -0.45593999997E+02  0.45594000000E+02  0.51100000000E-03 0.  1.
    9900012    2    1    2    0    0 -0.37322541172E+02  0.26640065816E+01  0.15909011109E+02  0.50528860251E+02  0.30000001220E+02 0.  0.
        -12    1    1    2    0    0  0.37322541172E+02 -0.26640065816E+01 -0.15909011109E+02  0.40659139749E+02  0.00000000000E+00 0.  1.
         11    1    3    3    0    0 -0.18590886221E+02 -0.57811952288E+01  0.79149555625E+01  0.21016417168E+02  0.51100000000E-03 0. -1.
        -11    1    3    3    0    0 -0.13967537392E+02  0.64979312580E+01 -0.44593016100E+01  0.16037474319E+02  0.51100000000E-03 0.  1.
         12    1    3    3    0    0 -0.47641175590E+01  0.19472705524E+01  0.12453357157E+02  0.13474968764E+02  0.00000000000E+00 0. -1.
</event>
<event>
 7    1  0.5441610E-013  0.5052886E+02  0.7816164E-02  0.1300439E+00
        -11   -1    0    0    0    0  0.00000000000E+00  0.00000000000E+00  0.45593999997E+02  0.45594000000E+02  0.51100000000E-03 0.  1.
         11   -1    0    0    0    0 -0.00000000000E+00 -0.00000000000E+00 -0.45593999997E+02  0.45594000000E+02  0.51100000000E-03 0. -1.
    9900012    2    1    2    0    0  0.33631283979E+01 -0.27701726205E+02 -0.29571424253E+02  0.50528863269E+02  0.30000010392E+02 0.  0.
        -12    1    1    2    0    0 -0.33631283979E+01  0.27701726205E+02  0.29571424253E+02  0.40659136731E+02  0.00000000000E+00 0.  1.
         11    1    3    3    0    0  0.59995527888E+01 -0.13355038631E+02 -0.18864132182E+02  0.23879011155E+02  0.51100000000E-03 0. -1.
        -11    1    3    3    0    0 -0.47897818231E+01 -0.35064608813E+01 -0.13926227782E+02  0.15138596313E+02  0.51100000000E-03 0.  1.
        -12    1    3    3    0    0  0.21533574322E+01 -0.10840226693E+02  0.32189357118E+01  0.11511255801E+02  0.00000000000E+00 0.  1.
</event>
<event>
 7    1  0.5441610E-013  0.5052887E+02  0.7816164E-02  0.1300439E+00
        -11   -1    0    0    0    0  0.00000000000E+00  0.00000000000E+00  0.45593999997E+02  0.45594000000E+02  0.51100000000E-03 0. -1.
         11   -1    0    0    0    0 -0.00000000000E+00 -0.00000000000E+00 -0.45593999997E+02  0.45594000000E+02  0.51100000000E-03 0.  1.
    9900012    2    1    2    0    0  0.88875037634E+01  0.17036492134E+02  0.35832044318E+02  0.50528865880E+02  0.30000018330E+02 0.  0.
        -12    1    1    2    0    0 -0.88875037634E+01 -0.17036492134E+02 -0.35832044318E+02  0.40659134120E+02  0.00000000000E+00 0.  1.
         11    1    3    3    0    0 -0.22339668336E+01  0.36384546110E+01  0.76547389702E+01  0.87649294768E+01  0.51100000000E-03 0. -1.
        -11    1    3    3    0    0  0.15403847320E+01  0.12936775586E+02  0.11428438643E+01  0.13078189479E+02  0.51100000000E-03 0.  1.
        -12    1    3    3    0    0  0.95810858650E+01  0.46126193642E+00  0.27034461483E+02  0.28685746925E+02  0.00000000000E+00 0.  1.
</event>
<event>
 7    1  0.5441610E-013  0.5052886E+02  0.7816164E-02  0.1300439E+00
        -11   -1    0    0    0    0  0.00000000000E+00  0.00000000000E+00  0.45593999997E+02  0.45594000000E+02  0.51100000000E-03 0. -1.
         11   -1    0    0    0    0 -0.00000000000E+00 -0.00000000000E+00 -0.45593999997E+02  0.45594000000E+02  0.51100000000E-03 0.  1.
    9900012    2    1    2    0    0 -0.97251018391E+01  0.23319762771E+02  0.31855565518E+02  0.50528855937E+02  0.29999988107E+02 0.  0.
        -12    1    1    2    0    0  0.97251018391E+01 -0.23319762771E+02 -0.31855565518E+02  0.40659144063E+02  0.00000000000E+00 0.  1.
         11    1    3    3    0    0 -0.97414302632E+01  0.86608695061E+01  0.24188515755E+01  0.13257336361E+02  0.51100000000E-03 0. -1.
        -11    1    3    3    0    0 -0.28629958561E+01 -0.50198618668E+00 -0.10590051883E+01  0.30935784544E+01  0.51100000000E-03 0.  1.
         12    1    3    3    0    0  0.28793242802E+01  0.15160879451E+02  0.30495719131E+02  0.34177941122E+02  0.00000000000E+00 0. -1.
</event>
<event>
 7    1  0.5441610E-013  0.5052884E+02  0.7816164E-02  0.1300439E+00
        -11   -1    0    0    0    0  0.00000000000E+00  0.00000000000E+00  0.45593999997E+02  0.45594000000E+02  0.51100000000E-03 0.  1.
         11   -1    0    0    0    0 -0.00000000000E+00 -0.00000000000E+00 -0.45593999997E+02  0.45594000000E+02  0.51100000000E-03 0. -1.
    9900012    2    1    2    0    0 -0.29038866647E+02  0.28061719252E+02 -0.47382921088E+01  0.50528840201E+02  0.29999940274E+02 0.  0.
        -12    1    1    2    0    0  0.29038866647E+02 -0.28061719252E+02  0.47382921088E+01  0.40659159799E+02  0.00000000000E+00 0.  1.
         11    1    3    3    0    0 -0.54203944861E+01  0.24437697183E+01 -0.31511409018E+01  0.67292180872E+01  0.51100000000E-03 0. -1.
        -11    1    3    3    0    0 -0.26797931742E+02  0.17976813232E+02 -0.80975756344E+01  0.33269591087E+02  0.51100000000E-03 0.  1.
        -12    1    3    3    0    0  0.31794595817E+01  0.76411363008E+01  0.65104244273E+01  0.10530031027E+02  0.00000000000E+00 0.  1.
</event>
<event>
 7    1  0.5441610E-013  0.5052884E+02  0.7816164E-02  0.1300439E+00
        -11   -1    0    0    0    0  0.00000000000E+00  0.00000000000E+00  0.45593999997E+02  0.45594000000E+02  0.51100000000E-03 0.  1.
         11   -1    0    0    0    0 -0.00000000000E+00 -0.00000000000E+00 -0.45593999997E+02  0.45594000000E+02  0.51100000000E-03 0. -1.
    9900012    2    1    2    0    0 -0.16010789364E+02 -0.20349465418E+01 -0.37318639818E+02  0.50528840376E+02  0.29999940806E+02 0.  0.
        -12    1    1    2    0    0  0.16010789364E+02  0.20349465418E+01  0.37318639818E+02  0.40659159624E+02  0.00000000000E+00 0.  1.
         11    1    3    3    0    0  0.11427806300E+01 -0.11550235178E+02 -0.10132106446E+02  0.15406929010E+02  0.51100000000E-03 0. -1.
        -11    1    3    3    0    0 -0.75887142723E+01  0.30644079957E+01 -0.37555041496E+01  0.90046095057E+01  0.51100000000E-03 0.  1.
        -12    1    3    3    0    0 -0.95648557219E+01  0.64508806402E+01 -0.23431029222E+02  0.26117301860E+02  0.00000000000E+00 0.  1.
</event>
<event>
 7    1  0.5441610E-013  0.5052886E+02  0.7816164E-02  0.1300439E+00
        -11   -1    0    0    0    0  0.00000000000E+00  0.00000000000E+00  0.45593999997E+02  0.45594000000E+02  0.51100000000E-03 0.  1.
         11   -1    0    0    0    0 -0.00000000000E+00 -0.00000000000E+00 -0.45593999997E+02  0.45594000000E+02  0.51100000000E-03 0. -1.
    9900012    2    1    2    0    0  0.62093966182E+01  0.40179860035E+02  0.43333102567E+00  0.50528861610E+02  0.30000005351E+02 0.  0.
        -12    1    1    2    0    0 -0.62093966182E+01 -0.40179860035E+02 -0.43333102567E+00  0.40659138390E+02  0.00000000000E+00 0.  1.
         11    1    3    3    0    0  0.28080626332E+00  0.15990913149E+02 -0.13729089354E+00  0.15993967755E+02  0.51100000000E-03 0. -1.
        -11    1    3    3    0    0  0.87747501388E+01  0.25968169243E+02 -0.51614943897E+01  0.27892348027E+02  0.51100000000E-03 0.  1.
        -12    1    3    3    0    0 -0.28461597839E+01 -0.17792223567E+01  0.57321163089E+01  0.66425458289E+01  0.00000000000E+00 0.  1.
</event>
<event>
 7    1  0.5441610E-013  0.5052885E+02  0.7816164E-02  0.1300439E+00
        -11   -1    0    0    0    0  0.00000000000E+00  0.00000000000E+00  0.45593999997E+02  0.45594000000E+02  0.51100000000E-03 0.  1.
         11   -1    0    0    0    0 -0.00000000000E+00 -0.00000000000E+00 -0.45593999997E+02  0.45594000000E+02  0.51100000000E-03 0. -1.
    9900012    2    1    2    0    0 -0.60080438685E+01  0.24266798664E+02 -0.32065433110E+02  0.50528854546E+02  0.29999983877E+02 0.  0.
        -12    1    1    2    0    0  0.60080438685E+01 -0.24266798664E+02  0.32065433110E+02  0.40659145454E+02  0.00000000000E+00 0.  1.
         11    1    3    3    0    0 -0.78042153954E+01  0.14942979317E+02 -0.56742982302E+01  0.17787525670E+02  0.51100000000E-03 0.  1.
        -11    1    3    3    0    0  0.52472317836E+01 -0.29269074084E+01 -0.48519367489E+01  0.77227921663E+01  0.51100000000E-03 0. -1.
         12    1    3    3    0    0 -0.34510602567E+01  0.12250726756E+02 -0.21539198131E+02  0.25018536709E+02  0.00000000000E+00 0. -1.
</event>
<event>
 7    1  0.5441610E-013  0.5052887E+02  0.7816164E-02  0.1300439E+00
        -11   -1    0    0    0    0  0.00000000000E+00  0.00000000000E+00  0.45593999997E+02  0.45594000000E+02  0.51100000000E-03 0.  1.
         11   -1    0    0    0    0 -0.00000000000E+00 -0.00000000000E+00 -0.45593999997E+02  0.45594000000E+02  0.51100000000E-03 0. -1.
    9900012    2    1    2    0    0 -0.20133427106E+02  0.15016153518E+02 -0.31973822520E+02  0.50528867200E+02  0.30000022342E+02 0.  0.
        -12    1    1    2    0    0  0.20133427106E+02 -0.15016153518E+02  0.31973822520E+02  0.40659132800E+02  0.00000000000E+00 0.  1.
         11    1    3    3    0    0 -0.15856932871E+02  0.63217850870E+01 -0.99668408164E+01  0.19767276062E+02  0.51100000000E-03 0. -1.
        -11    1    3    3    0    0  0.48310722552E+01 -0.37174426514E+01 -0.60186114575E+01  0.85663482966E+01  0.51100000000E-03 0.  1.
         12    1    3    3    0    0 -0.91075664897E+01  0.12411811082E+02 -0.15988370246E+02  0.22195242842E+02  0.00000000000E+00 0. -1.
</event>
<event>
 7    1  0.5441610E-013  0.5052885E+02  0.7816164E-02  0.1300439E+00
        -11   -1    0    0    0    0  0.00000000000E+00  0.00000000000E+00  0.45593999997E+02  0.45594000000E+02  0.51100000000E-03 0.  1.
         11   -1    0    0    0    0 -0.00000000000E+00 -0.00000000000E+00 -0.45593999997E+02  0.45594000000E+02  0.51100000000E-03 0. -1.
    9900012    2    1    2    0    0 -0.57110566055E+01  0.13617008124E+01 -0.40233019320E+02  0.50528852933E+02  0.29999978975E+02 0.  0.
        -12    1    1    2    0    0  0.57110566055E+01 -0.13617008124E+01  0.40233019320E+02  0.40659147067E+02  0.00000000000E+00 0.  1.
         11    1    3    3    0    0  0.63675198717E+01 -0.15586155172E+01 -0.15757107332E+02  0.17066371125E+02  0.51100000000E-03 0. -1.
        -11    1    3    3    0    0  0.22513309246E+01 -0.55922493218E+01 -0.50332971601E+01  0.78533956969E+01  0.51100000000E-03 0.  1.
        -12    1    3    3    0    0 -0.14329907402E+02  0.85125656513E+01 -0.19442614827E+02  0.25609086111E+02  0.00000000000E+00 0.  1.
</event>
<event>
 7    1  0.5441610E-013  0.5052887E+02  0.7816164E-02  0.1300439E+00
        -11   -1    0    0    0    0  0.00000000000E+00  0.00000000000E+00  0.45593999997E+02  0.45594000000E+02  0.51100000000E-03 0.  1.
         11   -1    0    0    0    0 -0.00000000000E+00 -0.00000000000E+00 -0.45593999997E+02  0.45594000000E+02  0.51100000000E-03 0. -1.
    9900012    2    1    2    0    0 -0.12849041393E+02  0.37688898539E+02 -0.82227704479E+01  0.50528869517E+02  0.30000029383E+02 0.  0.
        -12    1    1    2    0    0  0.12849041393E+02 -0.37688898539E+02  0.82227704479E+01  0.40659130483E+02  0.00000000000E+00 0.  1.
         11    1    3    3    0    0 -0.45085919210E+01  0.19547326576E+01 -0.22543195994E+01  0.54065088541E+01  0.51100000000E-03 0. -1.
        -11    1    3    3    0    0 -0.10714283536E+02  0.22465207694E+02 -0.14847156659E+02  0.28981364522E+02  0.51100000000E-03 0.  1.
        -12    1    3    3    0    0  0.23738340644E+01  0.13268958188E+02  0.88787058104E+01  0.16140996141E+02  0.00000000000E+00 0.  1.
</event>
<event>
 7    1  0.5441610E-013  0.5052898E+02  0.7816164E-02  0.1300438E+00
        -11   -1    0    0    0    0  0.00000000000E+00  0.00000000000E+00  0.45593999997E+02  0.45594000000E+02  0.51100000000E-03 0.  1.
         11   -1    0    0    0    0 -0.00000000000E+00 -0.00000000000E+00 -0.45593999997E+02  0.45594000000E+02  0.51100000000E-03 0. -1.
    9900012    2    1    2    0    0  0.38432106056E+02 -0.96977225500E+01  0.90599855376E+01  0.50528979641E+02  0.30000364116E+02 0.  0.
        -12    1    1    2    0    0 -0.38432106056E+02  0.96977225500E+01 -0.90599855376E+01  0.40659020359E+02  0.00000000000E+00 0.  1.
         11    1    3    3    0    0  0.23133444589E+02 -0.52004783089E+01 -0.45604395025E+01  0.24145368954E+02  0.51100000000E-03 0. -1.
        -11    1    3    3    0    0  0.51185726013E+01  0.50572889405E+01  0.48109240655E+00  0.72116161203E+01  0.51100000000E-03 0.  1.
         12    1    3    3    0    0  0.10180088866E+02 -0.95545331815E+01  0.13139332634E+02  0.19171994567E+02  0.00000000000E+00 0. -1.
</event>
<event>
 7    1  0.5441610E-013  0.5052886E+02  0.7816164E-02  0.1300439E+00
        -11   -1    0    0    0    0  0.00000000000E+00  0.00000000000E+00  0.45593999997E+02  0.45594000000E+02  0.51100000000E-03 0. -1.
         11   -1    0    0    0    0 -0.00000000000E+00 -0.00000000000E+00 -0.45593999997E+02  0.45594000000E+02  0.51100000000E-03 0.  1.
    9900012    2    1    2    0    0 -0.19336374258E+02 -0.29565134531E+02  0.20128913582E+02  0.50528859437E+02  0.29999998746E+02 0.  0.
        -12    1    1    2    0    0  0.19336374258E+02  0.29565134531E+02 -0.20128913582E+02  0.40659140563E+02  0.00000000000E+00 0.  1.
         11    1    3    3    0    0 -0.15036159783E+02 -0.64640929995E+01  0.28528643040E+01  0.16613531663E+02  0.51100000000E-03 0. -1.
        -11    1    3    3    0    0  0.15498278343E+01 -0.34428888804E+01 -0.31884755211E+01  0.49418444500E+01  0.51100000000E-03 0.  1.
         12    1    3    3    0    0 -0.58500423094E+01 -0.19658152652E+02  0.20464524799E+02  0.28973483324E+02  0.00000000000E+00 0. -1.
</event>
<event>
 7    1  0.5441610E-013  0.5052883E+02  0.7816164E-02  0.1300439E+00
        -11   -1    0    0    0    0  0.00000000000E+00  0.00000000000E+00  0.45593999997E+02  0.45594000000E+02  0.51100000000E-03 0.  1.
         11   -1    0    0    0    0 -0.00000000000E+00 -0.00000000000E+00 -0.45593999997E+02  0.45594000000E+02  0.51100000000E-03 0. -1.
    9900012    2    1    2    0    0  0.12221993946E+02  0.45477712906E+01 -0.38511147896E+02  0.50528832866E+02  0.29999917980E+02 0.  0.
        -12    1    1    2    0    0 -0.12221993946E+02 -0.45477712906E+01  0.38511147896E+02  0.40659167134E+02  0.00000000000E+00 0.  1.
         11    1    3    3    0    0  0.42182103917E+01  0.25016045336E+01 -0.42582288878E+01  0.64949085962E+01  0.51100000000E-03 0. -1.
        -11    1    3    3    0    0  0.10250687148E+02  0.10389285913E+01 -0.63158286381E+00  0.10322541198E+02  0.51100000000E-03 0.  1.
        -12    1    3    3    0    0 -0.22469035930E+01  0.10072381656E+01 -0.33621336144E+02  0.33711383072E+02  0.00000000000E+00 0.  1.
</event>
<event>
 7    1  0.5441610E-013  0.5052886E+02  0.7816164E-02  0.1300439E+00
        -11   -1    0    0    0    0  0.00000000000E+00  0.00000000000E+00  0.45593999997E+02  0.45594000000E+02  0.51100000000E-03 0.  1.
         11   -1    0    0    0    0 -0.00000000000E+00 -0.00000000000E+00 -0.45593999997E+02  0.45594000000E+02  0.51100000000E-03 0. -1.
    9900012    2    1    2    0    0 -0.27635423319E+02  0.29503426987E+02 -0.43585201796E+01  0.50528861739E+02  0.30000005742E+02 0.  0.
        -12    1    1    2    0    0  0.27635423319E+02 -0.29503426987E+02  0.43585201796E+01  0.40659138261E+02  0.00000000000E+00 0.  1.
         11    1    3    3    0    0 -0.12912279097E+02  0.20469263270E+02 -0.10457280425E+02  0.26364225846E+02  0.51100000000E-03 0. -1.
        -11    1    3    3    0    0 -0.12701582725E+02  0.12231554490E+02  0.79680711102E+00  0.17651516388E+02  0.51100000000E-03 0.  1.
        -12    1    3    3    0    0 -0.20215614964E+01 -0.31973907733E+01  0.53019531347E+01  0.65131195048E+01  0.00000000000E+00 0.  1.
</event>
<event>
 7    1  0.5441610E-013  0.5052886E+02  0.7816164E-02  0.1300439E+00
        -11   -1    0    0    0    0  0.00000000000E+00  0.00000000000E+00  0.45593999997E+02  0.45594000000E+02  0.51100000000E-03 0.  1.
         11   -1    0    0    0    0 -0.00000000000E+00 -0.00000000000E+00 -0.45593999997E+02  0.45594000000E+02  0.51100000000E-03 0. -1.
    9900012    2    1    2    0    0 -0.10874929200E+02 -0.22088482660E+02 -0.32357386327E+02  0.50528860791E+02  0.30000002860E+02 0.  0.
        -12    1    1    2    0    0  0.10874929200E+02  0.22088482660E+02  0.32357386327E+02  0.40659139209E+02  0.00000000000E+00 0.  1.
         11    1    3    3    0    0  0.55040362146E+01 -0.17425304953E+01 -0.32469295940E+01  0.66236983044E+01  0.51100000000E-03 0. -1.
        -11    1    3    3    0    0 -0.55150553954E+01 -0.47447819079E+01  0.19107711926E+01  0.75219570711E+01  0.51100000000E-03 0.  1.
         12    1    3    3    0    0 -0.10863910019E+02 -0.15601170257E+02 -0.31021227926E+02  0.36383205415E+02  0.00000000000E+00 0. -1.
</event>
<event>
 7    1  0.5441610E-013  0.5052886E+02  0.7816164E-02  0.1300439E+00
        -11   -1    0    0    0    0  0.00000000000E+00  0.00000000000E+00  0.45593999997E+02  0.45594000000E+02  0.51100000000E-03 0. -1.
         11   -1    0    0    0    0 -0.00000000000E+00 -0.00000000000E+00 -0.45593999997E+02  0.45594000000E+02  0.51100000000E-03 0.  1.
    9900012    2    1    2    0    0 -0.31751785757E+02  0.94763847243E+01  0.23562418045E+02  0.50528864368E+02  0.30000013733E+02 0.  0.
        -12    1    1    2    0    0  0.31751785757E+02 -0.94763847243E+01 -0.23562418045E+02  0.40659135632E+02  0.00000000000E+00 0.  1.
         11    1    3    3    0    0  0.37665743023E+01 -0.14032260595E+01  0.90766235087E+00  0.41206767106E+01  0.51100000000E-03 0. -1.
        -11    1    3    3    0    0 -0.69648944262E+01  0.14465634182E+01  0.13010538559E+02  0.14828230304E+02  0.51100000000E-03 0.  1.
         12    1    3    3    0    0 -0.28553465633E+02  0.94330473656E+01  0.96442171350E+01  0.31579957353E+02  0.00000000000E+00 0. -1.
</event>
<event>
 7    1  0.5441610E-013  0.5052886E+02  0.7816164E-02  0.1300439E+00
        -11   -1    0    0    0    0  0.00000000000E+00  0.00000000000E+00  0.45593999997E+02  0.45594000000E+02  0.51100000000E-03 0.  1.
         11   -1    0    0    0    0 -0.00000000000E+00 -0.00000000000E+00 -0.45593999997E+02  0.45594000000E+02  0.51100000000E-03 0. -1.
    9900012    2    1    2    0    0  0.31180511456E+02  0.10451780457E+02 -0.23910281580E+02  0.50528861118E+02  0.30000003855E+02 0.  0.
        -12    1    1    2    0    0 -0.31180511456E+02 -0.10451780457E+02  0.23910281580E+02  0.40659138882E+02  0.00000000000E+00 0.  1.
         11    1    3    3    0    0  0.27348734852E+01  0.48816488600E+01 -0.25546552292E+01  0.61511212127E+01  0.51100000000E-03 0. -1.
        -11    1    3    3    0    0  0.12401188185E+02  0.69924074198E+00 -0.24359340750E+02  0.27343296950E+02  0.51100000000E-03 0.  1.
         12    1    3    3    0    0  0.16044449785E+02  0.48708908551E+01  0.30037143993E+01  0.17034442956E+02  0.00000000000E+00 0. -1.
</event>
<event>
 7    1  0.5441610E-013  0.5052886E+02  0.7816164E-02  0.1300439E+00
        -11   -1    0    0    0    0  0.00000000000E+00  0.00000000000E+00  0.45593999997E+02  0.45594000000E+02  0.51100000000E-03 0.  1.
         11   -1    0    0    0    0 -0.00000000000E+00 -0.00000000000E+00 -0.45593999997E+02  0.45594000000E+02  0.51100000000E-03 0. -1.
    9900012    2    1    2    0    0  0.62100174737E+01  0.35159264996E+02 -0.19453208489E+02  0.50528861388E+02  0.30000004676E+02 0.  0.
        -12    1    1    2    0    0 -0.62100174737E+01 -0.35159264996E+02  0.19453208489E+02  0.40659138612E+02  0.00000000000E+00 0.  1.
         11    1    3    3    0    0  0.84097071740E+01  0.13070032708E+02 -0.15359247495E+02  0.21850753159E+02  0.51100000000E-03 0. -1.
        -11    1    3    3    0    0  0.72124518478E+01  0.12711022815E+02  0.48965554377E+00  0.14622904139E+02  0.51100000000E-03 0.  1.
         12    1    3    3    0    0 -0.94121415480E+01  0.93782094737E+01 -0.45836165378E+01  0.14055204090E+02  0.00000000000E+00 0. -1.
</event>
<event>
 7    1  0.5441610E-013  0.5052887E+02  0.7816164E-02  0.1300439E+00
        -11   -1    0    0    0    0  0.00000000000E+00  0.00000000000E+00  0.45593999997E+02  0.45594000000E+02  0.51100000000E-03 0. -1.
         11   -1    0    0    0    0 -0.00000000000E+00 -0.00000000000E+00 -0.45593999997E+02  0.45594000000E+02  0.51100000000E-03 0.  1.
    9900012    2    1    2    0    0 -0.10691092688E+02 -0.15889365116E+02  0.35866327664E+02  0.50528870069E+02  0.30000031060E+02 0.  0.
        -12    1    1    2    0    0  0.10691092688E+02  0.15889365116E+02 -0.35866327664E+02  0.40659129931E+02  0.00000000000E+00 0.  1.
         11    1    3    3    0    0 -0.11859810252E+02 -0.16577546944E+02  0.28492592175E+02  0.35032812776E+02  0.51100000000E-03 0. -1.
        -11    1    3    3    0    0 -0.26221744404E+00  0.80169193799E+00  0.11291833962E+02  0.11323293798E+02  0.51100000000E-03 0.  1.
         12    1    3    3    0    0  0.14309350082E+01 -0.11351011011E+00 -0.39180984723E+01  0.41727634946E+01  0.00000000000E+00 0. -1.
</event>
<event>
 7    1  0.5441610E-013  0.5052886E+02  0.7816164E-02  0.1300439E+00
        -11   -1    0    0    0    0  0.00000000000E+00  0.00000000000E+00  0.45593999997E+02  0.45594000000E+02  0.51100000000E-03 0.  1.
         11   -1    0    0    0    0 -0.00000000000E+00 -0.00000000000E+00 -0.45593999997E+02  0.45594000000E+02  0.51100000000E-03 0. -1.
    9900012    2    1    2    0    0 -0.99501918048E+01  0.35956831017E+02 -0.16163721717E+02  0.50528856951E+02  0.29999991189E+02 0.  0.
        -12    1    1    2    0    0  0.99501918048E+01 -0.35956831017E+02  0.16163721717E+02  0.40659143049E+02  0.00000000000E+00 0.  1.
         11    1    3    3    0    0  0.23501318126E+01  0.13388906945E+02 -0.10000398682E+02  0.16875838431E+02  0.51100000000E-03 0. -1.
        -11    1    3    3    0    0  0.28665119485E+01  0.40427976619E+01  0.51721721352E+01  0.71632721952E+01  0.51100000000E-03 0.  1.
        -12    1    3    3    0    0 -0.15166835566E+02  0.18525126410E+02 -0.11335495170E+02  0.26489746325E+02  0.00000000000E+00 0.  1.
</event>
<event>
 7    1  0.5441610E-013  0.5052886E+02  0.7816164E-02  0.1300439E+00
        -11   -1    0    0    0    0  0.00000000000E+00  0.00000000000E+00  0.45593999997E+02  0.45594000000E+02  0.51100000000E-03 0.  1.
         11   -1    0    0    0    0 -0.00000000000E+00 -0.00000000000E+00 -0.45593999997E+02  0.45594000000E+02  0.51100000000E-03 0. -1.
    9900012    2    1    2    0    0  0.17573439773E+02  0.22276824872E+01 -0.36597499106E+02  0.50528864550E+02  0.30000014286E+02 0.  0.
        -12    1    1    2    0    0 -0.17573439773E+02 -0.22276824872E+01  0.36597499106E+02  0.40659135450E+02  0.00000000000E+00 0.  1.
         11    1    3    3    0    0  0.11051981699E+02  0.92464059960E+01 -0.18172219324E+02  0.23192064996E+02  0.51100000000E-03 0. -1.
        -11    1    3    3    0    0 -0.27953106987E+01  0.39929587364E+01 -0.15018394101E+01  0.51002944275E+01  0.51100000000E-03 0.  1.
         12    1    3    3    0    0  0.93167687731E+01 -0.11011682245E+02 -0.16923440372E+02  0.22236505127E+02  0.00000000000E+00 0. -1.
</event>
<event>
 7    1  0.5441610E-013  0.5052882E+02  0.7816164E-02  0.1300439E+00
        -11   -1    0    0    0    0  0.00000000000E+00  0.00000000000E+00  0.45593999997E+02  0.45594000000E+02  0.51100000000E-03 0.  1.
         11   -1    0    0    0    0 -0.00000000000E+00 -0.00000000000E+00 -0.45593999997E+02  0.45594000000E+02  0.51100000000E-03 0. -1.
    9900012    2    1    2    0    0 -0.13210394378E+02 -0.38311637524E+02  0.32973399516E+01  0.50528824649E+02  0.29999893004E+02 0.  0.
        -12    1    1    2    0    0  0.13210394378E+02  0.38311637524E+02 -0.32973399516E+01  0.40659175351E+02  0.00000000000E+00 0.  1.
         11    1    3    3    0    0 -0.49837953687E+01 -0.90807472444E+01  0.96954727825E+01  0.14188036493E+02  0.51100000000E-03 0.  1.
        -11    1    3    3    0    0 -0.13665280305E+02 -0.18844963552E+02 -0.65858776368E+00  0.23287470348E+02  0.51100000000E-03 0. -1.
        -12    1    3    3    0    0  0.54386812956E+01 -0.10385926728E+02 -0.57395450672E+01  0.13053317808E+02  0.00000000000E+00 0.  1.
</event>
<event>
 7    1  0.6810165E-013  0.5052886E+02  0.7816164E-02  0.1300439E+00
        -11   -1    0    0    0    0  0.00000000000E+00  0.00000000000E+00  0.45593999997E+02  0.45594000000E+02  0.51100000000E-03 0. -1.
         11   -1    0    0    0    0 -0.00000000000E+00 -0.00000000000E+00 -0.45593999997E+02  0.45594000000E+02  0.51100000000E-03 0.  1.
    9900012    2    1    2    0    0 -0.25003779686E+02  0.22934434448E+02  0.22405090451E+02  0.50528863755E+02  0.30000011870E+02 0.  0.
        -12    1    1    2    0    0  0.25003779686E+02 -0.22934434448E+02 -0.22405090451E+02  0.40659136245E+02  0.00000000000E+00 0.  1.
         11    1    3    3    0    0 -0.14267159381E+02  0.10187226562E+01  0.71081546082E+01  0.15972335297E+02  0.51100000000E-03 0. -1.
        -11    1    3    3    0    0 -0.13722710890E+02  0.12138472526E+02  0.29996613211E+01  0.18564839825E+02  0.51100000000E-03 0.  1.
        -12    1    3    3    0    0  0.29860905850E+01  0.97772392660E+01  0.12297274522E+02  0.15991688632E+02  0.00000000000E+00 0.  1.
</event>
<event>
 7    1  0.5441610E-013  0.5052886E+02  0.7816164E-02  0.1300439E+00
        -11   -1    0    0    0    0  0.00000000000E+00  0.00000000000E+00  0.45593999997E+02  0.45594000000E+02  0.51100000000E-03 0. -1.
         11   -1    0    0    0    0 -0.00000000000E+00 -0.00000000000E+00 -0.45593999997E+02  0.45594000000E+02  0.51100000000E-03 0.  1.
    9900012    2    1    2    0    0 -0.24503185706E+01  0.22301108872E+02  0.33909028731E+02  0.50528858992E+02  0.29999997392E+02 0.  0.
        -12    1    1    2    0    0  0.24503185706E+01 -0.22301108872E+02 -0.33909028731E+02  0.40659141008E+02  0.00000000000E+00 0.  1.
         11    1    3    3    0    0 -0.40221191710E+00  0.26773295308E+01 -0.32572220159E+01  0.42354885626E+01  0.51100000000E-03 0.  1.
        -11    1    3    3    0    0 -0.17817159685E+01  0.23540774662E+02  0.30685618102E+02  0.38716272316E+02  0.51100000000E-03 0. -1.
         12    1    3    3    0    0 -0.26639068497E+00 -0.39169953210E+01  0.64806326450E+01  0.75770981135E+01  0.00000000000E+00 0. -1.
</event>
<event>
 7    1  0.5441610E-013  0.5052887E+02  0.7816164E-02  0.1300439E+00
        -11   -1    0    0    0    0  0.00000000000E+00  0.00000000000E+00  0.45593999997E+02  0.45594000000E+02  0.51100000000E-03 0.  1.
         11   -1    0    0    0    0 -0.00000000000E+00 -0.00000000000E+00 -0.45593999997E+02  0.45594000000E+02  0.51100000000E-03 0. -1.
    9900012    2    1    2    0    0 -0.26489252670E+02  0.75772967839E+01 -0.29900978789E+02  0.50528874749E+02  0.30000045288E+02 0.  0.
        -12    1    1    2    0    0  0.26489252670E+02 -0.75772967839E+01  0.29900978789E+02  0.40659125251E+02  0.00000000000E+00 0.  1.
         11    1    3    3    0    0 -0.63235017511E+01  0.14994738861E+02 -0.88391547528E+01  0.18519166420E+02  0.51100000000E-03 0.  1.
        -11    1    3    3    0    0 -0.11964037375E+02  0.13421131050E+01 -0.93699427584E+01  0.15255664045E+02  0.51100000000E-03 0. -1.
        -12    1    3    3    0    0 -0.82017135447E+01 -0.87595551819E+01 -0.11691881278E+02  0.16754044284E+02  0.00000000000E+00 0.  1.
</event>
<event>
 7    1  0.5441610E-013  0.5052888E+02  0.7816164E-02  0.1300439E+00
        -11   -1    0    0    0    0  0.00000000000E+00  0.00000000000E+00  0.45593999997E+02  0.45594000000E+02  0.51100000000E-03 0.  1.
         11   -1    0    0    0    0 -0.00000000000E+00 -0.00000000000E+00 -0.45593999997E+02  0.45594000000E+02  0.51100000000E-03 0. -1.
    9900012    2    1    2    0    0  0.85179697901E+01  0.70234300665E+01 -0.39131571465E+02  0.50528877228E+02  0.30000052822E+02 0.  0.
        -12    1    1    2    0    0 -0.85179697901E+01 -0.70234300665E+01  0.39131571465E+02  0.40659122772E+02  0.00000000000E+00 0.  1.
         11    1    3    3    0    0  0.80845250204E+01  0.64578741889E+01 -0.16730987766E+02  0.19672052149E+02  0.51100000000E-03 0. -1.
        -11    1    3    3    0    0 -0.19072074151E+01  0.56110791179E+01  0.16658514420E+01  0.61560303995E+01  0.51100000000E-03 0.  1.
        -12    1    3    3    0    0  0.23406521848E+01 -0.50455232403E+01 -0.24066435141E+02  0.24700794680E+02  0.00000000000E+00 0.  1.
</event>
<event>
 7    1  0.5441610E-013  0.5052883E+02  0.7816164E-02  0.1300439E+00
        -11   -1    0    0    0    0  0.00000000000E+00  0.00000000000E+00  0.45593999997E+02  0.45594000000E+02  0.51100000000E-03 0.  1.
         11   -1    0    0    0    0 -0.00000000000E+00 -0.00000000000E+00 -0.45593999997E+02  0.45594000000E+02  0.51100000000E-03 0. -1.
    9900012    2    1    2    0    0 -0.26144120446E+02  0.29184789903E+02 -0.10858226557E+02  0.50528830314E+02  0.29999910222E+02 0.  0.
        -12    1    1    2    0    0  0.26144120446E+02 -0.29184789903E+02  0.10858226557E+02  0.40659169686E+02  0.00000000000E+00 0.  1.
         11    1    3    3    0    0 -0.54943494707E+01  0.14209065720E+02 -0.16900126671E+01  0.15327803751E+02  0.51100000000E-03 0. -1.
        -11    1    3    3    0    0 -0.88618887000E+01  0.16036901479E+02  0.26053071748E+01  0.18506834038E+02  0.51100000000E-03 0.  1.
        -12    1    3    3    0    0 -0.11787882275E+02 -0.10611772958E+01 -0.11773521065E+02  0.16694192525E+02  0.00000000000E+00 0.  1.
</event>
<event>
 7    1  0.5441610E-013  0.5052886E+02  0.7816164E-02  0.1300439E+00
        -11   -1    0    0    0    0  0.00000000000E+00  0.00000000000E+00  0.45593999997E+02  0.45594000000E+02  0.51100000000E-03 0. -1.
         11   -1    0    0    0    0 -0.00000000000E+00 -0.00000000000E+00 -0.45593999997E+02  0.45594000000E+02  0.51100000000E-03 0.  1.
    9900012    2    1    2    0    0  0.17900506857E+02 -0.26576595205E+02  0.25028427733E+02  0.50528858922E+02  0.29999997180E+02 0.  0.
        -12    1    1    2    0    0 -0.17900506857E+02  0.26576595205E+02 -0.25028427733E+02  0.40659141078E+02  0.00000000000E+00 0.  1.
         11    1    3    3    0    0  0.82039993004E+01 -0.28083398188E+02  0.14501599879E+02  0.32653931733E+02  0.51100000000E-03 0. -1.
        -11    1    3    3    0    0  0.30292234271E+01 -0.13317736838E+01  0.10086209936E+02  0.10615151758E+02  0.51100000000E-03 0.  1.
        -12    1    3    3    0    0  0.66672841295E+01  0.28385766677E+01  0.44061791826E+00  0.72597754312E+01  0.00000000000E+00 0.  1.
</event>
<event>
 7    1  0.5441610E-013  0.5052883E+02  0.7816164E-02  0.1300439E+00
        -11   -1    0    0    0    0  0.00000000000E+00  0.00000000000E+00  0.45593999997E+02  0.45594000000E+02  0.51100000000E-03 0. -1.
         11   -1    0    0    0    0 -0.00000000000E+00 -0.00000000000E+00 -0.45593999997E+02  0.45594000000E+02  0.51100000000E-03 0.  1.
    9900012    2    1    2    0    0  0.14911829472E+02  0.24267521816E+02  0.29015383481E+02  0.50528834344E+02  0.29999922472E+02 0.  0.
        -12    1    1    2    0    0 -0.14911829472E+02 -0.24267521816E+02 -0.29015383481E+02  0.40659165656E+02  0.00000000000E+00 0.  1.
         11    1    3    3    0    0  0.15185207996E+01 -0.34859758634E+01  0.31528283121E+01  0.49394594609E+01  0.51100000000E-03 0. -1.
        -11    1    3    3    0    0  0.28530509005E+01  0.38551826872E+01 -0.37613177254E+01  0.60950672092E+01  0.51100000000E-03 0.  1.
         12    1    3    3    0    0  0.10540257772E+02  0.23898314992E+02  0.29623872895E+02  0.39494307674E+02  0.00000000000E+00 0. -1.
</event>
<event>
 7    1  0.5441610E-013  0.5052886E+02  0.7816164E-02  0.1300439E+00
        -11   -1    0    0    0    0  0.00000000000E+00  0.00000000000E+00  0.45593999997E+02  0.45594000000E+02  0.51100000000E-03 0.  1.
         11   -1    0    0    0    0 -0.00000000000E+00 -0.00000000000E+00 -0.45593999997E+02  0.45594000000E+02  0.51100000000E-03 0. -1.
    9900012    2    1    2    0    0 -0.29261620828E+02  0.15286186064E+02 -0.23733003711E+02  0.50528863228E+02  0.30000010268E+02 0.  0.
        -12    1    1    2    0    0  0.29261620828E+02 -0.15286186064E+02  0.23733003711E+02  0.40659136772E+02  0.00000000000E+00 0.  1.
         11    1    3    3    0    0 -0.38431903869E+01  0.96151800377E+01 -0.35555839237E+01  0.10948240809E+02  0.51100000000E-03 0.  1.
        -11    1    3    3    0    0 -0.18908854372E+02  0.51640692593E+00 -0.13032350408E+01  0.18960745544E+02  0.51100000000E-03 0. -1.
        -12    1    3    3    0    0 -0.65095760693E+01  0.51545991006E+01 -0.18874184747E+02  0.20619876875E+02  0.00000000000E+00 0.  1.
</event>
<event>
 7    1  0.5441610E-013  0.5052895E+02  0.7816164E-02  0.1300438E+00
        -11   -1    0    0    0    0  0.00000000000E+00  0.00000000000E+00  0.45593999997E+02  0.45594000000E+02  0.51100000000E-03 0.  1.
         11   -1    0    0    0    0 -0.00000000000E+00 -0.00000000000E+00 -0.45593999997E+02  0.45594000000E+02  0.51100000000E-03 0. -1.
    9900012    2    1    2    0    0 -0.31019112884E+02 -0.25106268591E+01 -0.26166198476E+02  0.50528947453E+02  0.30000266278E+02 0.  0.
        -12    1    1    2    0    0  0.31019112884E+02  0.25106268591E+01  0.26166198476E+02  0.40659052547E+02  0.00000000000E+00 0.  1.
         11    1    3    3    0    0 -0.53273073306E+01  0.50982536463E+01 -0.96624179114E+01  0.12154616974E+02  0.51100000000E-03 0. -1.
        -11    1    3    3    0    0  0.14193687492E+01 -0.11698581679E+01  0.35804979935E+01  0.40253126490E+01  0.51100000000E-03 0.  1.
        -12    1    3    3    0    0 -0.27111174302E+02 -0.64390223376E+01 -0.20084278558E+02  0.34349017830E+02  0.00000000000E+00 0.  1.
</event>
<event>
 7    1  0.5441610E-013  0.5052886E+02  0.7816164E-02  0.1300439E+00
        -11   -1    0    0    0    0  0.00000000000E+00  0.00000000000E+00  0.45593999997E+02  0.45594000000E+02  0.51100000000E-03 0.  1.
         11   -1    0    0    0    0 -0.00000000000E+00 -0.00000000000E+00 -0.45593999997E+02  0.45594000000E+02  0.51100000000E-03 0. -1.
    9900012    2    1    2    0    0 -0.31351644603E+02  0.25883268417E+02  0.54422045450E+00  0.50528863522E+02  0.30000011161E+02 0.  0.
        -12    1    1    2    0    0  0.31351644603E+02 -0.25883268417E+02 -0.54422045450E+00  0.40659136478E+02  0.00000000000E+00 0.  1.
         11    1    3    3    0    0 -0.10973299423E+02  0.21245021422E+02  0.43867419360E+01  0.24310650763E+02  0.51100000000E-03 0. -1.
        -11    1    3    3    0    0 -0.38115115547E+01 -0.27323523311E+00  0.54052896480E+01  0.66196249337E+01  0.51100000000E-03 0.  1.
        -12    1    3    3    0    0 -0.16566833625E+02  0.49114822283E+01 -0.92478111295E+01  0.19598587825E+02  0.00000000000E+00 0.  1.
</event>
<event>
 7    1  0.5441610E-013  0.5052886E+02  0.7816164E-02  0.1300439E+00
        -11   -1    0    0    0    0  0.00000000000E+00  0.00000000000E+00  0.45593999997E+02  0.45594000000E+02  0.51100000000E-03 0.  1.
         11   -1    0    0    0    0 -0.00000000000E+00 -0.00000000000E+00 -0.45593999997E+02  0.45594000000E+02  0.51100000000E-03 0. -1.
    9900012    2    1    2    0    0 -0.22866094152E+02 -0.50846828115E+01 -0.33233317473E+02  0.50528860175E+02  0.30000000988E+02 0.  0.
        -12    1    1    2    0    0  0.22866094152E+02  0.50846828115E+01  0.33233317473E+02  0.40659139825E+02  0.00000000000E+00 0.  1.
         11    1    3    3    0    0 -0.17888032930E+02 -0.56756139282E+00 -0.98154101735E+01  0.20411911355E+02  0.51100000000E-03 0. -1.
        -11    1    3    3    0    0 -0.13853123814E+01  0.33507674635E+01  0.13602112365E+01  0.38725841318E+01  0.51100000000E-03 0.  1.
         12    1    3    3    0    0 -0.35927488404E+01 -0.78678888822E+01 -0.24778118536E+02  0.26244364688E+02  0.00000000000E+00 0. -1.
</event>
<event>
 7    1  0.5441610E-013  0.5052886E+02  0.7816164E-02  0.1300439E+00
        -11   -1    0    0    0    0  0.00000000000E+00  0.00000000000E+00  0.45593999997E+02  0.45594000000E+02  0.51100000000E-03 0.  1.
         11   -1    0    0    0    0 -0.00000000000E+00 -0.00000000000E+00 -0.45593999997E+02  0.45594000000E+02  0.51100000000E-03 0. -1.
    9900012    2    1    2    0    0 -0.21221414571E+02  0.17485622044E+02 -0.29951134204E+02  0.50528857673E+02  0.29999993383E+02 0.  0.
        -12    1    1    2    0    0  0.21221414571E+02 -0.17485622044E+02  0.29951134204E+02  0.40659142327E+02  0.00000000000E+00 0.  1.
         11    1    3    3    0    0 -0.47152853154E+00  0.92878022234E+01 -0.37219232741E+01  0.10016901837E+02  0.51100000000E-03 0.  1.
        -11    1    3    3    0    0 -0.47974934906E+01  0.12943654930E+02 -0.85815712647E+01  0.16254153696E+02  0.51100000000E-03 0. -1.
         12    1    3    3    0    0 -0.15952392548E+02 -0.47458351091E+01 -0.17647639665E+02  0.24257802140E+02  0.00000000000E+00 0. -1.
</event>
<event>
 7    1  0.5441610E-013  0.5052886E+02  0.7816164E-02  0.1300439E+00
        -11   -1    0    0    0    0  0.00000000000E+00  0.00000000000E+00  0.45593999997E+02  0.45594000000E+02  0.51100000000E-03 0. -1.
         11   -1    0    0    0    0 -0.00000000000E+00 -0.00000000000E+00 -0.45593999997E+02  0.45594000000E+02  0.51100000000E-03 0.  1.
    9900012    2    1    2    0    0  0.39463715362E+02 -0.35695482020E+01 -0.91125847017E+01  0.50528859521E+02  0.29999999001E+02 0.  0.
        -12    1    1    2    0    0 -0.39463715362E+02  0.35695482020E+01  0.91125847017E+01  0.40659140479E+02  0.00000000000E+00 0.  1.
         11    1    3    3    0    0  0.99817564307E+01  0.44826119376E+01  0.84749475464E+00  0.10974858489E+02  0.51100000000E-03 0. -1.
        -11    1    3    3    0    0  0.95784622320E+01 -0.11827433862E+02  0.29895478886E+01  0.15510400618E+02  0.51100000000E-03 0.  1.
         12    1    3    3    0    0  0.19903496699E+02  0.37752737225E+01 -0.12949627345E+02  0.24043600415E+02  0.00000000000E+00 0. -1.
</event>
<event>
 7    1  0.5441610E-013  0.5052888E+02  0.7816164E-02  0.1300439E+00
        -11   -1    0    0    0    0  0.00000000000E+00  0.00000000000E+00  0.45593999997E+02  0.45594000000E+02  0.51100000000E-03 0. -1.
         11   -1    0    0    0    0 -0.00000000000E+00 -0.00000000000E+00 -0.45593999997E+02  0.45594000000E+02  0.51100000000E-03 0.  1.
    9900012    2    1    2    0    0  0.13517423366E+02  0.30135964147E+02  0.23712169697E+02  0.50528879728E+02  0.30000060422E+02 0.  0.
        -12    1    1    2    0    0 -0.13517423366E+02 -0.30135964147E+02 -0.23712169697E+02  0.40659120272E+02  0.00000000000E+00 0.  1.
         11    1    3    3    0    0  0.16759139065E+02  0.12889956748E+02  0.20579852503E+02  0.29505085265E+02  0.51100000000E-03 0. -1.
        -11    1    3    3    0    0  0.30661493180E+01  0.58757273321E+01 -0.21810651979E+01  0.69772837824E+01  0.51100000000E-03 0.  1.
        -12    1    3    3    0    0 -0.63078650169E+01  0.11370280067E+02  0.53133823912E+01  0.14046510681E+02  0.00000000000E+00 0.  1.
</event>
<event>
 7    1  0.5441610E-013  0.5052886E+02  0.7816164E-02  0.1300439E+00
        -11   -1    0    0    0    0  0.00000000000E+00  0.00000000000E+00  0.45593999997E+02  0.45594000000E+02  0.51100000000E-03 0. -1.
         11   -1    0    0    0    0 -0.00000000000E+00 -0.00000000000E+00 -0.45593999997E+02  0.45594000000E+02  0.51100000000E-03 0.  1.
    9900012    2    1    2    0    0  0.32403102097E+02  0.72567564748E+01  0.23463679482E+02  0.50528858410E+02  0.29999995622E+02 0.  0.
        -12    1    1    2    0    0 -0.32403102097E+02 -0.72567564748E+01 -0.23463679482E+02  0.40659141590E+02  0.00000000000E+00 0.  1.
         11    1    3    3    0    0  0.95356492178E+01  0.45758576690E+01  0.16625445292E+02  0.19704631710E+02  0.51100000000E-03 0. -1.
        -11    1    3    3    0    0 -0.19270427257E+01  0.31794967994E+01 -0.23261143137E+01  0.43856016264E+01  0.51100000000E-03 0.  1.
         12    1    3    3    0    0  0.24794495605E+02 -0.49859799368E+00  0.91643485033E+01  0.26438625073E+02  0.00000000000E+00 0. -1.
</event>
<event>
 7    1  0.5441610E-013  0.5052883E+02  0.7816164E-02  0.1300439E+00
        -11   -1    0    0    0    0  0.00000000000E+00  0.00000000000E+00  0.45593999997E+02  0.45594000000E+02  0.51100000000E-03 0. -1.
         11   -1    0    0    0    0 -0.00000000000E+00 -0.00000000000E+00 -0.45593999997E+02  0.45594000000E+02  0.51100000000E-03 0.  1.
    9900012    2    1    2    0    0  0.22299084901E+02  0.21004383395E+02  0.26734524300E+02  0.50528830078E+02  0.29999909504E+02 0.  0.
        -12    1    1    2    0    0 -0.22299084901E+02 -0.21004383395E+02 -0.26734524300E+02  0.40659169922E+02  0.00000000000E+00 0.  1.
         11    1    3    3    0    0  0.74653990277E+01  0.11820312476E+02  0.96513488928E+00  0.14013688140E+02  0.51100000000E-03 0. -1.
        -11    1    3    3    0    0  0.19116313558E+02  0.64633014223E+01  0.17009167524E+02  0.26391655679E+02  0.51100000000E-03 0.  1.
         12    1    3    3    0    0 -0.42826276845E+01  0.27207694964E+01  0.87602218860E+01  0.10123486259E+02  0.00000000000E+00 0. -1.
</event>
<event>
 7    1  0.5441610E-013  0.5052886E+02  0.7816164E-02  0.1300439E+00
        -11   -1    0    0    0    0  0.00000000000E+00  0.00000000000E+00  0.45593999997E+02  0.45594000000E+02  0.51100000000E-03 0.  1.
         11   -1    0    0    0    0 -0.00000000000E+00 -0.00000000000E+00 -0.45593999997E+02  0.45594000000E+02  0.51100000000E-03 0. -1.
    9900012    2    1    2    0    0 -0.14381735787E+01  0.32545939683E+02 -0.24328152726E+02  0.50528861443E+02  0.30000004843E+02 0.  0.
        -12    1    1    2    0    0  0.14381735787E+01 -0.32545939683E+02  0.24328152726E+02  0.40659138557E+02  0.00000000000E+00 0.  1.
         11    1    3    3    0    0 -0.65278402643E+01  0.19080571470E+02 -0.15393711470E+02  0.25370204162E+02  0.51100000000E-03 0. -1.
        -11    1    3    3    0    0  0.44703239917E+01  0.18200324907E+02 -0.72589177608E+01  0.20097947921E+02  0.51100000000E-03 0.  1.
         12    1    3    3    0    0  0.61934269384E+00 -0.47349566929E+01 -0.16755234950E+01  0.50607093612E+01  0.00000000000E+00 0. -1.
</event>
<event>
 7    1  0.5441610E-013  0.5052886E+02  0.7816164E-02  0.1300439E+00
        -11   -1    0    0    0    0  0.00000000000E+00  0.00000000000E+00  0.45593999997E+02  0.45594000000E+02  0.51100000000E-03 0. -1.
         11   -1    0    0    0    0 -0.00000000000E+00 -0.00000000000E+00 -0.45593999997E+02  0.45594000000E+02  0.51100000000E-03 0.  1.
    9900012    2    1    2    0    0  0.22428660153E+02 -0.33910047223E+02  0.47936174640E+00  0.50528857281E+02  0.29999992192E+02 0.  0.
        -12    1    1    2    0    0 -0.22428660153E+02  0.33910047223E+02 -0.47936174640E+00  0.40659142719E+02  0.00000000000E+00 0.  1.
         11    1    3    3    0    0  0.50231396689E+01 -0.73574088388E+01  0.10496868498E+02  0.13767630351E+02  0.51100000000E-03 0. -1.
        -11    1    3    3    0    0  0.15875407630E+02 -0.12697544597E+02 -0.14079253455E+01  0.20377400724E+02  0.51100000000E-03 0.  1.
         12    1    3    3    0    0  0.15301128543E+01 -0.13855093787E+02 -0.86095814060E+01  0.16383826207E+02  0.00000000000E+00 0. -1.
</event>
<event>
 7    1  0.5441610E-013  0.5052886E+02  0.7816164E-02  0.1300439E+00
        -11   -1    0    0    0    0  0.00000000000E+00  0.00000000000E+00  0.45593999997E+02  0.45594000000E+02  0.51100000000E-03 0. -1.
         11   -1    0    0    0    0 -0.00000000000E+00 -0.00000000000E+00 -0.45593999997E+02  0.45594000000E+02  0.51100000000E-03 0.  1.
    9900012    2    1    2    0    0 -0.38894578286E+02  0.11558347912E+02  0.26041719024E+01  0.50528864030E+02  0.30000012706E+02 0.  0.
        -12    1    1    2    0    0  0.38894578286E+02 -0.11558347912E+02 -0.26041719024E+01  0.40659135970E+02  0.00000000000E+00 0.  1.
         11    1    3    3    0    0 -0.13867899136E+02  0.97793912458E+01  0.47326766373E+01  0.17616848413E+02  0.51100000000E-03 0. -1.
        -11    1    3    3    0    0 -0.27501460795E+02 -0.92402828096E+00  0.17542888593E+01  0.27572843592E+02  0.51100000000E-03 0.  1.
         12    1    3    3    0    0  0.24747816446E+01  0.27029849474E+01 -0.38827935942E+01  0.53391720248E+01  0.00000000000E+00 0. -1.
</event>
<event>
 7    1  0.5441610E-013  0.5052886E+02  0.7816164E-02  0.1300439E+00
        -11   -1    0    0    0    0  0.00000000000E+00  0.00000000000E+00  0.45593999997E+02  0.45594000000E+02  0.51100000000E-03 0. -1.
         11   -1    0    0    0    0 -0.00000000000E+00 -0.00000000000E+00 -0.45593999997E+02  0.45594000000E+02  0.51100000000E-03 0.  1.
    9900012    2    1    2    0    0  0.31387928734E+02  0.22056175404E+02  0.13471778686E+02  0.50528858781E+02  0.29999996751E+02 0.  0.
        -12    1    1    2    0    0 -0.31387928734E+02 -0.22056175404E+02 -0.13471778686E+02  0.40659141219E+02  0.00000000000E+00 0.  1.
         11    1    3    3    0    0  0.26825368427E+01 -0.38448621791E+00 -0.28842006586E+01  0.39575809865E+01  0.51100000000E-03 0.  1.
        -11    1    3    3    0    0  0.21799547822E+01  0.85463438047E+01 -0.46723114040E+01  0.99811166409E+01  0.51100000000E-03 0. -1.
         12    1    3    3    0    0  0.26525437109E+02  0.13894317817E+02  0.21028290749E+02  0.36590161154E+02  0.00000000000E+00 0. -1.
</event>
<event>
 7    1  0.5441610E-013  0.5052888E+02  0.7816164E-02  0.1300439E+00
        -11   -1    0    0    0    0  0.00000000000E+00  0.00000000000E+00  0.45593999997E+02  0.45594000000E+02  0.51100000000E-03 0.  1.
         11   -1    0    0    0    0 -0.00000000000E+00 -0.00000000000E+00 -0.45593999997E+02  0.45594000000E+02  0.51100000000E-03 0. -1.
    9900012    2    1    2    0    0 -0.30427166616E+02 -0.52852073379E+01 -0.26446519351E+02  0.50528877154E+02  0.30000052596E+02 0.  0.
        -12    1    1    2    0    0  0.30427166616E+02  0.52852073379E+01  0.26446519351E+02  0.40659122846E+02  0.00000000000E+00 0.  1.
         11    1    3    3    0    0 -0.13695678591E+02  0.23318860348E+01  0.13115463222E+01  0.13954549744E+02  0.51100000000E-03 0. -1.
        -11    1    3    3    0    0 -0.35072723832E+00 -0.39291774363E+01  0.21300919369E+00  0.39505465571E+01  0.51100000000E-03 0.  1.
         12    1    3    3    0    0 -0.16380760787E+02 -0.36879159364E+01 -0.27971074866E+02  0.32623780852E+02  0.00000000000E+00 0. -1.
</event>
<event>
 7    1  0.5441610E-013  0.5052886E+02  0.7816164E-02  0.1300439E+00
        -11   -1    0    0    0    0  0.00000000000E+00  0.00000000000E+00  0.45593999997E+02  0.45594000000E+02  0.51100000000E-03 0.  1.
         11   -1    0    0    0    0 -0.00000000000E+00 -0.00000000000E+00 -0.45593999997E+02  0.45594000000E+02  0.51100000000E-03 0. -1.
    9900012    2    1    2    0    0 -0.29492545505E+00  0.34481045701E+02 -0.21543813040E+02  0.50528863585E+02  0.30000011354E+02 0.  0.
        -12    1    1    2    0    0  0.29492545505E+00 -0.34481045701E+02  0.21543813040E+02  0.40659136415E+02  0.00000000000E+00 0.  1.
         11    1    3    3    0    0 -0.97683237795E+00  0.93711168009E+01 -0.15723867391E+02  0.18330631129E+02  0.51100000000E-03 0. -1.
        -11    1    3    3    0    0  0.89250294514E+01  0.76215720920E+01 -0.52472611869E+01  0.12856059353E+02  0.51100000000E-03 0.  1.
         12    1    3    3    0    0 -0.82431225285E+01  0.17488356808E+02 -0.57268446200E+00  0.19342173104E+02  0.00000000000E+00 0. -1.
</event>
<event>
 7    1  0.5441610E-013  0.5052884E+02  0.7816164E-02  0.1300439E+00
        -11   -1    0    0    0    0  0.00000000000E+00  0.00000000000E+00  0.45593999997E+02  0.45594000000E+02  0.51100000000E-03 0.  1.
         11   -1    0    0    0    0 -0.00000000000E+00 -0.00000000000E+00 -0.45593999997E+02  0.45594000000E+02  0.51100000000E-03 0. -1.
    9900012    2    1    2    0    0 -0.60195302331E+01 -0.22375679905E+01 -0.40148791619E+02  0.50528844534E+02  0.29999953447E+02 0.  0.
        -12    1    1    2    0    0  0.60195302331E+01  0.22375679905E+01  0.40148791619E+02  0.40659155466E+02  0.00000000000E+00 0.  1.
         11    1    3    3    0    0  0.45270903574E+01 -0.37319859105E+00 -0.34862425736E+02  0.35157112406E+02  0.51100000000E-03 0. -1.
        -11    1    3    3    0    0 -0.36248314342E+01  0.35764426975E+01 -0.39972687167E+01  0.64736776835E+01  0.51100000000E-03 0.  1.
        -12    1    3    3    0    0 -0.69217891563E+01 -0.54408120970E+01 -0.12890971659E+01  0.88980544447E+01  0.00000000000E+00 0.  1.
</event>
<event>
 7    1  0.5441610E-013  0.5052886E+02  0.7816164E-02  0.1300439E+00
        -11   -1    0    0    0    0  0.00000000000E+00  0.00000000000E+00  0.45593999997E+02  0.45594000000E+02  0.51100000000E-03 0.  1.
         11   -1    0    0    0    0 -0.00000000000E+00 -0.00000000000E+00 -0.45593999997E+02  0.45594000000E+02  0.51100000000E-03 0. -1.
    9900012    2    1    2    0    0  0.22703325664E+02  0.19441351469E+02 -0.27563721476E+02  0.50528857304E+02  0.29999992261E+02 0.  0.
        -12    1    1    2    0    0 -0.22703325664E+02 -0.19441351469E+02  0.27563721476E+02  0.40659142696E+02  0.00000000000E+00 0.  1.
         11    1    3    3    0    0 -0.26215124312E+01 -0.20716912060E+01 -0.83277276531E+00  0.34435073137E+01  0.51100000000E-03 0. -1.
        -11    1    3    3    0    0 -0.29844673720E+01  0.46214498726E+01 -0.60125315522E+01  0.81495631997E+01  0.51100000000E-03 0.  1.
        -12    1    3    3    0    0  0.28309305467E+02  0.16891592802E+02 -0.20718417159E+02  0.38935786791E+02  0.00000000000E+00 0.  1.
</event>
<event>
 7    1  0.5441610E-013  0.5052886E+02  0.7816164E-02  0.1300439E+00
        -11   -1    0    0    0    0  0.00000000000E+00  0.00000000000E+00  0.45593999997E+02  0.45594000000E+02  0.51100000000E-03 0. -1.
         11   -1    0    0    0    0 -0.00000000000E+00 -0.00000000000E+00 -0.45593999997E+02  0.45594000000E+02  0.51100000000E-03 0.  1.
    9900012    2    1    2    0    0  0.39885952472E+02  0.76106483052E+01 -0.20867632516E+01  0.50528858924E+02  0.29999997185E+02 0.  0.
        -12    1    1    2    0    0 -0.39885952472E+02 -0.76106483052E+01  0.20867632516E+01  0.40659141076E+02  0.00000000000E+00 0.  1.
         11    1    3    3    0    0  0.17560386381E+02 -0.83309921277E+00  0.66992502374E+01  0.18813324484E+02  0.51100000000E-03 0. -1.
        -11    1    3    3    0    0  0.55856268094E+01 -0.54031245420E+01 -0.59895624852E+01  0.98116176391E+01  0.51100000000E-03 0.  1.
         12    1    3    3    0    0  0.16739939281E+02  0.13846872060E+02 -0.27964510038E+01  0.21903916801E+02  0.00000000000E+00 0. -1.
</event>
<event>
 7    1  0.5441610E-013  0.5052886E+02  0.7816164E-02  0.1300439E+00
        -11   -1    0    0    0    0  0.00000000000E+00  0.00000000000E+00  0.45593999997E+02  0.45594000000E+02  0.51100000000E-03 0.  1.
         11   -1    0    0    0    0 -0.00000000000E+00 -0.00000000000E+00 -0.45593999997E+02  0.45594000000E+02  0.51100000000E-03 0. -1.
    9900012    2    1    2    0    0  0.20245197221E+02 -0.26894294064E+02 -0.22803381817E+02  0.50528864667E+02  0.30000014643E+02 0.  0.
        -12    1    1    2    0    0 -0.20245197221E+02  0.26894294064E+02  0.22803381817E+02  0.40659135333E+02  0.00000000000E+00 0.  1.
         11    1    3    3    0    0  0.17985310121E+02 -0.29144454759E+02 -0.15751009998E+02  0.37695688607E+02  0.51100000000E-03 0. -1.
        -11    1    3    3    0    0 -0.62552506105E+00 -0.32088002657E+01 -0.56088628981E+01  0.64920739381E+01  0.51100000000E-03 0.  1.
        -12    1    3    3    0    0  0.28854121611E+01  0.54589609613E+01 -0.14435089206E+01  0.63411021219E+01  0.00000000000E+00 0.  1.
</event>
<event>
 7    1  0.5441610E-013  0.5052886E+02  0.7816164E-02  0.1300439E+00
        -11   -1    0    0    0    0  0.00000000000E+00  0.00000000000E+00  0.45593999997E+02  0.45594000000E+02  0.51100000000E-03 0.  1.
         11   -1    0    0    0    0 -0.00000000000E+00 -0.00000000000E+00 -0.45593999997E+02  0.45594000000E+02  0.51100000000E-03 0. -1.
    9900012    2    1    2    0    0  0.33684179569E+02 -0.22020934754E+02 -0.57982946423E+01  0.50528859067E+02  0.29999997619E+02 0.  0.
        -12    1    1    2    0    0 -0.33684179569E+02  0.22020934754E+02  0.57982946423E+01  0.40659140933E+02  0.00000000000E+00 0.  1.
         11    1    3    3    0    0  0.67324348591E+00 -0.13193977551E+02  0.70995764990E+00  0.13230205612E+02  0.51100000000E-03 0. -1.
        -11    1    3    3    0    0  0.16074725111E+02 -0.11040483299E+02 -0.51208559220E+01  0.20162148311E+02  0.51100000000E-03 0.  1.
        -12    1    3    3    0    0  0.16936210972E+02  0.22135260957E+01 -0.13873963701E+01  0.17136505144E+02  0.00000000000E+00 0.  1.
</event>
<event>
 7    1  0.5441610E-013  0.5052887E+02  0.7816164E-02  0.1300439E+00
        -11   -1    0    0    0    0  0.00000000000E+00  0.00000000000E+00  0.45593999997E+02  0.45594000000E+02  0.51100000000E-03 0. -1.
         11   -1    0    0    0    0 -0.00000000000E+00 -0.00000000000E+00 -0.45593999997E+02  0.45594000000E+02  0.51100000000E-03 0.  1.
    9900012    2    1    2    0    0  0.36290492655E+02  0.33188869034E+01  0.18031919673E+02  0.50528868251E+02  0.30000025537E+02 0.  0.
        -12    1    1    2    0    0 -0.36290492655E+02 -0.33188869034E+01 -0.18031919673E+02  0.40659131749E+02  0.00000000000E+00 0.  1.
         11    1    3    3    0    0  0.22062361764E+02  0.44690048778E+01  0.10016102694E+01  0.22532710325E+02  0.51100000000E-03 0. -1.
        -11    1    3    3    0    0  0.11486484945E+02 -0.70972733162E+01  0.16649603581E+02  0.21436415852E+02  0.51100000000E-03 0.  1.
         12    1    3    3    0    0  0.27416459467E+01  0.59471553417E+01  0.38070582304E+00  0.65597420741E+01  0.00000000000E+00 0. -1.
</event>
<event>
 7    1  0.5441610E-013  0.5052886E+02  0.7816164E-02  0.1300439E+00
        -11   -1    0    0    0    0  0.00000000000E+00  0.00000000000E+00  0.45593999997E+02  0.45594000000E+02  0.51100000000E-03 0. -1.
         11   -1    0    0    0    0 -0.00000000000E+00 -0.00000000000E+00 -0.45593999997E+02  0.45594000000E+02  0.51100000000E-03 0.  1.
    9900012    2    1    2    0    0 -0.20271762287E+02  0.11287396079E+02  0.33388860878E+02  0.50528859733E+02  0.29999999645E+02 0.  0.
        -12    1    1    2    0    0  0.20271762287E+02 -0.11287396079E+02 -0.33388860878E+02  0.40659140267E+02  0.00000000000E+00 0.  1.
         11    1    3    3    0    0 -0.15039953125E+02  0.25605923292E+00  0.21339495117E+02  0.26108232580E+02  0.51100000000E-03 0. -1.
        -11    1    3    3    0    0 -0.15032277443E+01  0.77653593902E+01  0.16153076467E+02  0.17985615911E+02  0.51100000000E-03 0.  1.
         12    1    3    3    0    0 -0.37285814177E+01  0.32659774564E+01 -0.41037107053E+01  0.64350112422E+01  0.00000000000E+00 0. -1.
</event>
<event>
 7    1  0.5441610E-013  0.5052888E+02  0.7816164E-02  0.1300439E+00
        -11   -1    0    0    0    0  0.00000000000E+00  0.00000000000E+00  0.45593999997E+02  0.45594000000E+02  0.51100000000E-03 0.  1.
         11   -1    0    0    0    0 -0.00000000000E+00 -0.00000000000E+00 -0.45593999997E+02  0.45594000000E+02  0.51100000000E-03 0. -1.
    9900012    2    1    2    0    0 -0.91371400521E+01  0.10366928113E+02 -0.38238767746E+02  0.50528881889E+02  0.30000066990E+02 0.  0.
        -12    1    1    2    0    0  0.91371400521E+01 -0.10366928113E+02  0.38238767746E+02  0.40659118111E+02  0.00000000000E+00 0.  1.
         11    1    3    3    0    0 -0.91464690870E+01  0.67595348612E+01 -0.24167082131E+02  0.26709493955E+02  0.51100000000E-03 0. -1.
        -11    1    3    3    0    0 -0.72317169385E+00  0.47075128303E+01 -0.18549196940E+02  0.19150884098E+02  0.51100000000E-03 0.  1.
        -12    1    3    3    0    0  0.73250072874E+00 -0.11001195789E+01  0.44775113253E+01  0.46685038368E+01  0.00000000000E+00 0.  1.
</event>
<event>
 7    1  0.5441610E-013  0.5052886E+02  0.7816164E-02  0.1300439E+00
        -11   -1    0    0    0    0  0.00000000000E+00  0.00000000000E+00  0.45593999997E+02  0.45594000000E+02  0.51100000000E-03 0. -1.
         11   -1    0    0    0    0 -0.00000000000E+00 -0.00000000000E+00 -0.45593999997E+02  0.45594000000E+02  0.51100000000E-03 0.  1.
    9900012    2    1    2    0    0  0.82288915885E+01 -0.39746320542E+02 -0.23835016724E+01  0.50528859163E+02  0.29999997911E+02 0.  0.
        -12    1    1    2    0    0 -0.82288915885E+01  0.39746320542E+02  0.23835016724E+01  0.40659140837E+02  0.00000000000E+00 0.  1.
         11    1    3    3    0    0  0.12459963347E+02 -0.19328957011E+02  0.94546940633E+00  0.23016367620E+02  0.51100000000E-03 0. -1.
        -11    1    3    3    0    0  0.21956035864E+01  0.23151082605E+01 -0.21738193372E+01  0.38608149578E+01  0.51100000000E-03 0.  1.
         12    1    3    3    0    0 -0.64266753452E+01 -0.22732471791E+02 -0.11551517416E+01  0.23651676585E+02  0.00000000000E+00 0. -1.
</event>
<event>
 7    1  0.5441610E-013  0.5052885E+02  0.7816164E-02  0.1300439E+00
        -11   -1    0    0    0    0  0.00000000000E+00  0.00000000000E+00  0.45593999997E+02  0.45594000000E+02  0.51100000000E-03 0.  1.
         11   -1    0    0    0    0 -0.00000000000E+00 -0.00000000000E+00 -0.45593999997E+02  0.45594000000E+02  0.51100000000E-03 0. -1.
    9900012    2    1    2    0    0 -0.50141236423E+01 -0.12641788667E+02 -0.38317229603E+02  0.50528851693E+02  0.29999975205E+02 0.  0.
        -12    1    1    2    0    0  0.50141236423E+01  0.12641788667E+02  0.38317229603E+02  0.40659148307E+02  0.00000000000E+00 0.  1.
         11    1    3    3    0    0  0.11043012389E+02 -0.65287163490E+01 -0.13788700124E+02  0.18833494396E+02  0.51100000000E-03 0.  1.
        -11    1    3    3    0    0 -0.52850994780E+01  0.28986785524E+01 -0.75256083115E+01  0.96420638124E+01  0.51100000000E-03 0. -1.
        -12    1    3    3    0    0 -0.10772036553E+02 -0.90117508708E+01 -0.17002921168E+02  0.22053293485E+02  0.00000000000E+00 0.  1.
</event>
<event>
 7    1  0.5441610E-013  0.5052886E+02  0.7816164E-02  0.1300439E+00
        -11   -1    0    0    0    0  0.00000000000E+00  0.00000000000E+00  0.45593999997E+02  0.45594000000E+02  0.51100000000E-03 0.  1.
         11   -1    0    0    0    0 -0.00000000000E+00 -0.00000000000E+00 -0.45593999997E+02  0.45594000000E+02  0.51100000000E-03 0. -1.
    9900012    2    1    2    0    0  0.51207919536E+01  0.39224901926E+02  0.93994961165E+01  0.50528856274E+02  0.29999989130E+02 0.  0.
        -12    1    1    2    0    0 -0.51207919536E+01 -0.39224901926E+02 -0.93994961165E+01  0.40659143726E+02  0.00000000000E+00 0.  1.
         11    1    3    3    0    0  0.16006653221E+01  0.15871741722E+02  0.11463978135E+02  0.19644264040E+02  0.51100000000E-03 0. -1.
        -11    1    3    3    0    0 -0.26733960796E+01 -0.14184149216E+01  0.36270889549E+01  0.47238461063E+01  0.51100000000E-03 0.  1.
        -12    1    3    3    0    0  0.61935227111E+01  0.24771575126E+02 -0.56915709732E+01  0.26160746127E+02  0.00000000000E+00 0.  1.
</event>
<event>
 7    1  0.5441610E-013  0.5052887E+02  0.7816164E-02  0.1300439E+00
        -11   -1    0    0    0    0  0.00000000000E+00  0.00000000000E+00  0.45593999997E+02  0.45594000000E+02  0.51100000000E-03 0.  1.
         11   -1    0    0    0    0 -0.00000000000E+00 -0.00000000000E+00 -0.45593999997E+02  0.45594000000E+02  0.51100000000E-03 0. -1.
    9900012    2    1    2    0    0  0.40448139040E+02  0.32616265349E+01  0.25446122932E+01  0.50528865587E+02  0.30000017439E+02 0.  0.
        -12    1    1    2    0    0 -0.40448139040E+02 -0.32616265349E+01 -0.25446122932E+01  0.40659134413E+02  0.00000000000E+00 0.  1.
         11    1    3    3    0    0  0.27943622475E+02 -0.27482429471E+01 -0.75991972796E+01  0.29088600445E+02  0.51100000000E-03 0. -1.
        -11    1    3    3    0    0  0.20901281722E+00  0.19440253605E+01  0.80963603213E+01  0.83291038938E+01  0.51100000000E-03 0.  1.
         12    1    3    3    0    0  0.12295503748E+02  0.40658441215E+01  0.20474492515E+01  0.13111161248E+02  0.00000000000E+00 0. -1.
</event>
<event>
 7    1  0.5441610E-013  0.5052887E+02  0.7816164E-02  0.1300439E+00
        -11   -1    0    0    0    0  0.00000000000E+00  0.00000000000E+00  0.45593999997E+02  0.45594000000E+02  0.51100000000E-03 0.  1.
         11   -1    0    0    0    0 -0.00000000000E+00 -0.00000000000E+00 -0.45593999997E+02  0.45594000000E+02  0.51100000000E-03 0. -1.
    9900012    2    1    2    0    0 -0.99656524310E+01 -0.17448870628E+02 -0.35346679776E+02  0.50528867129E+02  0.30000022127E+02 0.  0.
        -12    1    1    2    0    0  0.99656524310E+01  0.17448870628E+02  0.35346679776E+02  0.40659132871E+02  0.00000000000E+00 0.  1.
         11    1    3    3    0    0  0.16000964306E+01  0.65786166061E+00 -0.15171637577E+02  0.15269959973E+02  0.51100000000E-03 0. -1.
        -11    1    3    3    0    0  0.26396151589E+01  0.46394784622E+00  0.17544372908E+01  0.32032586939E+01  0.51100000000E-03 0.  1.
         12    1    3    3    0    0 -0.14205364021E+02 -0.18570680135E+02 -0.21929479490E+02  0.32055648462E+02  0.00000000000E+00 0. -1.
</event>
<event>
 7    1  0.5441610E-013  0.5052883E+02  0.7816164E-02  0.1300439E+00
        -11   -1    0    0    0    0  0.00000000000E+00  0.00000000000E+00  0.45593999997E+02  0.45594000000E+02  0.51100000000E-03 0.  1.
         11   -1    0    0    0    0 -0.00000000000E+00 -0.00000000000E+00 -0.45593999997E+02  0.45594000000E+02  0.51100000000E-03 0. -1.
    9900012    2    1    2    0    0  0.30169502891E+02 -0.23743229429E+02 -0.13387616396E+02  0.50528829802E+02  0.29999908667E+02 0.  0.
        -12    1    1    2    0    0 -0.30169502891E+02  0.23743229429E+02  0.13387616396E+02  0.40659170198E+02  0.00000000000E+00 0.  1.
         11    1    3    3    0    0  0.19870191347E+02 -0.70117982326E+01 -0.58608410325E+01  0.21870968805E+02  0.51100000000E-03 0. -1.
        -11    1    3    3    0    0 -0.23334810934E+01 -0.38002935938E+01  0.49729027409E+01  0.66796053284E+01  0.51100000000E-03 0.  1.
         12    1    3    3    0    0  0.12632792638E+02 -0.12931137602E+02 -0.12499678105E+02  0.21978255669E+02  0.00000000000E+00 0. -1.
</event>
<event>
 7    1  0.5441610E-013  0.5052882E+02  0.7816164E-02  0.1300439E+00
        -11   -1    0    0    0    0  0.00000000000E+00  0.00000000000E+00  0.45593999997E+02  0.45594000000E+02  0.51100000000E-03 0.  1.
         11   -1    0    0    0    0 -0.00000000000E+00 -0.00000000000E+00 -0.45593999997E+02  0.45594000000E+02  0.51100000000E-03 0. -1.
    9900012    2    1    2    0    0 -0.31031894537E+02  0.13459314833E+02 -0.22561849422E+02  0.50528822884E+02  0.29999887639E+02 0.  0.
        -12    1    1    2    0    0  0.31031894537E+02 -0.13459314833E+02  0.22561849422E+02  0.40659177116E+02  0.00000000000E+00 0.  1.
         11    1    3    3    0    0 -0.34867610169E+02  0.13664687168E+02 -0.17597042979E+02  0.41377890668E+02  0.51100000000E-03 0.  1.
        -11    1    3    3    0    0 -0.14581302149E+00  0.24172238203E+01 -0.23144656288E+00  0.24326529155E+01  0.51100000000E-03 0. -1.
        -12    1    3    3    0    0  0.39815286528E+01 -0.26225961548E+01 -0.47333598807E+01  0.67182793009E+01  0.00000000000E+00 0.  1.
</event>
<event>
 7    1  0.6594185E-013  0.5052886E+02  0.7816164E-02  0.1300439E+00
        -11   -1    0    0    0    0  0.00000000000E+00  0.00000000000E+00  0.45593999997E+02  0.45594000000E+02  0.51100000000E-03 0. -1.
         11   -1    0    0    0    0 -0.00000000000E+00 -0.00000000000E+00 -0.45593999997E+02  0.45594000000E+02  0.51100000000E-03 0.  1.
    9900012    2    1    2    0    0  0.16866326045E+02 -0.34452762029E+02  0.13479609752E+02  0.50528860256E+02  0.30000001234E+02 0.  0.
        -12    1    1    2    0    0 -0.16866326045E+02  0.34452762029E+02 -0.13479609752E+02  0.40659139744E+02  0.00000000000E+00 0.  1.
         11    1    3    3    0    0  0.12491827176E+02 -0.20786336619E+02  0.13718435866E+02  0.27862394353E+02  0.51100000000E-03 0. -1.
        -11    1    3    3    0    0 -0.10747627950E+01 -0.15825490581E+02  0.27314837952E+01  0.16095411494E+02  0.51100000000E-03 0.  1.
        -12    1    3    3    0    0  0.54492616635E+01  0.21590651707E+01 -0.29703099083E+01  0.65710544085E+01  0.00000000000E+00 0.  1.
</event>
<event>
 7    1  0.5441610E-013  0.5052886E+02  0.7816164E-02  0.1300439E+00
        -11   -1    0    0    0    0  0.00000000000E+00  0.00000000000E+00  0.45593999997E+02  0.45594000000E+02  0.51100000000E-03 0.  1.
         11   -1    0    0    0    0 -0.00000000000E+00 -0.00000000000E+00 -0.45593999997E+02  0.45594000000E+02  0.51100000000E-03 0. -1.
    9900012    2    1    2    0    0  0.27617115113E+02  0.29646400373E+02 -0.33987232937E+01  0.50528862991E+02  0.30000009548E+02 0.  0.
        -12    1    1    2    0    0 -0.27617115113E+02 -0.29646400373E+02  0.33987232937E+01  0.40659137009E+02  0.00000000000E+00 0.  1.
         11    1    3    3    0    0  0.13878721642E+02  0.18137207520E+02 -0.13179139642E+02  0.26367914840E+02  0.51100000000E-03 0. -1.
        -11    1    3    3    0    0  0.74184222525E+01  0.13351814658E+02  0.51762433996E+01  0.16127536680E+02  0.51100000000E-03 0.  1.
        -12    1    3    3    0    0  0.63199712189E+01 -0.18426218046E+01  0.46041729488E+01  0.80334114712E+01  0.00000000000E+00 0.  1.
</event>
<event>
 7    1  0.5441610E-013  0.5052886E+02  0.7816164E-02  0.1300439E+00
        -11   -1    0    0    0    0  0.00000000000E+00  0.00000000000E+00  0.45593999997E+02  0.45594000000E+02  0.51100000000E-03 0.  1.
         11   -1    0    0    0    0 -0.00000000000E+00 -0.00000000000E+00 -0.45593999997E+02  0.45594000000E+02  0.51100000000E-03 0. -1.
    9900012    2    1    2    0    0 -0.10426243276E+02  0.17915521128E+02 -0.34978462266E+02  0.50528864881E+02  0.30000015293E+02 0.  0.
        -12    1    1    2    0    0  0.10426243276E+02 -0.17915521128E+02  0.34978462266E+02  0.40659135119E+02  0.00000000000E+00 0.  1.
         11    1    3    3    0    0 -0.28676585676E+01  0.27794815568E+01 -0.31536885148E+02  0.31788741851E+02  0.51100000000E-03 0. -1.
        -11    1    3    3    0    0  0.78534039775E+00  0.43954933631E+01  0.70700928384E+00  0.45207282416E+01  0.51100000000E-03 0.  1.
        -12    1    3    3    0    0 -0.83439251057E+01  0.10740546208E+02 -0.41485864017E+01  0.14219394788E+02  0.00000000000E+00 0.  1.
</event>
<event>
 7    1  0.5441610E-013  0.5052886E+02  0.7816164E-02  0.1300439E+00
        -11   -1    0    0    0    0  0.00000000000E+00  0.00000000000E+00  0.45593999997E+02  0.45594000000E+02  0.51100000000E-03 0.  1.
         11   -1    0    0    0    0 -0.00000000000E+00 -0.00000000000E+00 -0.45593999997E+02  0.45594000000E+02  0.51100000000E-03 0. -1.
    9900012    2    1    2    0    0  0.21933228311E+02  0.19371392182E+02 -0.28228503301E+02  0.50528859111E+02  0.29999997753E+02 0.  0.
        -12    1    1    2    0    0 -0.21933228311E+02 -0.19371392182E+02  0.28228503301E+02  0.40659140889E+02  0.00000000000E+00 0.  1.
         11    1    3    3    0    0 -0.35143445088E+01  0.92093405201E+00  0.17820192880E+00  0.36373744711E+01  0.51100000000E-03 0. -1.
        -11    1    3    3    0    0  0.21959099720E+02  0.77522189530E+01 -0.10056692437E+02  0.25366040729E+02  0.51100000000E-03 0.  1.
         12    1    3    3    0    0  0.34884730995E+01  0.10698239177E+02 -0.18350012793E+02  0.21525443911E+02  0.00000000000E+00 0. -1.
</event>
<event>
 7    1  0.5441610E-013  0.5052885E+02  0.7816164E-02  0.1300439E+00
        -11   -1    0    0    0    0  0.00000000000E+00  0.00000000000E+00  0.45593999997E+02  0.45594000000E+02  0.51100000000E-03 0.  1.
         11   -1    0    0    0    0 -0.00000000000E+00 -0.00000000000E+00 -0.45593999997E+02  0.45594000000E+02  0.51100000000E-03 0. -1.
    9900012    2    1    2    0    0 -0.37203516517E+02  0.93891215147E+01 -0.13450241378E+02  0.50528852970E+02  0.29999979088E+02 0.  0.
        -12    1    1    2    0    0  0.37203516517E+02 -0.93891215147E+01  0.13450241378E+02  0.40659147030E+02  0.00000000000E+00 0.  1.
         11    1    3    3    0    0 -0.12995862632E-01  0.16042684820E+01 -0.95455128262E+01  0.96793936603E+01  0.51100000000E-03 0. -1.
        -11    1    3    3    0    0 -0.69708608018E+01 -0.41836104357E+01 -0.14011213568E+01  0.82497659308E+01  0.51100000000E-03 0.  1.
        -12    1    3    3    0    0 -0.30219659853E+02  0.11968463468E+02 -0.25036071953E+01  0.32599693379E+02  0.00000000000E+00 0.  1.
</event>
<event>
 7    1  0.5441610E-013  0.5052885E+02  0.7816164E-02  0.1300439E+00
        -11   -1    0    0    0    0  0.00000000000E+00  0.00000000000E+00  0.45593999997E+02  0.45594000000E+02  0.51100000000E-03 0. -1.
         11   -1    0    0    0    0 -0.00000000000E+00 -0.00000000000E+00 -0.45593999997E+02  0.45594000000E+02  0.51100000000E-03 0.  1.
    9900012    2    1    2    0    0  0.40024958114E+02 -0.40267481015E+01 -0.59122147173E+01  0.50528852749E+02  0.29999978415E+02 0.  0.
        -12    1    1    2    0    0 -0.40024958114E+02  0.40267481015E+01  0.59122147173E+01  0.40659147251E+02  0.00000000000E+00 0.  1.
         11    1    3    3    0    0  0.13438931969E+02  0.58340196671E+01 -0.54747944079E+01  0.15640142327E+02  0.51100000000E-03 0.  1.
        -11    1    3    3    0    0  0.29543997363E+01 -0.59833011657E+00  0.76718155837E+01  0.82427684270E+01  0.51100000000E-03 0. -1.
         12    1    3    3    0    0  0.23631626409E+02 -0.92624376521E+01 -0.81092358931E+01  0.26645941994E+02  0.00000000000E+00 0. -1.
</event>
<event>
 7    1  0.5441610E-013  0.5052886E+02  0.7816164E-02  0.1300439E+00
        -11   -1    0    0    0    0  0.00000000000E+00  0.00000000000E+00  0.45593999997E+02  0.45594000000E+02  0.51100000000E-03 0.  1.
         11   -1    0    0    0    0 -0.00000000000E+00 -0.00000000000E+00 -0.45593999997E+02  0.45594000000E+02  0.51100000000E-03 0. -1.
    9900012    2    1    2    0    0  0.24769032588E+02  0.31985461728E+02 -0.40731670413E+01  0.50528862932E+02  0.30000009370E+02 0.  0.
        -12    1    1    2    0    0 -0.24769032588E+02 -0.31985461728E+02  0.40731670413E+01  0.40659137068E+02  0.00000000000E+00 0.  1.
         11    1    3    3    0    0  0.74220518746E+01  0.24613461915E+02 -0.32648696797E+01  0.25914643269E+02  0.51100000000E-03 0. -1.
        -11    1    3    3    0    0  0.70709718794E+00 -0.42439017419E+01 -0.33593387234E+00  0.43155000007E+01  0.51100000000E-03 0.  1.
         12    1    3    3    0    0  0.16639883526E+02  0.11615901555E+02 -0.47236348924E+00  0.20298719663E+02  0.00000000000E+00 0. -1.
</event>
<event>
 7    1  0.5441610E-013  0.5052887E+02  0.7816164E-02  0.1300439E+00
        -11   -1    0    0    0    0  0.00000000000E+00  0.00000000000E+00  0.45593999997E+02  0.45594000000E+02  0.51100000000E-03 0. -1.
         11   -1    0    0    0    0 -0.00000000000E+00 -0.00000000000E+00 -0.45593999997E+02  0.45594000000E+02  0.51100000000E-03 0.  1.
    9900012    2    1    2    0    0 -0.39904393418E+02  0.25086508405E+00  0.77936784367E+01  0.50528868541E+02  0.30000026419E+02 0.  0.
        -12    1    1    2    0    0  0.39904393418E+02 -0.25086508405E+00 -0.77936784367E+01  0.40659131459E+02  0.00000000000E+00 0.  1.
         11    1    3    3    0    0 -0.21777521460E+02  0.12315092283E+02  0.65332576781E+01  0.25857405032E+02  0.51100000000E-03 0. -1.
        -11    1    3    3    0    0  0.11620439999E+01 -0.18411049487E+01 -0.15332223072E+01  0.26628527174E+01  0.51100000000E-03 0.  1.
        -12    1    3    3    0    0 -0.19288915959E+02 -0.10223122250E+02  0.27936430659E+01  0.22008610792E+02  0.00000000000E+00 0.  1.
</event>
<event>
 7    1  0.5441610E-013  0.5052889E+02  0.7816164E-02  0.1300439E+00
        -11   -1    0    0    0    0  0.00000000000E+00  0.00000000000E+00  0.45593999997E+02  0.45594000000E+02  0.51100000000E-03 0. -1.
         11   -1    0    0    0    0 -0.00000000000E+00 -0.00000000000E+00 -0.45593999997E+02  0.45594000000E+02  0.51100000000E-03 0.  1.
    9900012    2    1    2    0    0 -0.30840780560E+02 -0.12918188186E+01  0.26463953899E+02  0.50528887893E+02  0.30000085239E+02 0.  0.
        -12    1    1    2    0    0  0.30840780560E+02  0.12918188186E+01 -0.26463953899E+02  0.40659112107E+02  0.00000000000E+00 0.  1.
         11    1    3    3    0    0 -0.42039548436E+01 -0.57967636780E+01 -0.76478063441E+00  0.72014300764E+01  0.51100000000E-03 0. -1.
        -11    1    3    3    0    0 -0.21144306833E+02  0.18119331055E+01  0.72386891503E+01  0.22422386891E+02  0.51100000000E-03 0.  1.
         12    1    3    3    0    0 -0.54925188831E+01  0.26930117539E+01  0.19990045383E+02  0.20905070925E+02  0.00000000000E+00 0. -1.
</event>
<event>
 7    1  0.5441610E-013  0.5052889E+02  0.7816164E-02  0.1300439E+00
        -11   -1    0    0    0    0  0.00000000000E+00  0.00000000000E+00  0.45593999997E+02  0.45594000000E+02  0.51100000000E-03 0.  1.
         11   -1    0    0    0    0 -0.00000000000E+00 -0.00000000000E+00 -0.45593999997E+02  0.45594000000E+02  0.51100000000E-03 0. -1.
    9900012    2    1    2    0    0  0.49527888196E+01 -0.46913200598E+01 -0.40082723984E+02  0.50528888315E+02  0.30000086523E+02 0.  0.
        -12    1    1    2    0    0 -0.49527888196E+01  0.46913200598E+01  0.40082723984E+02  0.40659111685E+02  0.00000000000E+00 0.  1.
         11    1    3    3    0    0 -0.10531970120E+02 -0.16576892211E+01 -0.12987471357E+02  0.16803116993E+02  0.51100000000E-03 0. -1.
        -11    1    3    3    0    0  0.45384004701E+01 -0.91031155014E+00 -0.19955728259E+02  0.20485527491E+02  0.51100000000E-03 0.  1.
        -12    1    3    3    0    0  0.10946358469E+02 -0.21233192885E+01 -0.71395243675E+01  0.13240243832E+02  0.00000000000E+00 0.  1.
</event>
<event>
 7    1  0.5441610E-013  0.5052886E+02  0.7816164E-02  0.1300439E+00
        -11   -1    0    0    0    0  0.00000000000E+00  0.00000000000E+00  0.45593999997E+02  0.45594000000E+02  0.51100000000E-03 0.  1.
         11   -1    0    0    0    0 -0.00000000000E+00 -0.00000000000E+00 -0.45593999997E+02  0.45594000000E+02  0.51100000000E-03 0. -1.
    9900012    2    1    2    0    0  0.52309879594E+01  0.20368148415E+02 -0.34798581628E+02  0.50528856032E+02  0.29999988395E+02 0.  0.
        -12    1    1    2    0    0 -0.52309879594E+01 -0.20368148415E+02  0.34798581628E+02  0.40659143968E+02  0.00000000000E+00 0.  1.
         11    1    3    3    0    0 -0.63104979956E+01  0.71347313326E+01 -0.88836575572E+01  0.13024828137E+02  0.51100000000E-03 0. -1.
        -11    1    3    3    0    0 -0.11059450166E+01 -0.35528647401E+01  0.49268661172E+00  0.37534920541E+01  0.51100000000E-03 0.  1.
         12    1    3    3    0    0  0.12647430971E+02  0.16786281823E+02 -0.26407610682E+02  0.33750535841E+02  0.00000000000E+00 0. -1.
</event>
<event>
 7    1  0.5441610E-013  0.5052886E+02  0.7816164E-02  0.1300439E+00
        -11   -1    0    0    0    0  0.00000000000E+00  0.00000000000E+00  0.45593999997E+02  0.45594000000E+02  0.51100000000E-03 0. -1.
         11   -1    0    0    0    0 -0.00000000000E+00 -0.00000000000E+00 -0.45593999997E+02  0.45594000000E+02  0.51100000000E-03 0.  1.
    9900012    2    1    2    0    0 -0.21191225319E+02 -0.28112709945E+02  0.20341417935E+02  0.50528858659E+02  0.29999996381E+02 0.  0.
        -12    1    1    2    0    0  0.21191225319E+02  0.28112709945E+02 -0.20341417935E+02  0.40659141341E+02  0.00000000000E+00 0.  1.
         11    1    3    3    0    0 -0.10135189434E+02 -0.16174102602E+02 -0.40349408810E+00  0.19091528686E+02  0.51100000000E-03 0. -1.
        -11    1    3    3    0    0 -0.74542862738E+01  0.11069206239E+00  0.33335900270E+00  0.74625575421E+01  0.51100000000E-03 0.  1.
         12    1    3    3    0    0 -0.36017496111E+01 -0.12049299405E+02  0.20411553021E+02  0.23974772431E+02  0.00000000000E+00 0. -1.
</event>
<event>
 7    1  0.5441610E-013  0.5052886E+02  0.7816164E-02  0.1300439E+00
        -11   -1    0    0    0    0  0.00000000000E+00  0.00000000000E+00  0.45593999997E+02  0.45594000000E+02  0.51100000000E-03 0. -1.
         11   -1    0    0    0    0 -0.00000000000E+00 -0.00000000000E+00 -0.45593999997E+02  0.45594000000E+02  0.51100000000E-03 0.  1.
    9900012    2    1    2    0    0  0.20971440677E+02  0.12779546004E+02 -0.32404436324E+02  0.50528860639E+02  0.30000002397E+02 0.  0.
        -12    1    1    2    0    0 -0.20971440677E+02 -0.12779546004E+02  0.32404436324E+02  0.40659139361E+02  0.00000000000E+00 0.  1.
         11    1    3    3    0    0  0.14880522255E+02  0.47288252581E+01 -0.66618377885E+01  0.16975624109E+02  0.51100000000E-03 0. -1.
        -11    1    3    3    0    0  0.12698996487E+02  0.66624311350E+01 -0.20433963163E+02  0.24963961048E+02  0.51100000000E-03 0.  1.
        -12    1    3    3    0    0 -0.66080780659E+01  0.13882896106E+01 -0.53086353729E+01  0.85892754811E+01  0.00000000000E+00 0.  1.
</event>
<event>
 7    1  0.5441610E-013  0.5052886E+02  0.7816164E-02  0.1300439E+00
        -11   -1    0    0    0    0  0.00000000000E+00  0.00000000000E+00  0.45593999997E+02  0.45594000000E+02  0.51100000000E-03 0. -1.
         11   -1    0    0    0    0 -0.00000000000E+00 -0.00000000000E+00 -0.45593999997E+02  0.45594000000E+02  0.51100000000E-03 0.  1.
    9900012    2    1    2    0    0  0.29838653466E+02 -0.20123439644E+02 -0.18917383490E+02  0.50528862504E+02  0.30000008068E+02 0.  0.
        -12    1    1    2    0    0 -0.29838653466E+02  0.20123439644E+02  0.18917383490E+02  0.40659137496E+02  0.00000000000E+00 0.  1.
         11    1    3    3    0    0  0.16765102974E+02  0.14578071076E+01 -0.17116231612E+01  0.16915186472E+02  0.51100000000E-03 0. -1.
        -11    1    3    3    0    0  0.31552440680E+01 -0.21594572493E+01 -0.99032969435E+01  0.10615748271E+02  0.51100000000E-03 0.  1.
         12    1    3    3    0    0  0.99183064243E+01 -0.19421789502E+02 -0.73024633851E+01  0.22997927761E+02  0.00000000000E+00 0. -1.
</event>
<event>
 7    1  0.5441610E-013  0.5052886E+02  0.7816164E-02  0.1300439E+00
        -11   -1    0    0    0    0  0.00000000000E+00  0.00000000000E+00  0.45593999997E+02  0.45594000000E+02  0.51100000000E-03 0.  1.
         11   -1    0    0    0    0 -0.00000000000E+00 -0.00000000000E+00 -0.45593999997E+02  0.45594000000E+02  0.51100000000E-03 0. -1.
    9900012    2    1    2    0    0  0.29013665663E+01  0.38108893171E+02 -0.13873006662E+02  0.50528856126E+02  0.29999988682E+02 0.  0.
        -12    1    1    2    0    0 -0.29013665663E+01 -0.38108893171E+02  0.13873006662E+02  0.40659143874E+02  0.00000000000E+00 0.  1.
         11    1    3    3    0    0 -0.82916695582E+01  0.20835365262E+02 -0.12199195977E+02  0.25528114157E+02  0.51100000000E-03 0. -1.
        -11    1    3    3    0    0  0.31080809589E+01  0.61896461678E+01 -0.73988559701E+01  0.10134838768E+02  0.51100000000E-03 0.  1.
        -12    1    3    3    0    0  0.80849551656E+01  0.11083881742E+02  0.57250452845E+01  0.14865903202E+02  0.00000000000E+00 0.  1.
</event>
<event>
 7    1  0.5441610E-013  0.5052886E+02  0.7816164E-02  0.1300439E+00
        -11   -1    0    0    0    0  0.00000000000E+00  0.00000000000E+00  0.45593999997E+02  0.45594000000E+02  0.51100000000E-03 0.  1.
         11   -1    0    0    0    0 -0.00000000000E+00 -0.00000000000E+00 -0.45593999997E+02  0.45594000000E+02  0.51100000000E-03 0. -1.
    9900012    2    1    2    0    0  0.13625153370E+02  0.37179904605E+02 -0.92290515931E+01  0.50528861986E+02  0.30000006491E+02 0.  0.
        -12    1    1    2    0    0 -0.13625153370E+02 -0.37179904605E+02  0.92290515931E+01  0.40659138014E+02  0.00000000000E+00 0.  1.
         11    1    3    3    0    0  0.26644704288E+01  0.17065957190E+02  0.28895383034E+01  0.17512730494E+02  0.51100000000E-03 0. -1.
        -11    1    3    3    0    0  0.60321796214E+01 -0.27263819547E+00  0.33959258250E+01  0.69277582983E+01  0.51100000000E-03 0.  1.
         12    1    3    3    0    0  0.49285033201E+01  0.20386585610E+02 -0.15514515721E+02  0.26088373193E+02  0.00000000000E+00 0. -1.
</event>
<event>
 7    1  0.5441610E-013  0.5052888E+02  0.7816164E-02  0.1300439E+00
        -11   -1    0    0    0    0  0.00000000000E+00  0.00000000000E+00  0.45593999997E+02  0.45594000000E+02  0.51100000000E-03 0.  1.
         11   -1    0    0    0    0 -0.00000000000E+00 -0.00000000000E+00 -0.45593999997E+02  0.45594000000E+02  0.51100000000E-03 0. -1.
    9900012    2    1    2    0    0  0.22262639355E+02 -0.78947797306E+01 -0.33093983972E+02  0.50528875155E+02  0.30000046521E+02 0.  0.
        -12    1    1    2    0    0 -0.22262639355E+02  0.78947797306E+01  0.33093983972E+02  0.40659124845E+02  0.00000000000E+00 0.  1.
         11    1    3    3    0    0 -0.27788032292E+01  0.14405733417E+01 -0.17347348354E+00  0.31348193329E+01  0.51100000000E-03 0.  1.
        -11    1    3    3    0    0 -0.36881868995E+01 -0.27734460697E+01 -0.48654777998E+01  0.67057885583E+01  0.51100000000E-03 0. -1.
         12    1    3    3    0    0  0.28729629484E+02 -0.65619070026E+01 -0.28055032688E+02  0.40688267264E+02  0.00000000000E+00 0. -1.
</event>
<event>
 7    1  0.5441610E-013  0.5052886E+02  0.7816164E-02  0.1300439E+00
        -11   -1    0    0    0    0  0.00000000000E+00  0.00000000000E+00  0.45593999997E+02  0.45594000000E+02  0.51100000000E-03 0.  1.
         11   -1    0    0    0    0 -0.00000000000E+00 -0.00000000000E+00 -0.45593999997E+02  0.45594000000E+02  0.51100000000E-03 0. -1.
    9900012    2    1    2    0    0  0.19542626562E+02 -0.19829038378E+02 -0.29632092415E+02  0.50528856910E+02  0.29999991065E+02 0.  0.
        -12    1    1    2    0    0 -0.19542626562E+02  0.19829038378E+02  0.29632092415E+02  0.40659143090E+02  0.00000000000E+00 0.  1.
         11    1    3    3    0    0 -0.20443840947E-01  0.15113985906E+01  0.26790891248E+01  0.30760790708E+01  0.51100000000E-03 0.  1.
        -11    1    3    3    0    0  0.21925662317E+02 -0.14262077168E+02 -0.29630833437E+02  0.39523762519E+02  0.51100000000E-03 0. -1.
         12    1    3    3    0    0 -0.23625919142E+01 -0.70783597997E+01 -0.26803481023E+01  0.79290153207E+01  0.00000000000E+00 0. -1.
</event>
<event>
 7    1  0.5441610E-013  0.5052892E+02  0.7816164E-02  0.1300439E+00
        -11   -1    0    0    0    0  0.00000000000E+00  0.00000000000E+00  0.45593999997E+02  0.45594000000E+02  0.51100000000E-03 0. -1.
         11   -1    0    0    0    0 -0.00000000000E+00 -0.00000000000E+00 -0.45593999997E+02  0.45594000000E+02  0.51100000000E-03 0.  1.
    9900012    2    1    2    0    0 -0.32538050402E+02 -0.24177880823E+02  0.31410140362E+01  0.50528922117E+02  0.30000189267E+02 0.  0.
        -12    1    1    2    0    0  0.32538050402E+02  0.24177880823E+02 -0.31410140362E+01  0.40659077883E+02  0.00000000000E+00 0.  1.
         11    1    3    3    0    0 -0.17516529779E+01 -0.66515013756E+01 -0.26497606184E+01  0.73710236942E+01  0.51100000000E-03 0. -1.
        -11    1    3    3    0    0 -0.57721343187E+01 -0.93801327396E+01 -0.78493578487E+01  0.13524675364E+02  0.51100000000E-03 0.  1.
         12    1    3    3    0    0 -0.25014263106E+02 -0.81462467082E+01  0.13640132503E+02  0.29633223059E+02  0.00000000000E+00 0. -1.
</event>
<event>
 7    1  0.5441610E-013  0.5052886E+02  0.7816164E-02  0.1300439E+00
        -11   -1    0    0    0    0  0.00000000000E+00  0.00000000000E+00  0.45593999997E+02  0.45594000000E+02  0.51100000000E-03 0. -1.
         11   -1    0    0    0    0 -0.00000000000E+00 -0.00000000000E+00 -0.45593999997E+02  0.45594000000E+02  0.51100000000E-03 0.  1.
    9900012    2    1    2    0    0 -0.53223913730E+01 -0.39556547837E+02 -0.77535522835E+01  0.50528857120E+02  0.29999991703E+02 0.  0.
        -12    1    1    2    0    0  0.53223913730E+01  0.39556547837E+02  0.77535522835E+01  0.40659142880E+02  0.00000000000E+00 0.  1.
         11    1    3    3    0    0 -0.68854052303E+01 -0.98820415476E+01 -0.13607469785E+02  0.18172143091E+02  0.51100000000E-03 0. -1.
        -11    1    3    3    0    0  0.35630219658E+00  0.66306641998E+00  0.15083512311E+01  0.16857437617E+01  0.51100000000E-03 0.  1.
         12    1    3    3    0    0  0.12067116607E+01 -0.30337572709E+02  0.43455662700E+01  0.30670970267E+02  0.00000000000E+00 0. -1.
</event>
<event>
 7    1  0.5441610E-013  0.5052886E+02  0.7816164E-02  0.1300439E+00
        -11   -1    0    0    0    0  0.00000000000E+00  0.00000000000E+00  0.45593999997E+02  0.45594000000E+02  0.51100000000E-03 0.  1.
         11   -1    0    0    0    0 -0.00000000000E+00 -0.00000000000E+00 -0.45593999997E+02  0.45594000000E+02  0.51100000000E-03 0. -1.
    9900012    2    1    2    0    0  0.26871255172E+02  0.83268094459E+01 -0.29355838583E+02  0.50528863647E+02  0.30000011541E+02 0.  0.
        -12    1    1    2    0    0 -0.26871255172E+02 -0.83268094459E+01  0.29355838583E+02  0.40659136353E+02  0.00000000000E+00 0.  1.
         11    1    3    3    0    0  0.13801214087E+02  0.11478187516E+01 -0.25000090707E+02  0.28579634949E+02  0.51100000000E-03 0. -1.
        -11    1    3    3    0    0 -0.34772484467E+01  0.22427763253E+01 -0.17214134814E+01  0.44815808640E+01  0.51100000000E-03 0.  1.
         12    1    3    3    0    0  0.16547289532E+02  0.49362143689E+01 -0.26343343938E+01  0.17467647834E+02  0.00000000000E+00 0. -1.
</event>
<event>
 7    1  0.5441610E-013  0.5052886E+02  0.7816164E-02  0.1300439E+00
        -11   -1    0    0    0    0  0.00000000000E+00  0.00000000000E+00  0.45593999997E+02  0.45594000000E+02  0.51100000000E-03 0.  1.
         11   -1    0    0    0    0 -0.00000000000E+00 -0.00000000000E+00 -0.45593999997E+02  0.45594000000E+02  0.51100000000E-03 0. -1.
    9900012    2    1    2    0    0 -0.98654294164E+01 -0.38114083352E+02 -0.10156559164E+02  0.50528859067E+02  0.29999997620E+02 0.  0.
        -12    1    1    2    0    0  0.98654294164E+01  0.38114083352E+02  0.10156559164E+02  0.40659140933E+02  0.00000000000E+00 0.  1.
         11    1    3    3    0    0 -0.39256944842E+01 -0.13303771717E+02  0.28296700907E+01  0.14156569223E+02  0.51100000000E-03 0. -1.
        -11    1    3    3    0    0  0.55303353601E+01 -0.18958446233E+02 -0.27839584731E+01  0.19943864165E+02  0.51100000000E-03 0.  1.
         12    1    3    3    0    0 -0.11470070292E+02 -0.58518654016E+01 -0.10202270782E+02  0.16428425679E+02  0.00000000000E+00 0. -1.
</event>
<event>
 7    1  0.5441610E-013  0.5052886E+02  0.7816164E-02  0.1300439E+00
        -11   -1    0    0    0    0  0.00000000000E+00  0.00000000000E+00  0.45593999997E+02  0.45594000000E+02  0.51100000000E-03 0.  1.
         11   -1    0    0    0    0 -0.00000000000E+00 -0.00000000000E+00 -0.45593999997E+02  0.45594000000E+02  0.51100000000E-03 0. -1.
    9900012    2    1    2    0    0 -0.36579875585E+02  0.21035756227E+01 -0.17625362093E+02  0.50528859366E+02  0.29999998528E+02 0.  0.
        -12    1    1    2    0    0  0.36579875585E+02 -0.21035756227E+01  0.17625362093E+02  0.40659140634E+02  0.00000000000E+00 0.  1.
         11    1    3    3    0    0 -0.52321004545E+01 -0.89678151634E+01  0.76476159565E+00  0.10410640928E+02  0.51100000000E-03 0.  1.
        -11    1    3    3    0    0 -0.19896473972E+02  0.27857750599E+00 -0.10946053989E+02  0.22710424482E+02  0.51100000000E-03 0. -1.
         12    1    3    3    0    0 -0.11451301159E+02  0.10792813280E+02 -0.74440696994E+01  0.17407793956E+02  0.00000000000E+00 0. -1.
</event>
<event>
 7    1  0.5441610E-013  0.5052886E+02  0.7816164E-02  0.1300439E+00
        -11   -1    0    0    0    0  0.00000000000E+00  0.00000000000E+00  0.45593999997E+02  0.45594000000E+02  0.51100000000E-03 0.  1.
         11   -1    0    0    0    0 -0.00000000000E+00 -0.00000000000E+00 -0.45593999997E+02  0.45594000000E+02  0.51100000000E-03 0. -1.
    9900012    2    1    2    0    0  0.14501206482E+02 -0.23883537316E+02 -0.29537387903E+02  0.50528860458E+02  0.30000001847E+02 0.  0.
        -12    1    1    2    0    0 -0.14501206482E+02  0.23883537316E+02  0.29537387903E+02  0.40659139542E+02  0.00000000000E+00 0.  1.
         11    1    3    3    0    0  0.76418701054E+01 -0.18547244460E+02 -0.12180340748E+02  0.23468258494E+02  0.51100000000E-03 0. -1.
        -11    1    3    3    0    0 -0.65789840646E+01 -0.17362790512E+01 -0.65440271833E+01  0.94404442852E+01  0.51100000000E-03 0.  1.
         12    1    3    3    0    0  0.13438320441E+02 -0.36000138055E+01 -0.10813019972E+02  0.17620157678E+02  0.00000000000E+00 0. -1.
</event>
<event>
 7    1  0.5441610E-013  0.5052888E+02  0.7816164E-02  0.1300439E+00
        -11   -1    0    0    0    0  0.00000000000E+00  0.00000000000E+00  0.45593999997E+02  0.45594000000E+02  0.51100000000E-03 0. -1.
         11   -1    0    0    0    0 -0.00000000000E+00 -0.00000000000E+00 -0.45593999997E+02  0.45594000000E+02  0.51100000000E-03 0.  1.
    9900012    2    1    2    0    0  0.25531514318E+02 -0.31641895647E+02  0.31008973579E+00  0.50528881230E+02  0.30000064988E+02 0.  0.
        -12    1    1    2    0    0 -0.25531514318E+02  0.31641895647E+02 -0.31008973579E+00  0.40659118770E+02  0.00000000000E+00 0.  1.
         11    1    3    3    0    0  0.11887539417E+02 -0.28395619695E+01 -0.52390691178E+01  0.13297539286E+02  0.51100000000E-03 0. -1.
        -11    1    3    3    0    0  0.83839699249E+01 -0.16787317052E+02 -0.60567774012E+01  0.19717746277E+02  0.51100000000E-03 0.  1.
        -12    1    3    3    0    0  0.52600049755E+01 -0.12015016625E+02  0.11605936255E+02  0.17513595667E+02  0.00000000000E+00 0.  1.
</event>
<event>
 7    1  0.5441610E-013  0.5052887E+02  0.7816164E-02  0.1300439E+00
        -11   -1    0    0    0    0  0.00000000000E+00  0.00000000000E+00  0.45593999997E+02  0.45594000000E+02  0.51100000000E-03 0.  1.
         11   -1    0    0    0    0 -0.00000000000E+00 -0.00000000000E+00 -0.45593999997E+02  0.45594000000E+02  0.51100000000E-03 0. -1.
    9900012    2    1    2    0    0 -0.35807260094E+01 -0.86276083190E+01 -0.39571552192E+02  0.50528868591E+02  0.30000026568E+02 0.  0.
        -12    1    1    2    0    0  0.35807260094E+01  0.86276083190E+01  0.39571552192E+02  0.40659131409E+02  0.00000000000E+00 0.  1.
         11    1    3    3    0    0  0.56587071411E+01 -0.62120161642E+01 -0.40331100873E+01  0.93207343364E+01  0.51100000000E-03 0. -1.
        -11    1    3    3    0    0  0.42522483216E+01  0.74430524197E+00 -0.16948840350E+01  0.46376975144E+01  0.51100000000E-03 0.  1.
         12    1    3    3    0    0 -0.13491681472E+02 -0.31598973968E+01 -0.33843558070E+02  0.36570436740E+02  0.00000000000E+00 0. -1.
</event>
<event>
 7    1  0.5441610E-013  0.5052890E+02  0.7816164E-02  0.1300439E+00
        -11   -1    0    0    0    0  0.00000000000E+00  0.00000000000E+00  0.45593999997E+02  0.45594000000E+02  0.51100000000E-03 0.  1.
         11   -1    0    0    0    0 -0.00000000000E+00 -0.00000000000E+00 -0.45593999997E+02  0.45594000000E+02  0.51100000000E-03 0. -1.
    9900012    2    1    2    0    0 -0.21428299640E+02  0.34511499050E+02  0.17166335857E+01  0.50528899874E+02  0.30000121657E+02 0.  0.
        -12    1    1    2    0    0  0.21428299640E+02 -0.34511499050E+02 -0.17166335857E+01  0.40659100126E+02  0.00000000000E+00 0.  1.
         11    1    3    3    0    0 -0.82534769570E+01  0.16412341386E+02 -0.94933902918E+01  0.20678715897E+02  0.51100000000E-03 0. -1.
        -11    1    3    3    0    0 -0.83688266065E+01 -0.49268783606E+00  0.23818144414E+01  0.87151041513E+01  0.51100000000E-03 0.  1.
        -12    1    3    3    0    0 -0.48059960770E+01  0.18591845501E+02  0.88282094362E+01  0.21135079826E+02  0.00000000000E+00 0.  1.
</event>
<event>
 7    1  0.5441610E-013  0.5052885E+02  0.7816164E-02  0.1300439E+00
        -11   -1    0    0    0    0  0.00000000000E+00  0.00000000000E+00  0.45593999997E+02  0.45594000000E+02  0.51100000000E-03 0.  1.
         11   -1    0    0    0    0 -0.00000000000E+00 -0.00000000000E+00 -0.45593999997E+02  0.45594000000E+02  0.51100000000E-03 0. -1.
    9900012    2    1    2    0    0  0.36577805578E+01 -0.20829376259E+02 -0.34726414445E+02  0.50528854237E+02  0.29999982938E+02 0.  0.
        -12    1    1    2    0    0 -0.36577805578E+01  0.20829376259E+02  0.34726414445E+02  0.40659145763E+02  0.00000000000E+00 0.  1.
         11    1    3    3    0    0 -0.19865724869E+01 -0.14198644815E+02 -0.19702148939E+02  0.24366424808E+02  0.51100000000E-03 0. -1.
        -11    1    3    3    0    0 -0.56025393544E+01  0.32206909321E+01 -0.47858180361E+01  0.80414769684E+01  0.51100000000E-03 0.  1.
         12    1    3    3    0    0  0.11246892399E+02 -0.98514223769E+01 -0.10238447470E+02  0.18120952461E+02  0.00000000000E+00 0. -1.
</event>
<event>
 7    1  0.5441610E-013  0.5052886E+02  0.7816164E-02  0.1300439E+00
        -11   -1    0    0    0    0  0.00000000000E+00  0.00000000000E+00  0.45593999997E+02  0.45594000000E+02  0.51100000000E-03 0. -1.
         11   -1    0    0    0    0 -0.00000000000E+00 -0.00000000000E+00 -0.45593999997E+02  0.45594000000E+02  0.51100000000E-03 0.  1.
    9900012    2    1    2    0    0 -0.17916389735E+02  0.71908959058E+01  0.35783512460E+02  0.50528858727E+02  0.29999996588E+02 0.  0.
        -12    1    1    2    0    0  0.17916389735E+02 -0.71908959058E+01 -0.35783512460E+02  0.40659141273E+02  0.00000000000E+00 0.  1.
         11    1    3    3    0    0 -0.78804651127E+01  0.45171525813E+01  0.17654972631E+01  0.92532901545E+01  0.51100000000E-03 0. -1.
        -11    1    3    3    0    0  0.18899301333E+01  0.76759466603E+01  0.46138983017E+01  0.91531443144E+01  0.51100000000E-03 0.  1.
        -12    1    3    3    0    0 -0.11925854756E+02 -0.50022033358E+01  0.29404116895E+02  0.32122424258E+02  0.00000000000E+00 0.  1.
</event>
<event>
 7    1  0.5441610E-013  0.5052886E+02  0.7816164E-02  0.1300439E+00
        -11   -1    0    0    0    0  0.00000000000E+00  0.00000000000E+00  0.45593999997E+02  0.45594000000E+02  0.51100000000E-03 0. -1.
         11   -1    0    0    0    0 -0.00000000000E+00 -0.00000000000E+00 -0.45593999997E+02  0.45594000000E+02  0.51100000000E-03 0.  1.
    9900012    2    1    2    0    0  0.76671385664E+01  0.74451940655E+01  0.39229449168E+02  0.50528860677E+02  0.30000002514E+02 0.  0.
        -12    1    1    2    0    0 -0.76671385664E+01 -0.74451940655E+01 -0.39229449168E+02  0.40659139323E+02  0.00000000000E+00 0.  1.
         11    1    3    3    0    0  0.39707917307E+01  0.97026809062E+00  0.44418645535E+01  0.60364532724E+01  0.51100000000E-03 0. -1.
        -11    1    3    3    0    0 -0.50672610817E+00 -0.97311534923E+01  0.19596555504E+02  0.21885545630E+02  0.51100000000E-03 0.  1.
         12    1    3    3    0    0  0.42030729439E+01  0.16206079467E+02  0.15191029110E+02  0.22606861774E+02  0.00000000000E+00 0. -1.
</event>
<event>
 7    1  0.5441610E-013  0.5052886E+02  0.7816164E-02  0.1300439E+00
        -11   -1    0    0    0    0  0.00000000000E+00  0.00000000000E+00  0.45593999997E+02  0.45594000000E+02  0.51100000000E-03 0. -1.
         11   -1    0    0    0    0 -0.00000000000E+00 -0.00000000000E+00 -0.45593999997E+02  0.45594000000E+02  0.51100000000E-03 0.  1.
    9900012    2    1    2    0    0 -0.29917920972E+02 -0.17171797972E+02  0.21522382207E+02  0.50528861091E+02  0.30000003774E+02 0.  0.
        -12    1    1    2    0    0  0.29917920972E+02  0.17171797972E+02 -0.21522382207E+02  0.40659138909E+02  0.00000000000E+00 0.  1.
         11    1    3    3    0    0 -0.91819597711E+01 -0.64891176113E+01  0.86433041761E+01  0.14181810179E+02  0.51100000000E-03 0. -1.
        -11    1    3    3    0    0  0.34088746314E+01  0.19320471236E+01  0.76685608861E+01  0.86116234628E+01  0.51100000000E-03 0.  1.
        -12    1    3    3    0    0 -0.24144835833E+02 -0.12614727485E+02  0.52105171451E+01  0.27735427450E+02  0.00000000000E+00 0.  1.
</event>
<event>
 7    1  0.5441610E-013  0.5052886E+02  0.7816164E-02  0.1300439E+00
        -11   -1    0    0    0    0  0.00000000000E+00  0.00000000000E+00  0.45593999997E+02  0.45594000000E+02  0.51100000000E-03 0. -1.
         11   -1    0    0    0    0 -0.00000000000E+00 -0.00000000000E+00 -0.45593999997E+02  0.45594000000E+02  0.51100000000E-03 0.  1.
    9900012    2    1    2    0    0 -0.13506314019E+01  0.14614076696E+02  0.37917939822E+02  0.50528860766E+02  0.30000002785E+02 0.  0.
        -12    1    1    2    0    0  0.13506314019E+01 -0.14614076696E+02 -0.37917939822E+02  0.40659139234E+02  0.00000000000E+00 0.  1.
         11    1    3    3    0    0 -0.50725729659E+01  0.18130578709E+01  0.10901877848E+02  0.12160144580E+02  0.51100000000E-03 0. -1.
        -11    1    3    3    0    0 -0.93514938040E+00  0.61217331417E+01 -0.32728563222E+01  0.70044064552E+01  0.51100000000E-03 0.  1.
         12    1    3    3    0    0  0.46570909444E+01  0.66792856834E+01  0.30288918297E+02  0.31364309731E+02  0.00000000000E+00 0. -1.
</event>
<event>
 7    1  0.5441610E-013  0.5052886E+02  0.7816164E-02  0.1300439E+00
        -11   -1    0    0    0    0  0.00000000000E+00  0.00000000000E+00  0.45593999997E+02  0.45594000000E+02  0.51100000000E-03 0.  1.
         11   -1    0    0    0    0 -0.00000000000E+00 -0.00000000000E+00 -0.45593999997E+02  0.45594000000E+02  0.51100000000E-03 0. -1.
    9900012    2    1    2    0    0  0.32538198741E+02  0.13790582927E+01 -0.24341922088E+02  0.50528863880E+02  0.30000012250E+02 0.  0.
        -12    1    1    2    0    0 -0.32538198741E+02 -0.13790582927E+01  0.24341922088E+02  0.40659136120E+02  0.00000000000E+00 0.  1.
         11    1    3    3    0    0  0.83259963642E+01 -0.36280903291E+01  0.19885856312E+01  0.92972968097E+01  0.51100000000E-03 0. -1.
        -11    1    3    3    0    0  0.26031484306E+01  0.90638994815E+01 -0.10656944434E+02  0.14230288841E+02  0.51100000000E-03 0.  1.
         12    1    3    3    0    0  0.21609053946E+02 -0.40567508596E+01 -0.15673563285E+02  0.27001278230E+02  0.00000000000E+00 0. -1.
</event>
<event>
 7    1  0.5441610E-013  0.5052886E+02  0.7816164E-02  0.1300439E+00
        -11   -1    0    0    0    0  0.00000000000E+00  0.00000000000E+00  0.45593999997E+02  0.45594000000E+02  0.51100000000E-03 0. -1.
         11   -1    0    0    0    0 -0.00000000000E+00 -0.00000000000E+00 -0.45593999997E+02  0.45594000000E+02  0.51100000000E-03 0.  1.
    9900012    2    1    2    0    0  0.27895835254E+02 -0.84377535316E+01  0.28351231003E+02  0.50528860701E+02  0.30000002585E+02 0.  0.
        -12    1    1    2    0    0 -0.27895835254E+02  0.84377535316E+01 -0.28351231003E+02  0.40659139299E+02  0.00000000000E+00 0.  1.
         11    1    3    3    0    0  0.32385842700E+02 -0.78531100179E+01  0.27637679021E+02  0.43293826884E+02  0.51100000000E-03 0. -1.
        -11    1    3    3    0    0  0.32684943059E+00  0.17955238613E+01  0.25332616947E+00  0.18425283977E+01  0.51100000000E-03 0.  1.
        -12    1    3    3    0    0 -0.48168568760E+01 -0.23801673750E+01  0.46022581241E+00  0.53925054191E+01  0.00000000000E+00 0.  1.
</event>
<event>
 7    1  0.5441610E-013  0.5052886E+02  0.7816164E-02  0.1300439E+00
        -11   -1    0    0    0    0  0.00000000000E+00  0.00000000000E+00  0.45593999997E+02  0.45594000000E+02  0.51100000000E-03 0. -1.
         11   -1    0    0    0    0 -0.00000000000E+00 -0.00000000000E+00 -0.45593999997E+02  0.45594000000E+02  0.51100000000E-03 0.  1.
    9900012    2    1    2    0    0  0.30510361098E+02  0.24514624455E+02 -0.11014399590E+02  0.50528856566E+02  0.29999990017E+02 0.  0.
        -12    1    1    2    0    0 -0.30510361098E+02 -0.24514624455E+02  0.11014399590E+02  0.40659143434E+02  0.00000000000E+00 0.  1.
         11    1    3    3    0    0  0.15094101531E+02 -0.13127986945E+01  0.39236003960E+01  0.15650877987E+02  0.51100000000E-03 0. -1.
        -11    1    3    3    0    0  0.65122665740E+01  0.96874832526E+01 -0.89901582751E+00  0.11707483821E+02  0.51100000000E-03 0.  1.
        -12    1    3    3    0    0  0.89039929924E+01  0.16139939897E+02 -0.14038984159E+02  0.23170494757E+02  0.00000000000E+00 0.  1.
</event>
<event>
 7    1  0.5441610E-013  0.5052884E+02  0.7816164E-02  0.1300439E+00
        -11   -1    0    0    0    0  0.00000000000E+00  0.00000000000E+00  0.45593999997E+02  0.45594000000E+02  0.51100000000E-03 0. -1.
         11   -1    0    0    0    0 -0.00000000000E+00 -0.00000000000E+00 -0.45593999997E+02  0.45594000000E+02  0.51100000000E-03 0.  1.
    9900012    2    1    2    0    0  0.28752131575E+02 -0.72090058575E+01  0.27830064640E+02  0.50528839489E+02  0.29999938112E+02 0.  0.
        -12    1    1    2    0    0 -0.28752131575E+02  0.72090058575E+01 -0.27830064640E+02  0.40659160511E+02  0.00000000000E+00 0.  1.
         11    1    3    3    0    0 -0.22744165791E+01 -0.91672296712E+00 -0.76037499237E+00  0.25673959889E+01  0.51100000000E-03 0. -1.
        -11    1    3    3    0    0  0.20371318698E+02  0.69370393674E+01  0.15769312636E+02  0.26679287133E+02  0.51100000000E-03 0.  1.
         12    1    3    3    0    0  0.10655229456E+02 -0.13229322258E+02  0.12821126997E+02  0.21282156367E+02  0.00000000000E+00 0. -1.
</event>
<event>
 7    1  0.5441610E-013  0.5052886E+02  0.7816164E-02  0.1300439E+00
        -11   -1    0    0    0    0  0.00000000000E+00  0.00000000000E+00  0.45593999997E+02  0.45594000000E+02  0.51100000000E-03 0. -1.
         11   -1    0    0    0    0 -0.00000000000E+00 -0.00000000000E+00 -0.45593999997E+02  0.45594000000E+02  0.51100000000E-03 0.  1.
    9900012    2    1    2    0    0  0.86917163069E+01  0.38318917383E+02  0.10453720892E+02  0.50528860287E+02  0.30000001327E+02 0.  0.
        -12    1    1    2    0    0 -0.86917163069E+01 -0.38318917383E+02 -0.10453720892E+02  0.40659139713E+02  0.00000000000E+00 0.  1.
         11    1    3    3    0    0 -0.26778980392E+01  0.44790628054E+01  0.94081469860E+01  0.10758548763E+02  0.51100000000E-03 0. -1.
        -11    1    3    3    0    0  0.78322353473E+01  0.12179943156E+02 -0.73907201489E+01  0.16257849501E+02  0.51100000000E-03 0.  1.
         12    1    3    3    0    0  0.35373789988E+01  0.21659911421E+02  0.84362940548E+01  0.23512462022E+02  0.00000000000E+00 0. -1.
</event>
<event>
 7    1  0.5441610E-013  0.5052886E+02  0.7816164E-02  0.1300439E+00
        -11   -1    0    0    0    0  0.00000000000E+00  0.00000000000E+00  0.45593999997E+02  0.45594000000E+02  0.51100000000E-03 0. -1.
         11   -1    0    0    0    0 -0.00000000000E+00 -0.00000000000E+00 -0.45593999997E+02  0.45594000000E+02  0.51100000000E-03 0.  1.
    9900012    2    1    2    0    0 -0.26044758695E+02 -0.30910450169E+02  0.44022745063E+01  0.50528863192E+02  0.30000010158E+02 0.  0.
        -12    1    1    2    0    0  0.26044758695E+02  0.30910450169E+02 -0.44022745063E+01  0.40659136808E+02  0.00000000000E+00 0.  1.
         11    1    3    3    0    0 -0.96366861041E+01 -0.59721746714E+01  0.10425606914E+02  0.15402138461E+02  0.51100000000E-03 0. -1.
        -11    1    3    3    0    0  0.27032355568E+01 -0.58212324840E+01  0.23391460380E+01  0.68312396061E+01  0.51100000000E-03 0.  1.
        -12    1    3    3    0    0 -0.19111308148E+02 -0.19117043014E+02 -0.83624784457E+01  0.28295485125E+02  0.00000000000E+00 0.  1.
</event>
<event>
 7    1  0.5441610E-013  0.5052886E+02  0.7816164E-02  0.1300439E+00
        -11   -1    0    0    0    0  0.00000000000E+00  0.00000000000E+00  0.45593999997E+02  0.45594000000E+02  0.51100000000E-03 0. -1.
         11   -1    0    0    0    0 -0.00000000000E+00 -0.00000000000E+00 -0.45593999997E+02  0.45594000000E+02  0.51100000000E-03 0.  1.
    9900012    2    1    2    0    0  0.35304588278E+02 -0.19302385022E+02 -0.58454801043E+01  0.50528860084E+02  0.30000000712E+02 0.  0.
        -12    1    1    2    0    0 -0.35304588278E+02  0.19302385022E+02  0.58454801043E+01  0.40659139916E+02  0.00000000000E+00 0.  1.
         11    1    3    3    0    0  0.68087593182E+01 -0.94868820297E+01  0.19348949957E+01  0.11836551567E+02  0.51100000000E-03 0. -1.
        -11    1    3    3    0    0  0.26488725767E+01 -0.79624136135E+01  0.50320356499E+01  0.97845766144E+01  0.51100000000E-03 0.  1.
         12    1    3    3    0    0  0.25846956383E+02 -0.18530893788E+01 -0.12812410750E+02  0.28907731903E+02  0.00000000000E+00 0. -1.
</event>
<event>
 7    1  0.5441610E-013  0.5052886E+02  0.7816164E-02  0.1300439E+00
        -11   -1    0    0    0    0  0.00000000000E+00  0.00000000000E+00  0.45593999997E+02  0.45594000000E+02  0.51100000000E-03 0.  1.
         11   -1    0    0    0    0 -0.00000000000E+00 -0.00000000000E+00 -0.45593999997E+02  0.45594000000E+02  0.51100000000E-03 0. -1.
    9900012    2    1    2    0    0 -0.37509170124E+02 -0.80966199010E+00 -0.15670738957E+02  0.50528862584E+02  0.30000008311E+02 0.  0.
        -12    1    1    2    0    0  0.37509170124E+02  0.80966199010E+00  0.15670738957E+02  0.40659137416E+02  0.00000000000E+00 0.  1.
         11    1    3    3    0    0 -0.28706293617E+02 -0.31678361434E+01 -0.57113630177E+01  0.29439873417E+02  0.51100000000E-03 0. -1.
        -11    1    3    3    0    0 -0.12005329874E+02  0.32189043520E+00 -0.18709352057E+01  0.12154503595E+02  0.51100000000E-03 0.  1.
        -12    1    3    3    0    0  0.32024533661E+01  0.20362837181E+01 -0.80884407337E+01  0.89344855725E+01  0.00000000000E+00 0.  1.
</event>
<event>
 7    1  0.5441610E-013  0.5052886E+02  0.7816164E-02  0.1300439E+00
        -11   -1    0    0    0    0  0.00000000000E+00  0.00000000000E+00  0.45593999997E+02  0.45594000000E+02  0.51100000000E-03 0.  1.
         11   -1    0    0    0    0 -0.00000000000E+00 -0.00000000000E+00 -0.45593999997E+02  0.45594000000E+02  0.51100000000E-03 0. -1.
    9900012    2    1    2    0    0  0.15763776634E+02  0.12831909840E+02 -0.35213787249E+02  0.50528863557E+02  0.30000011267E+02 0.  0.
        -12    1    1    2    0    0 -0.15763776634E+02 -0.12831909840E+02  0.35213787249E+02  0.40659136443E+02  0.00000000000E+00 0.  1.
         11    1    3    3    0    0  0.10672713930E+02  0.17169471435E+02 -0.22668470229E+02  0.30373625315E+02  0.51100000000E-03 0. -1.
        -11    1    3    3    0    0  0.51647455018E+01  0.67673837199E+00 -0.13996751240E+02  0.14934577880E+02  0.51100000000E-03 0.  1.
         12    1    3    3    0    0 -0.73682797321E-01 -0.50142999674E+01  0.14514342199E+01  0.52206603617E+01  0.00000000000E+00 0. -1.
</event>
<event>
 7    1  0.5441610E-013  0.5052895E+02  0.7816164E-02  0.1300438E+00
        -11   -1    0    0    0    0  0.00000000000E+00  0.00000000000E+00  0.45593999997E+02  0.45594000000E+02  0.51100000000E-03 0.  1.
         11   -1    0    0    0    0 -0.00000000000E+00 -0.00000000000E+00 -0.45593999997E+02  0.45594000000E+02  0.51100000000E-03 0. -1.
    9900012    2    1    2    0    0 -0.40059092426E+02  0.37466278003E+01 -0.58643341139E+01  0.50528947866E+02  0.30000267531E+02 0.  0.
        -12    1    1    2    0    0  0.40059092426E+02 -0.37466278003E+01  0.58643341139E+01  0.40659052134E+02  0.00000000000E+00 0.  1.
         11    1    3    3    0    0 -0.36352982450E+02 -0.59371915085E+01 -0.88063176386E+00  0.36845150137E+02  0.51100000000E-03 0.  1.
        -11    1    3    3    0    0 -0.52254177324E+01  0.38118163255E+01 -0.13311431742E+01  0.66035503019E+01  0.51100000000E-03 0. -1.
        -12    1    3    3    0    0  0.15193077567E+01  0.58720029832E+01 -0.36525591758E+01  0.70802474270E+01  0.00000000000E+00 0.  1.
</event>
<event>
 7    1  0.5441610E-013  0.5052886E+02  0.7816164E-02  0.1300439E+00
        -11   -1    0    0    0    0  0.00000000000E+00  0.00000000000E+00  0.45593999997E+02  0.45594000000E+02  0.51100000000E-03 0.  1.
         11   -1    0    0    0    0 -0.00000000000E+00 -0.00000000000E+00 -0.45593999997E+02  0.45594000000E+02  0.51100000000E-03 0. -1.
    9900012    2    1    2    0    0  0.80375975971E+01  0.69817692179E+01 -0.39240506032E+02  0.50528863386E+02  0.30000010750E+02 0.  0.
        -12    1    1    2    0    0 -0.80375975971E+01 -0.69817692179E+01  0.39240506032E+02  0.40659136614E+02  0.00000000000E+00 0.  1.
         11    1    3    3    0    0 -0.10199203984E+01 -0.31913728468E+01 -0.81716180993E+01  0.88317858267E+01  0.51100000000E-03 0. -1.
        -11    1    3    3    0    0  0.88934551125E+01  0.61789783282E+01 -0.34666793217E+02  0.36318863821E+02  0.51100000000E-03 0.  1.
        -12    1    3    3    0    0  0.16406288299E+00  0.39941637365E+01  0.35979052848E+01  0.53782137390E+01  0.00000000000E+00 0.  1.
</event>
<event>
 7    1  0.5441610E-013  0.5052883E+02  0.7816164E-02  0.1300439E+00
        -11   -1    0    0    0    0  0.00000000000E+00  0.00000000000E+00  0.45593999997E+02  0.45594000000E+02  0.51100000000E-03 0. -1.
         11   -1    0    0    0    0 -0.00000000000E+00 -0.00000000000E+00 -0.45593999997E+02  0.45594000000E+02  0.51100000000E-03 0.  1.
    9900012    2    1    2    0    0 -0.28287083996E+02  0.27679525539E+01  0.29074859910E+02  0.50528829311E+02  0.29999907172E+02 0.  0.
        -12    1    1    2    0    0  0.28287083996E+02 -0.27679525539E+01 -0.29074859910E+02  0.40659170689E+02  0.00000000000E+00 0.  1.
         11    1    3    3    0    0 -0.18664105011E+02 -0.13778992950E+01  0.86244450540E+01  0.20606515355E+02  0.51100000000E-03 0. -1.
        -11    1    3    3    0    0  0.15144978461E+01  0.26223900364E+01 -0.27826481537E+01  0.41126347075E+01  0.51100000000E-03 0.  1.
        -12    1    3    3    0    0 -0.11137476831E+02  0.15234618125E+01  0.23233063010E+02  0.25809679248E+02  0.00000000000E+00 0.  1.
</event>
<event>
 7    1  0.5441610E-013  0.5052887E+02  0.7816164E-02  0.1300439E+00
        -11   -1    0    0    0    0  0.00000000000E+00  0.00000000000E+00  0.45593999997E+02  0.45594000000E+02  0.51100000000E-03 0.  1.
         11   -1    0    0    0    0 -0.00000000000E+00 -0.00000000000E+00 -0.45593999997E+02  0.45594000000E+02  0.51100000000E-03 0. -1.
    9900012    2    1    2    0    0 -0.18449065819E+02 -0.11512588162E+02 -0.34354867892E+02  0.50528872320E+02  0.30000037904E+02 0.  0.
        -12    1    1    2    0    0  0.18449065819E+02  0.11512588162E+02  0.34354867892E+02  0.40659127680E+02  0.00000000000E+00 0.  1.
         11    1    3    3    0    0 -0.12325850066E+02 -0.36350181919E+01 -0.64045332856E+01  0.14358202672E+02  0.51100000000E-03 0. -1.
        -11    1    3    3    0    0 -0.84613829018E+01 -0.13869289178E+02 -0.17330153223E+02  0.23754713089E+02  0.51100000000E-03 0.  1.
         12    1    3    3    0    0  0.23381671482E+01  0.59917192079E+01 -0.10620181383E+02  0.12415956560E+02  0.00000000000E+00 0. -1.
</event>
<event>
 7    1  0.5561845E-013  0.5052888E+02  0.7816164E-02  0.1300439E+00
        -11   -1    0    0    0    0  0.00000000000E+00  0.00000000000E+00  0.45593999997E+02  0.45594000000E+02  0.51100000000E-03 0.  1.
         11   -1    0    0    0    0 -0.00000000000E+00 -0.00000000000E+00 -0.45593999997E+02  0.45594000000E+02  0.51100000000E-03 0. -1.
    9900012    2    1    2    0    0  0.37350706809E+02  0.13433493504E+02  0.88107995428E+01  0.50528877586E+02  0.30000053911E+02 0.  0.
        -12    1    1    2    0    0 -0.37350706809E+02 -0.13433493504E+02 -0.88107995428E+01  0.40659122414E+02  0.00000000000E+00 0.  1.
         11    1    3    3    0    0  0.25838632568E+02  0.13973327864E+02  0.35911099647E+00  0.29377164355E+02  0.51100000000E-03 0. -1.
        -11    1    3    3    0    0  0.13764418503E+02 -0.40343731343E+01  0.36506928055E+01  0.14800775031E+02  0.51100000000E-03 0.  1.
        -12    1    3    3    0    0 -0.22523442612E+01  0.34945387739E+01  0.48009957408E+01  0.63509381997E+01  0.00000000000E+00 0.  1.
</event>
<event>
 7    1  0.5441610E-013  0.5052886E+02  0.7816164E-02  0.1300439E+00
        -11   -1    0    0    0    0  0.00000000000E+00  0.00000000000E+00  0.45593999997E+02  0.45594000000E+02  0.51100000000E-03 0.  1.
         11   -1    0    0    0    0 -0.00000000000E+00 -0.00000000000E+00 -0.45593999997E+02  0.45594000000E+02  0.51100000000E-03 0. -1.
    9900012    2    1    2    0    0  0.33102171165E+02  0.93460876049E+01 -0.21680930212E+02  0.50528858048E+02  0.29999994523E+02 0.  0.
        -12    1    1    2    0    0 -0.33102171165E+02 -0.93460876049E+01  0.21680930212E+02  0.40659141952E+02  0.00000000000E+00 0.  1.
         11    1    3    3    0    0  0.99545169542E+01 -0.54052613183E+01 -0.28549594688E+01  0.11681611684E+02  0.51100000000E-03 0. -1.
        -11    1    3    3    0    0  0.13825374883E-01  0.10420585332E+02 -0.51030066231E+01  0.11602993866E+02  0.51100000000E-03 0.  1.
         12    1    3    3    0    0  0.23133828836E+02  0.43307635911E+01 -0.13722964120E+02  0.27244252498E+02  0.00000000000E+00 0. -1.
</event>
<event>
 7    1  0.5441610E-013  0.5052886E+02  0.7816164E-02  0.1300439E+00
        -11   -1    0    0    0    0  0.00000000000E+00  0.00000000000E+00  0.45593999997E+02  0.45594000000E+02  0.51100000000E-03 0.  1.
         11   -1    0    0    0    0 -0.00000000000E+00 -0.00000000000E+00 -0.45593999997E+02  0.45594000000E+02  0.51100000000E-03 0. -1.
    9900012    2    1    2    0    0 -0.46772828000E+00  0.40363119484E+02 -0.48750191406E+01  0.50528855938E+02  0.29999988110E+02 0.  0.
        -12    1    1    2    0    0  0.46772828000E+00 -0.40363119484E+02  0.48750191406E+01  0.40659144062E+02  0.00000000000E+00 0.  1.
         11    1    3    3    0    0 -0.46644573636E+01  0.21062051343E+02  0.41601209548E+00  0.21576381430E+02  0.51100000000E-03 0. -1.
        -11    1    3    3    0    0  0.21156777977E+00  0.97279541660E+01  0.76443133447E+01  0.12373899141E+02  0.51100000000E-03 0.  1.
         12    1    3    3    0    0  0.39851613038E+01  0.95731139746E+01 -0.12935344581E+02  0.16578575367E+02  0.00000000000E+00 0. -1.
</event>
<event>
 7    1  0.5441610E-013  0.5052886E+02  0.7816164E-02  0.1300439E+00
        -11   -1    0    0    0    0  0.00000000000E+00  0.00000000000E+00  0.45593999997E+02  0.45594000000E+02  0.51100000000E-03 0.  1.
         11   -1    0    0    0    0 -0.00000000000E+00 -0.00000000000E+00 -0.45593999997E+02  0.45594000000E+02  0.51100000000E-03 0. -1.
    9900012    2    1    2    0    0  0.44565155419E+01  0.34088840057E+02 -0.21708433210E+02  0.50528860565E+02  0.30000002172E+02 0.  0.
        -12    1    1    2    0    0 -0.44565155419E+01 -0.34088840057E+02  0.21708433210E+02  0.40659139435E+02  0.00000000000E+00 0.  1.
         11    1    3    3    0    0  0.15172216622E+01  0.13897955320E+02 -0.17483554571E+02  0.22385928713E+02  0.51100000000E-03 0. -1.
        -11    1    3    3    0    0 -0.74507796178E+01  0.52606669810E+01 -0.39806456851E+01  0.99515965719E+01  0.51100000000E-03 0.  1.
        -12    1    3    3    0    0  0.10390073497E+02  0.14930217756E+02 -0.24423295403E+00  0.18191335280E+02  0.00000000000E+00 0.  1.
</event>
<event>
 7    1  0.5441610E-013  0.5052886E+02  0.7816164E-02  0.1300439E+00
        -11   -1    0    0    0    0  0.00000000000E+00  0.00000000000E+00  0.45593999997E+02  0.45594000000E+02  0.51100000000E-03 0.  1.
         11   -1    0    0    0    0 -0.00000000000E+00 -0.00000000000E+00 -0.45593999997E+02  0.45594000000E+02  0.51100000000E-03 0. -1.
    9900012    2    1    2    0    0  0.33606908347E+02  0.21329799344E+02 -0.82934293178E+01  0.50528860824E+02  0.30000002961E+02 0.  0.
        -12    1    1    2    0    0 -0.33606908347E+02 -0.21329799344E+02  0.82934293178E+01  0.40659139176E+02  0.00000000000E+00 0.  1.
         11    1    3    3    0    0  0.17261215177E+02  0.16493127859E+02 -0.14629314455E+02  0.27999815314E+02  0.51100000000E-03 0. -1.
        -11    1    3    3    0    0  0.91061703703E+00  0.60677271182E+01  0.17941716010E+01  0.63926197888E+01  0.51100000000E-03 0.  1.
         12    1    3    3    0    0  0.15435076133E+02 -0.12310556331E+01  0.45417135363E+01  0.16136425721E+02  0.00000000000E+00 0. -1.
</event>
<event>
 7    1  0.5441610E-013  0.5052885E+02  0.7816164E-02  0.1300439E+00
        -11   -1    0    0    0    0  0.00000000000E+00  0.00000000000E+00  0.45593999997E+02  0.45594000000E+02  0.51100000000E-03 0.  1.
         11   -1    0    0    0    0 -0.00000000000E+00 -0.00000000000E+00 -0.45593999997E+02  0.45594000000E+02  0.51100000000E-03 0. -1.
    9900012    2    1    2    0    0  0.14956703342E+02  0.37163689761E+02 -0.69515253500E+01  0.50528849539E+02  0.29999968659E+02 0.  0.
        -12    1    1    2    0    0 -0.14956703342E+02 -0.37163689761E+02  0.69515253500E+01  0.40659150461E+02  0.00000000000E+00 0.  1.
         11    1    3    3    0    0  0.10806468188E+02  0.89951147847E+01  0.13854395033E+01  0.14128385880E+02  0.51100000000E-03 0. -1.
        -11    1    3    3    0    0  0.47332258084E+00  0.12175165418E+02  0.69037475113E+01  0.14004299954E+02  0.51100000000E-03 0.  1.
         12    1    3    3    0    0  0.36769125734E+01  0.15993409558E+02 -0.15240712365E+02  0.22396163706E+02  0.00000000000E+00 0. -1.
</event>
<event>
 7    1  0.5441610E-013  0.5052883E+02  0.7816164E-02  0.1300439E+00
        -11   -1    0    0    0    0  0.00000000000E+00  0.00000000000E+00  0.45593999997E+02  0.45594000000E+02  0.51100000000E-03 0.  1.
         11   -1    0    0    0    0 -0.00000000000E+00 -0.00000000000E+00 -0.45593999997E+02  0.45594000000E+02  0.51100000000E-03 0. -1.
    9900012    2    1    2    0    0 -0.34018619875E+02 -0.12254147265E+02 -0.18594020539E+02  0.50528828547E+02  0.29999904853E+02 0.  0.
        -12    1    1    2    0    0  0.34018619875E+02  0.12254147265E+02  0.18594020539E+02  0.40659171453E+02  0.00000000000E+00 0.  1.
         11    1    3    3    0    0 -0.21869556053E+02 -0.16338025933E+02 -0.17591559483E+02  0.32475706900E+02  0.51100000000E-03 0. -1.
        -11    1    3    3    0    0  0.96881683531E+00 -0.29131805626E+01  0.49831262926E+00  0.31102319509E+01  0.51100000000E-03 0.  1.
         12    1    3    3    0    0 -0.13117880658E+02  0.69970592309E+01 -0.15007736851E+01  0.14942889697E+02  0.00000000000E+00 0. -1.
</event>
<event>
 7    1  0.5441610E-013  0.5052886E+02  0.7816164E-02  0.1300439E+00
        -11   -1    0    0    0    0  0.00000000000E+00  0.00000000000E+00  0.45593999997E+02  0.45594000000E+02  0.51100000000E-03 0.  1.
         11   -1    0    0    0    0 -0.00000000000E+00 -0.00000000000E+00 -0.45593999997E+02  0.45594000000E+02  0.51100000000E-03 0. -1.
    9900012    2    1    2    0    0 -0.15283041591E+02  0.36888164985E+02  0.76718836053E+01  0.50528857433E+02  0.29999992655E+02 0.  0.
        -12    1    1    2    0    0  0.15283041591E+02 -0.36888164985E+02 -0.76718836053E+01  0.40659142567E+02  0.00000000000E+00 0.  1.
         11    1    3    3    0    0 -0.16408401057E+02  0.30200787591E+02  0.35246962564E+01  0.34550639362E+02  0.51100000000E-03 0. -1.
        -11    1    3    3    0    0 -0.45438584194E+01 -0.16667838079E+01 -0.49655626244E+00  0.48653248587E+01  0.51100000000E-03 0.  1.
        -12    1    3    3    0    0  0.56692178863E+01  0.83541612014E+01  0.46437436113E+01  0.11112893212E+02  0.00000000000E+00 0.  1.
</event>
<event>
 7    1  0.5441610E-013  0.5052885E+02  0.7816164E-02  0.1300439E+00
        -11   -1    0    0    0    0  0.00000000000E+00  0.00000000000E+00  0.45593999997E+02  0.45594000000E+02  0.51100000000E-03 0.  1.
         11   -1    0    0    0    0 -0.00000000000E+00 -0.00000000000E+00 -0.45593999997E+02  0.45594000000E+02  0.51100000000E-03 0. -1.
    9900012    2    1    2    0    0  0.17725892936E+01 -0.29518045593E+02 -0.27905365360E+02  0.50528849685E+02  0.29999969103E+02 0.  0.
        -12    1    1    2    0    0 -0.17725892936E+01  0.29518045593E+02  0.27905365360E+02  0.40659150315E+02  0.00000000000E+00 0.  1.
         11    1    3    3    0    0  0.51353428013E+01 -0.21452034239E+02 -0.21664349410E+02  0.30917722333E+02  0.51100000000E-03 0. -1.
        -11    1    3    3    0    0  0.47303112639E+01 -0.84356915868E+01 -0.50505624512E+00  0.96846176628E+01  0.51100000000E-03 0.  1.
        -12    1    3    3    0    0 -0.80930647716E+01  0.36968023217E+00 -0.57359597051E+01  0.99265096892E+01  0.00000000000E+00 0.  1.
</event>
<event>
 7    1  0.5441610E-013  0.5052886E+02  0.7816164E-02  0.1300439E+00
        -11   -1    0    0    0    0  0.00000000000E+00  0.00000000000E+00  0.45593999997E+02  0.45594000000E+02  0.51100000000E-03 0.  1.
         11   -1    0    0    0    0 -0.00000000000E+00 -0.00000000000E+00 -0.45593999997E+02  0.45594000000E+02  0.51100000000E-03 0. -1.
    9900012    2    1    2    0    0  0.16291733635E+02 -0.10235746415E+02 -0.35818636623E+02  0.50528858112E+02  0.29999994718E+02 0.  0.
        -12    1    1    2    0    0 -0.16291733635E+02  0.10235746415E+02  0.35818636623E+02  0.40659141888E+02  0.00000000000E+00 0.  1.
         11    1    3    3    0    0  0.15822695772E+02  0.17771173036E+01 -0.89714803235E+01  0.18275757354E+02  0.51100000000E-03 0. -1.
        -11    1    3    3    0    0 -0.40269633930E+01  0.74604529679E+00 -0.41518556987E+01  0.58318885241E+01  0.51100000000E-03 0.  1.
        -12    1    3    3    0    0  0.44960012563E+01 -0.12758909015E+02 -0.22695300601E+02  0.26421212234E+02  0.00000000000E+00 0.  1.
</event>
<event>
 7    1  0.5441610E-013  0.5052894E+02  0.7816164E-02  0.1300439E+00
        -11   -1    0    0    0    0  0.00000000000E+00  0.00000000000E+00  0.45593999997E+02  0.45594000000E+02  0.51100000000E-03 0.  1.
         11   -1    0    0    0    0 -0.00000000000E+00 -0.00000000000E+00 -0.45593999997E+02  0.45594000000E+02  0.51100000000E-03 0. -1.
    9900012    2    1    2    0    0  0.21590379584E+02 -0.14333819030E+02 -0.31329795875E+02  0.50528942361E+02  0.30000250798E+02 0.  0.
        -12    1    1    2    0    0 -0.21590379584E+02  0.14333819030E+02  0.31329795875E+02  0.40659057639E+02  0.00000000000E+00 0.  1.
         11    1    3    3    0    0  0.29806074591E+01 -0.69382556267E+01  0.30832973726E+01  0.81566006961E+01  0.51100000000E-03 0. -1.
        -11    1    3    3    0    0  0.15001369690E+02 -0.62813614057E+01 -0.13544615991E+02  0.21164905298E+02  0.51100000000E-03 0.  1.
         12    1    3    3    0    0  0.36084024356E+01 -0.11142019973E+01 -0.20868477257E+02  0.21207436367E+02  0.00000000000E+00 0. -1.
</event>
<event>
 7    1  0.5441610E-013  0.5052886E+02  0.7816164E-02  0.1300439E+00
        -11   -1    0    0    0    0  0.00000000000E+00  0.00000000000E+00  0.45593999997E+02  0.45594000000E+02  0.51100000000E-03 0. -1.
         11   -1    0    0    0    0 -0.00000000000E+00 -0.00000000000E+00 -0.45593999997E+02  0.45594000000E+02  0.51100000000E-03 0.  1.
    9900012    2    1    2    0    0 -0.33663921523E+02  0.13939200498E+02  0.18044528344E+02  0.50528856798E+02  0.29999990722E+02 0.  0.
        -12    1    1    2    0    0  0.33663921523E+02 -0.13939200498E+02 -0.18044528344E+02  0.40659143202E+02  0.00000000000E+00 0.  1.
         11    1    3    3    0    0 -0.11726123636E+02  0.78789332606E+01  0.64326712757E+00  0.14141900782E+02  0.51100000000E-03 0. -1.
        -11    1    3    3    0    0 -0.52589986873E+01 -0.26764587856E+01 -0.45613178244E+01  0.74582919882E+01  0.51100000000E-03 0.  1.
        -12    1    3    3    0    0 -0.16678799199E+02  0.87367260229E+01  0.21962579040E+02  0.28928664028E+02  0.00000000000E+00 0.  1.
</event>
<event>
 7    1  0.5441610E-013  0.5052885E+02  0.7816164E-02  0.1300439E+00
        -11   -1    0    0    0    0  0.00000000000E+00  0.00000000000E+00  0.45593999997E+02  0.45594000000E+02  0.51100000000E-03 0. -1.
         11   -1    0    0    0    0 -0.00000000000E+00 -0.00000000000E+00 -0.45593999997E+02  0.45594000000E+02  0.51100000000E-03 0.  1.
    9900012    2    1    2    0    0 -0.31593256583E+02 -0.19747873606E+02  0.16280491047E+02  0.50528846514E+02  0.29999959464E+02 0.  0.
        -12    1    1    2    0    0  0.31593256583E+02  0.19747873606E+02 -0.16280491047E+02  0.40659153486E+02  0.00000000000E+00 0.  1.
         11    1    3    3    0    0 -0.26777089345E+02 -0.14983462515E+02  0.18898374268E+02  0.36036997835E+02  0.51100000000E-03 0. -1.
        -11    1    3    3    0    0  0.67672585672E+00 -0.78581088174E+01 -0.78249786510E+00  0.79259154198E+01  0.51100000000E-03 0.  1.
        -12    1    3    3    0    0 -0.54928930945E+01  0.30936977261E+01 -0.18353853552E+01  0.65659332597E+01  0.00000000000E+00 0.  1.
</event>
<event>
 7    1  0.5441610E-013  0.5052886E+02  0.7816164E-02  0.1300439E+00
        -11   -1    0    0    0    0  0.00000000000E+00  0.00000000000E+00  0.45593999997E+02  0.45594000000E+02  0.51100000000E-03 0.  1.
         11   -1    0    0    0    0 -0.00000000000E+00 -0.00000000000E+00 -0.45593999997E+02  0.45594000000E+02  0.51100000000E-03 0. -1.
    9900012    2    1    2    0    0 -0.33852025657E+02  0.14542739477E+02 -0.17196358481E+02  0.50528860098E+02  0.30000000754E+02 0.  0.
        -12    1    1    2    0    0  0.33852025657E+02 -0.14542739477E+02  0.17196358481E+02  0.40659139902E+02  0.00000000000E+00 0.  1.
         11    1    3    3    0    0 -0.59502177507E+01 -0.40957550519E+01 -0.27984302287E+01  0.77467098004E+01  0.51100000000E-03 0. -1.
        -11    1    3    3    0    0 -0.21899474244E+01  0.83858497524E+01 -0.12266628828E+02  0.15019604817E+02  0.51100000000E-03 0.  1.
         12    1    3    3    0    0 -0.25711860482E+02  0.10252644776E+02 -0.21312994251E+01  0.27762545481E+02  0.00000000000E+00 0. -1.
</event>
<event>
 7    1  0.5441610E-013  0.5052887E+02  0.7816164E-02  0.1300439E+00
        -11   -1    0    0    0    0  0.00000000000E+00  0.00000000000E+00  0.45593999997E+02  0.45594000000E+02  0.51100000000E-03 0.  1.
         11   -1    0    0    0    0 -0.00000000000E+00 -0.00000000000E+00 -0.45593999997E+02  0.45594000000E+02  0.51100000000E-03 0. -1.
    9900012    2    1    2    0    0  0.94644680470E+01  0.11793252558E+02 -0.37742651624E+02  0.50528871715E+02  0.30000036065E+02 0.  0.
        -12    1    1    2    0    0 -0.94644680470E+01 -0.11793252558E+02  0.37742651624E+02  0.40659128285E+02  0.00000000000E+00 0.  1.
         11    1    3    3    0    0  0.51435572554E+01  0.13564812397E+02 -0.35620699279E+02  0.38461598172E+02  0.51100000000E-03 0. -1.
        -11    1    3    3    0    0  0.11263405501E+01  0.35993548824E+01 -0.40434912281E+01  0.55293598343E+01  0.51100000000E-03 0.  1.
        -12    1    3    3    0    0  0.31945702415E+01 -0.53709147218E+01  0.19215388830E+01  0.65379137081E+01  0.00000000000E+00 0.  1.
</event>
<event>
 7    1  0.5441610E-013  0.5052886E+02  0.7816164E-02  0.1300439E+00
        -11   -1    0    0    0    0  0.00000000000E+00  0.00000000000E+00  0.45593999997E+02  0.45594000000E+02  0.51100000000E-03 0.  1.
         11   -1    0    0    0    0 -0.00000000000E+00 -0.00000000000E+00 -0.45593999997E+02  0.45594000000E+02  0.51100000000E-03 0. -1.
    9900012    2    1    2    0    0  0.21669260807E+02  0.34400994169E+02  0.42506263598E+00  0.50528856601E+02  0.29999990123E+02 0.  0.
        -12    1    1    2    0    0 -0.21669260807E+02 -0.34400994169E+02 -0.42506263598E+00  0.40659143399E+02  0.00000000000E+00 0.  1.
         11    1    3    3    0    0  0.35714053136E+01  0.15599084536E+02 -0.99954113965E+01  0.18867819787E+02  0.51100000000E-03 0. -1.
        -11    1    3    3    0    0  0.36215215826E+01  0.75982351461E+01 -0.30294013529E+01  0.89457178989E+01  0.51100000000E-03 0.  1.
        -12    1    3    3    0    0  0.14476333911E+02  0.11203674487E+02  0.13449875385E+02  0.22715318915E+02  0.00000000000E+00 0.  1.
</event>
<event>
 7    1  0.5441610E-013  0.5052886E+02  0.7816164E-02  0.1300439E+00
        -11   -1    0    0    0    0  0.00000000000E+00  0.00000000000E+00  0.45593999997E+02  0.45594000000E+02  0.51100000000E-03 0.  1.
         11   -1    0    0    0    0 -0.00000000000E+00 -0.00000000000E+00 -0.45593999997E+02  0.45594000000E+02  0.51100000000E-03 0. -1.
    9900012    2    1    2    0    0  0.22658265154E+02 -0.24118346081E+01 -0.33674200789E+02  0.50528859272E+02  0.29999998243E+02 0.  0.
        -12    1    1    2    0    0 -0.22658265154E+02  0.24118346081E+01  0.33674200789E+02  0.40659140728E+02  0.00000000000E+00 0.  1.
         11    1    3    3    0    0  0.14372529572E+02 -0.21391567816E+01 -0.20120011921E+02  0.24818551086E+02  0.51100000000E-03 0. -1.
        -11    1    3    3    0    0 -0.13185871017E+01 -0.53255189213E+01 -0.13804787478E+02  0.14855032187E+02  0.51100000000E-03 0.  1.
        -12    1    3    3    0    0  0.96043226837E+01  0.50528410948E+01  0.25059860981E+00  0.10855275999E+02  0.00000000000E+00 0.  1.
</event>
<event>
 7    1  0.5441610E-013  0.5052887E+02  0.7816164E-02  0.1300439E+00
        -11   -1    0    0    0    0  0.00000000000E+00  0.00000000000E+00  0.45593999997E+02  0.45594000000E+02  0.51100000000E-03 0.  1.
         11   -1    0    0    0    0 -0.00000000000E+00 -0.00000000000E+00 -0.45593999997E+02  0.45594000000E+02  0.51100000000E-03 0. -1.
    9900012    2    1    2    0    0 -0.15537115423E+01 -0.22697637104E+02 -0.33698195990E+02  0.50528866185E+02  0.30000019255E+02 0.  0.
        -12    1    1    2    0    0  0.15537115423E+01  0.22697637104E+02  0.33698195990E+02  0.40659133815E+02  0.00000000000E+00 0.  1.
         11    1    3    3    0    0  0.63957318756E+01 -0.70824662707E+01 -0.20963049136E+02  0.23032936071E+02  0.51100000000E-03 0. -1.
        -11    1    3    3    0    0 -0.62211082364E+01  0.20876784082E+01 -0.39287242871E+01  0.76482327116E+01  0.51100000000E-03 0.  1.
        -12    1    3    3    0    0 -0.17283351815E+01 -0.17702849241E+02 -0.88064225666E+01  0.19847697402E+02  0.00000000000E+00 0.  1.
</event>
<event>
 7    1  0.5441610E-013  0.5052886E+02  0.7816164E-02  0.1300439E+00
        -11   -1    0    0    0    0  0.00000000000E+00  0.00000000000E+00  0.45593999997E+02  0.45594000000E+02  0.51100000000E-03 0.  1.
         11   -1    0    0    0    0 -0.00000000000E+00 -0.00000000000E+00 -0.45593999997E+02  0.45594000000E+02  0.51100000000E-03 0. -1.
    9900012    2    1    2    0    0  0.26400990252E+02 -0.27561334077E+02 -0.14018773042E+02  0.50528863019E+02  0.30000009633E+02 0.  0.
        -12    1    1    2    0    0 -0.26400990252E+02  0.27561334077E+02  0.14018773042E+02  0.40659136981E+02  0.00000000000E+00 0.  1.
         11    1    3    3    0    0  0.48815720643E+01 -0.39413009310E+00 -0.19117771026E+01  0.52573735172E+01  0.51100000000E-03 0. -1.
        -11    1    3    3    0    0 -0.61626357149E+01 -0.33276353572E+01 -0.91553888523E+00  0.70632462605E+01  0.51100000000E-03 0.  1.
        -12    1    3    3    0    0  0.27682053903E+02 -0.23839568627E+02 -0.11191457054E+02  0.38208243241E+02  0.00000000000E+00 0.  1.
</event>
<event>
 7    1  0.5441610E-013  0.5052886E+02  0.7816164E-02  0.1300439E+00
        -11   -1    0    0    0    0  0.00000000000E+00  0.00000000000E+00  0.45593999997E+02  0.45594000000E+02  0.51100000000E-03 0.  1.
         11   -1    0    0    0    0 -0.00000000000E+00 -0.00000000000E+00 -0.45593999997E+02  0.45594000000E+02  0.51100000000E-03 0. -1.
    9900012    2    1    2    0    0 -0.12858522505E+02 -0.28287415758E+01 -0.38468458657E+02  0.50528859682E+02  0.29999999490E+02 0.  0.
        -12    1    1    2    0    0  0.12858522505E+02  0.28287415758E+01  0.38468458657E+02  0.40659140318E+02  0.00000000000E+00 0.  1.
         11    1    3    3    0    0  0.44730635537E+01  0.71110019799E+00 -0.24727043975E+02  0.25138430044E+02  0.51100000000E-03 0. -1.
        -11    1    3    3    0    0  0.50542274517E+00  0.10131017128E+01 -0.47873221809E+01  0.49193781271E+01  0.51100000000E-03 0.  1.
         12    1    3    3    0    0 -0.17837008804E+02 -0.45529434867E+01 -0.89540925011E+01  0.20471051511E+02  0.00000000000E+00 0. -1.
</event>
<event>
 7    1  0.5441610E-013  0.5052887E+02  0.7816164E-02  0.1300439E+00
        -11   -1    0    0    0    0  0.00000000000E+00  0.00000000000E+00  0.45593999997E+02  0.45594000000E+02  0.51100000000E-03 0.  1.
         11   -1    0    0    0    0 -0.00000000000E+00 -0.00000000000E+00 -0.45593999997E+02  0.45594000000E+02  0.51100000000E-03 0. -1.
    9900012    2    1    2    0    0 -0.19522978854E+02 -0.25464247532E+02 -0.24971784667E+02  0.50528872670E+02  0.30000038969E+02 0.  0.
        -12    1    1    2    0    0  0.19522978854E+02  0.25464247532E+02  0.24971784667E+02  0.40659127330E+02  0.00000000000E+00 0.  1.
         11    1    3    3    0    0 -0.18614852238E+02 -0.17733915369E+02 -0.19967584391E+02  0.32553170427E+02  0.51100000000E-03 0. -1.
        -11    1    3    3    0    0 -0.58531786448E+01 -0.72464897759E+01  0.18629125994E+01  0.94995661972E+01  0.51100000000E-03 0.  1.
         12    1    3    3    0    0  0.49450520288E+01 -0.48384238715E+00 -0.68671128759E+01  0.84761360462E+01  0.00000000000E+00 0. -1.
</event>
<event>
 7    1  0.5441610E-013  0.5052886E+02  0.7816164E-02  0.1300439E+00
        -11   -1    0    0    0    0  0.00000000000E+00  0.00000000000E+00  0.45593999997E+02  0.45594000000E+02  0.51100000000E-03 0.  1.
         11   -1    0    0    0    0 -0.00000000000E+00 -0.00000000000E+00 -0.45593999997E+02  0.45594000000E+02  0.51100000000E-03 0. -1.
    9900012    2    1    2    0    0  0.32577761675E+02 -0.12825090083E+02 -0.20672977447E+02  0.50528862184E+02  0.30000007094E+02 0.  0.
        -12    1    1    2    0    0 -0.32577761675E+02  0.12825090083E+02  0.20672977447E+02  0.40659137816E+02  0.00000000000E+00 0.  1.
         11    1    3    3    0    0  0.24528132098E+01  0.45071743358E+01 -0.52898049235E+01  0.73697319846E+01  0.51100000000E-03 0. -1.
        -11    1    3    3    0    0  0.24587122294E+01 -0.47571041805E+01  0.43715219327E+01  0.69127064367E+01  0.51100000000E-03 0.  1.
        -12    1    3    3    0    0  0.27666236236E+02 -0.12575160239E+02 -0.19754694456E+02  0.36246423762E+02  0.00000000000E+00 0.  1.
</event>
<event>
 7    1  0.5441610E-013  0.5052884E+02  0.7816164E-02  0.1300439E+00
        -11   -1    0    0    0    0  0.00000000000E+00  0.00000000000E+00  0.45593999997E+02  0.45594000000E+02  0.51100000000E-03 0.  1.
         11   -1    0    0    0    0 -0.00000000000E+00 -0.00000000000E+00 -0.45593999997E+02  0.45594000000E+02  0.51100000000E-03 0. -1.
    9900012    2    1    2    0    0  0.61110150335E+01 -0.23446117503E+02 -0.32651225317E+02  0.50528838112E+02  0.29999933926E+02 0.  0.
        -12    1    1    2    0    0 -0.61110150335E+01  0.23446117503E+02  0.32651225317E+02  0.40659161888E+02  0.00000000000E+00 0.  1.
         11    1    3    3    0    0 -0.95871473284E+00  0.16427328247E+01 -0.13500123958E+02  0.13633453422E+02  0.51100000000E-03 0. -1.
        -11    1    3    3    0    0  0.10974459351E+02 -0.94743300178E+01 -0.13574792201E+02  0.19861436778E+02  0.51100000000E-03 0.  1.
        -12    1    3    3    0    0 -0.39047295843E+01 -0.15614520310E+02 -0.55763091577E+01  0.17033947912E+02  0.00000000000E+00 0.  1.
</event>
<event>
 7    1  0.5441610E-013  0.5052891E+02  0.7816164E-02  0.1300439E+00
        -11   -1    0    0    0    0  0.00000000000E+00  0.00000000000E+00  0.45593999997E+02  0.45594000000E+02  0.51100000000E-03 0.  1.
         11   -1    0    0    0    0 -0.00000000000E+00 -0.00000000000E+00 -0.45593999997E+02  0.45594000000E+02  0.51100000000E-03 0. -1.
    9900012    2    1    2    0    0 -0.13756605073E+01 -0.34821544052E+02 -0.20945864229E+02  0.50528909992E+02  0.30000152412E+02 0.  0.
        -12    1    1    2    0    0  0.13756605073E+01  0.34821544052E+02  0.20945864229E+02  0.40659090008E+02  0.00000000000E+00 0.  1.
         11    1    3    3    0    0 -0.50527800397E+01 -0.19672213223E+02 -0.26370118572E+01  0.20481220448E+02  0.51100000000E-03 0. -1.
        -11    1    3    3    0    0 -0.17884995552E+01  0.68414877495E+00  0.26174815566E+01  0.32431466457E+01  0.51100000000E-03 0.  1.
         12    1    3    3    0    0  0.54656190876E+01 -0.15833479603E+02 -0.20926333928E+02  0.26804542899E+02  0.00000000000E+00 0. -1.
</event>
<event>
 7    1  0.5441610E-013  0.5052886E+02  0.7816164E-02  0.1300439E+00
        -11   -1    0    0    0    0  0.00000000000E+00  0.00000000000E+00  0.45593999997E+02  0.45594000000E+02  0.51100000000E-03 0. -1.
         11   -1    0    0    0    0 -0.00000000000E+00 -0.00000000000E+00 -0.45593999997E+02  0.45594000000E+02  0.51100000000E-03 0.  1.
    9900012    2    1    2    0    0 -0.15755926503E+02 -0.29767828643E+02  0.22777028663E+02  0.50528857402E+02  0.29999992558E+02 0.  0.
        -12    1    1    2    0    0  0.15755926503E+02  0.29767828643E+02 -0.22777028663E+02  0.40659142598E+02  0.00000000000E+00 0.  1.
         11    1    3    3    0    0 -0.39301687298E+01 -0.11078603255E+02 -0.23433780706E+01  0.11986371318E+02  0.51100000000E-03 0. -1.
        -11    1    3    3    0    0  0.18866682019E+01 -0.76359745774E+00 -0.22719036707E+01  0.30502695834E+01  0.51100000000E-03 0.  1.
         12    1    3    3    0    0 -0.13712425975E+02 -0.17925627931E+02  0.27392310404E+02  0.35492216501E+02  0.00000000000E+00 0. -1.
</event>
<event>
 7    1  0.6760379E-013  0.5052886E+02  0.7816164E-02  0.1300439E+00
        -11   -1    0    0    0    0  0.00000000000E+00  0.00000000000E+00  0.45593999997E+02  0.45594000000E+02  0.51100000000E-03 0. -1.
         11   -1    0    0    0    0 -0.00000000000E+00 -0.00000000000E+00 -0.45593999997E+02  0.45594000000E+02  0.51100000000E-03 0.  1.
    9900012    2    1    2    0    0 -0.26920856231E+02  0.57363813419E+01  0.29925360152E+02  0.50528858945E+02  0.29999997250E+02 0.  0.
        -12    1    1    2    0    0  0.26920856231E+02 -0.57363813419E+01 -0.29925360152E+02  0.40659141055E+02  0.00000000000E+00 0.  1.
         11    1    3    3    0    0 -0.16116473673E+02 -0.58710473396E+01  0.18812021380E+02  0.25457848872E+02  0.51100000000E-03 0.  1.
        -11    1    3    3    0    0 -0.12130850714E+02  0.35401858824E+01  0.19428701279E+01  0.12785350982E+02  0.51100000000E-03 0. -1.
        -12    1    3    3    0    0  0.13264681570E+01  0.80672427991E+01  0.91704686443E+01  0.12285659091E+02  0.00000000000E+00 0.  1.
</event>
<event>
 7    1  0.5441610E-013  0.5052885E+02  0.7816164E-02  0.1300439E+00
        -11   -1    0    0    0    0  0.00000000000E+00  0.00000000000E+00  0.45593999997E+02  0.45594000000E+02  0.51100000000E-03 0. -1.
         11   -1    0    0    0    0 -0.00000000000E+00 -0.00000000000E+00 -0.45593999997E+02  0.45594000000E+02  0.51100000000E-03 0.  1.
    9900012    2    1    2    0    0  0.26467393469E+01 -0.36344108344E+02  0.18035153376E+02  0.50528853455E+02  0.29999980562E+02 0.  0.
        -12    1    1    2    0    0 -0.26467393469E+01  0.36344108344E+02 -0.18035153376E+02  0.40659146545E+02  0.00000000000E+00 0.  1.
         11    1    3    3    0    0  0.14748513946E+01 -0.18323386213E+02  0.12161154967E+02  0.22041219552E+02  0.51100000000E-03 0. -1.
        -11    1    3    3    0    0 -0.54043334860E+01 -0.12807560249E+02  0.11783863247E+02  0.18223607031E+02  0.51100000000E-03 0.  1.
        -12    1    3    3    0    0  0.65762214384E+01 -0.52131618818E+01 -0.59098648383E+01  0.10264026872E+02  0.00000000000E+00 0.  1.
</event>
<event>
 7    1  0.5441610E-013  0.5052887E+02  0.7816164E-02  0.1300439E+00
        -11   -1    0    0    0    0  0.00000000000E+00  0.00000000000E+00  0.45593999997E+02  0.45594000000E+02  0.51100000000E-03 0. -1.
         11   -1    0    0    0    0 -0.00000000000E+00 -0.00000000000E+00 -0.45593999997E+02  0.45594000000E+02  0.51100000000E-03 0.  1.
    9900012    2    1    2    0    0 -0.30168051051E+01 -0.36742718113E+02  0.17147501296E+02  0.50528865134E+02  0.30000016061E+02 0.  0.
        -12    1    1    2    0    0  0.30168051051E+01  0.36742718113E+02 -0.17147501296E+02  0.40659134866E+02  0.00000000000E+00 0.  1.
         11    1    3    3    0    0 -0.11638346605E+02 -0.26880901289E+02  0.70514930199E+01  0.30129014585E+02  0.51100000000E-03 0. -1.
        -11    1    3    3    0    0 -0.30225486608E+01 -0.20945742208E+01  0.27529602201E+01  0.45936730192E+01  0.51100000000E-03 0.  1.
        -12    1    3    3    0    0  0.11644090161E+02 -0.77672426030E+01  0.73430480559E+01  0.15806177529E+02  0.00000000000E+00 0.  1.
</event>
<event>
 7    1  0.5441610E-013  0.5052886E+02  0.7816164E-02  0.1300439E+00
        -11   -1    0    0    0    0  0.00000000000E+00  0.00000000000E+00  0.45593999997E+02  0.45594000000E+02  0.51100000000E-03 0.  1.
         11   -1    0    0    0    0 -0.00000000000E+00 -0.00000000000E+00 -0.45593999997E+02  0.45594000000E+02  0.51100000000E-03 0. -1.
    9900012    2    1    2    0    0  0.16058454233E+02  0.27972949242E+02 -0.24754918826E+02  0.50528857760E+02  0.29999993647E+02 0.  0.
        -12    1    1    2    0    0 -0.16058454233E+02 -0.27972949242E+02  0.24754918826E+02  0.40659142240E+02  0.00000000000E+00 0.  1.
         11    1    3    3    0    0  0.68151944776E+00  0.12813451849E+02 -0.16562433562E+02  0.20951449181E+02  0.51100000000E-03 0. -1.
        -11    1    3    3    0    0  0.58694511913E+00 -0.26457551386E+01 -0.56816621164E+01  0.62949034538E+01  0.51100000000E-03 0.  1.
         12    1    3    3    0    0  0.14789989666E+02  0.17805252531E+02 -0.25108231478E+01  0.23282505125E+02  0.00000000000E+00 0. -1.
</event>
<event>
 7    1  0.5441610E-013  0.5052887E+02  0.7816164E-02  0.1300439E+00
        -11   -1    0    0    0    0  0.00000000000E+00  0.00000000000E+00  0.45593999997E+02  0.45594000000E+02  0.51100000000E-03 0. -1.
         11   -1    0    0    0    0 -0.00000000000E+00 -0.00000000000E+00 -0.45593999997E+02  0.45594000000E+02  0.51100000000E-03 0.  1.
    9900012    2    1    2    0    0  0.38923522861E+02 -0.29804047991E+01  0.11368453926E+02  0.50528865856E+02  0.30000018255E+02 0.  0.
        -12    1    1    2    0    0 -0.38923522861E+02  0.29804047991E+01 -0.11368453926E+02  0.40659134144E+02  0.00000000000E+00 0.  1.
         11    1    3    3    0    0  0.17153661196E+02  0.76120205993E+01  0.14642106266E+02  0.23802987758E+02  0.51100000000E-03 0.  1.
        -11    1    3    3    0    0  0.21110733564E+02 -0.66280653200E+01 -0.10933986091E+01  0.22153777156E+02  0.51100000000E-03 0. -1.
        -12    1    3    3    0    0  0.65912810115E+00 -0.39643600784E+01 -0.21802537315E+01  0.45721009414E+01  0.00000000000E+00 0.  1.
</event>
<event>
 7    1  0.5441610E-013  0.5052886E+02  0.7816164E-02  0.1300439E+00
        -11   -1    0    0    0    0  0.00000000000E+00  0.00000000000E+00  0.45593999997E+02  0.45594000000E+02  0.51100000000E-03 0.  1.
         11   -1    0    0    0    0 -0.00000000000E+00 -0.00000000000E+00 -0.45593999997E+02  0.45594000000E+02  0.51100000000E-03 0. -1.
    9900012    2    1    2    0    0  0.58859947106E+01 -0.71823694932E+00 -0.40224429177E+02  0.50528862028E+02  0.30000006620E+02 0.  0.
        -12    1    1    2    0    0 -0.58859947106E+01  0.71823694932E+00  0.40224429177E+02  0.40659137972E+02  0.00000000000E+00 0.  1.
         11    1    3    3    0    0 -0.99726965407E+00  0.17930147929E+01  0.11914547391E+01  0.23725542074E+01  0.51100000000E-03 0.  1.
        -11    1    3    3    0    0  0.33399274634E+01  0.47165443078E-01 -0.43277276384E+02  0.43405990272E+02  0.51100000000E-03 0. -1.
         12    1    3    3    0    0  0.35433369013E+01 -0.25584171853E+01  0.18613924682E+01  0.47503175484E+01  0.00000000000E+00 0. -1.
</event>
<event>
 7    1  0.5441610E-013  0.5052896E+02  0.7816164E-02  0.1300438E+00
        -11   -1    0    0    0    0  0.00000000000E+00  0.00000000000E+00  0.45593999997E+02  0.45594000000E+02  0.51100000000E-03 0. -1.
         11   -1    0    0    0    0 -0.00000000000E+00 -0.00000000000E+00 -0.45593999997E+02  0.45594000000E+02  0.51100000000E-03 0.  1.
    9900012    2    1    2    0    0  0.28857672086E+02  0.16972772044E+02  0.23072001930E+02  0.50528960388E+02  0.30000305595E+02 0.  0.
        -12    1    1    2    0    0 -0.28857672086E+02 -0.16972772044E+02 -0.23072001930E+02  0.40659039612E+02  0.00000000000E+00 0.  1.
         11    1    3    3    0    0  0.62667144338E+01  0.10916669171E+02  0.13486221632E+01  0.12659548080E+02  0.51100000000E-03 0. -1.
        -11    1    3    3    0    0  0.50615128723E+01  0.11360087044E+02  0.63819166803E+01  0.13978531789E+02  0.51100000000E-03 0.  1.
        -12    1    3    3    0    0  0.17529444780E+02 -0.53039841707E+01  0.15341463086E+02  0.23890880520E+02  0.00000000000E+00 0.  1.
</event>
<event>
 7    1  0.5441610E-013  0.5052885E+02  0.7816164E-02  0.1300439E+00
        -11   -1    0    0    0    0  0.00000000000E+00  0.00000000000E+00  0.45593999997E+02  0.45594000000E+02  0.51100000000E-03 0.  1.
         11   -1    0    0    0    0 -0.00000000000E+00 -0.00000000000E+00 -0.45593999997E+02  0.45594000000E+02  0.51100000000E-03 0. -1.
    9900012    2    1    2    0    0  0.17568714710E+02  0.23823349598E+02 -0.27873906013E+02  0.50528851472E+02  0.29999974534E+02 0.  0.
        -12    1    1    2    0    0 -0.17568714710E+02 -0.23823349598E+02  0.27873906013E+02  0.40659148528E+02  0.00000000000E+00 0.  1.
         11    1    3    3    0    0  0.18367960726E+02  0.78077756739E+01 -0.19819211430E+02  0.28127290737E+02  0.51100000000E-03 0. -1.
        -11    1    3    3    0    0 -0.34410544982E+01 -0.48135542985E+00 -0.38246643301E+01  0.51672639384E+01  0.51100000000E-03 0.  1.
         12    1    3    3    0    0  0.26418084818E+01  0.16496929354E+02 -0.42300302528E+01  0.17234296797E+02  0.00000000000E+00 0. -1.
</event>
<event>
 7    1  0.8397056E-013  0.5052886E+02  0.7816164E-02  0.1300439E+00
        -11   -1    0    0    0    0  0.00000000000E+00  0.00000000000E+00  0.45593999997E+02  0.45594000000E+02  0.51100000000E-03 0. -1.
         11   -1    0    0    0    0 -0.00000000000E+00 -0.00000000000E+00 -0.45593999997E+02  0.45594000000E+02  0.51100000000E-03 0.  1.
    9900012    2    1    2    0    0 -0.82936831334E+01  0.28941869532E+02  0.27326701417E+02  0.50528860779E+02  0.30000002822E+02 0.  0.
        -12    1    1    2    0    0  0.82936831334E+01 -0.28941869532E+02 -0.27326701417E+02  0.40659139221E+02  0.00000000000E+00 0.  1.
         11    1    3    3    0    0 -0.90341398648E+01  0.25498456354E+02  0.19128544820E+02  0.33131377676E+02  0.51100000000E-03 0. -1.
        -11    1    3    3    0    0  0.25028745685E+01  0.68853426169E+01 -0.10240632487E+01  0.73973664135E+01  0.51100000000E-03 0.  1.
        -12    1    3    3    0    0 -0.17624178371E+01 -0.34419294398E+01  0.92222198457E+01  0.10000116689E+02  0.00000000000E+00 0.  1.
</event>
<event>
 7    1  0.5441610E-013  0.5052885E+02  0.7816164E-02  0.1300439E+00
        -11   -1    0    0    0    0  0.00000000000E+00  0.00000000000E+00  0.45593999997E+02  0.45594000000E+02  0.51100000000E-03 0.  1.
         11   -1    0    0    0    0 -0.00000000000E+00 -0.00000000000E+00 -0.45593999997E+02  0.45594000000E+02  0.51100000000E-03 0. -1.
    9900012    2    1    2    0    0 -0.24609228621E+02  0.26437172033E+02 -0.18671597265E+02  0.50528846752E+02  0.29999960187E+02 0.  0.
        -12    1    1    2    0    0  0.24609228621E+02 -0.26437172033E+02  0.18671597265E+02  0.40659153248E+02  0.00000000000E+00 0.  1.
         11    1    3    3    0    0 -0.14908104690E+02  0.17959132887E+02 -0.41505160087E+01  0.23706725267E+02  0.51100000000E-03 0. -1.
        -11    1    3    3    0    0 -0.15024933187E+02  0.42530540573E+01 -0.11453052816E+02  0.19365162151E+02  0.51100000000E-03 0.  1.
        -12    1    3    3    0    0  0.53238092556E+01  0.42249850885E+01 -0.30680284403E+01  0.74569593333E+01  0.00000000000E+00 0.  1.
</event>
<event>
 7    1  0.5441610E-013  0.5052886E+02  0.7816164E-02  0.1300439E+00
        -11   -1    0    0    0    0  0.00000000000E+00  0.00000000000E+00  0.45593999997E+02  0.45594000000E+02  0.51100000000E-03 0.  1.
         11   -1    0    0    0    0 -0.00000000000E+00 -0.00000000000E+00 -0.45593999997E+02  0.45594000000E+02  0.51100000000E-03 0. -1.
    9900012    2    1    2    0    0 -0.19537055822E+02  0.85017371057E+01 -0.34629315135E+02  0.50528861412E+02  0.30000004747E+02 0.  0.
        -12    1    1    2    0    0  0.19537055822E+02 -0.85017371057E+01  0.34629315135E+02  0.40659138588E+02  0.00000000000E+00 0.  1.
         11    1    3    3    0    0 -0.50426116615E+00  0.66101188633E+01 -0.11816029427E+02  0.13548671610E+02  0.51100000000E-03 0. -1.
        -11    1    3    3    0    0  0.22799012705E+01 -0.59680846912E+01 -0.49406520594E+01  0.80762632273E+01  0.51100000000E-03 0.  1.
        -12    1    3    3    0    0 -0.21312695927E+02  0.78597029336E+01 -0.17872633648E+02  0.28903926574E+02  0.00000000000E+00 0.  1.
</event>
<event>
 7    1  0.5441610E-013  0.5052887E+02  0.7816164E-02  0.1300439E+00
        -11   -1    0    0    0    0  0.00000000000E+00  0.00000000000E+00  0.45593999997E+02  0.45594000000E+02  0.51100000000E-03 0.  1.
         11   -1    0    0    0    0 -0.00000000000E+00 -0.00000000000E+00 -0.45593999997E+02  0.45594000000E+02  0.51100000000E-03 0. -1.
    9900012    2    1    2    0    0  0.11630557868E+02  0.24812850555E+02 -0.30036938447E+02  0.50528866951E+02  0.30000021585E+02 0.  0.
        -12    1    1    2    0    0 -0.11630557868E+02 -0.24812850555E+02  0.30036938447E+02  0.40659133049E+02  0.00000000000E+00 0.  1.
         11    1    3    3    0    0  0.16904314527E+01 -0.29873878823E+01 -0.27178319986E+01  0.43782023582E+01  0.51100000000E-03 0. -1.
        -11    1    3    3    0    0  0.21793537025E+00  0.55268324300E+01  0.37670926806E+01  0.66921117789E+01  0.51100000000E-03 0.  1.
         12    1    3    3    0    0  0.97221910450E+01  0.22273406007E+02 -0.31086199129E+02  0.39458552814E+02  0.00000000000E+00 0. -1.
</event>
<event>
 7    1  0.5441610E-013  0.5052884E+02  0.7816164E-02  0.1300439E+00
        -11   -1    0    0    0    0  0.00000000000E+00  0.00000000000E+00  0.45593999997E+02  0.45594000000E+02  0.51100000000E-03 0. -1.
         11   -1    0    0    0    0 -0.00000000000E+00 -0.00000000000E+00 -0.45593999997E+02  0.45594000000E+02  0.51100000000E-03 0.  1.
    9900012    2    1    2    0    0 -0.35962455639E+02 -0.18884034650E+02 -0.18061261577E+01  0.50528842705E+02  0.29999947886E+02 0.  0.
        -12    1    1    2    0    0  0.35962455639E+02  0.18884034650E+02  0.18061261577E+01  0.40659157295E+02  0.00000000000E+00 0.  1.
         11    1    3    3    0    0 -0.21393977683E+02 -0.20663524415E+02 -0.29069175831E+01  0.29885342435E+02  0.51100000000E-03 0. -1.
        -11    1    3    3    0    0  0.17198984369E+01 -0.31521857801E+01  0.35858857410E+00  0.36087271789E+01  0.51100000000E-03 0.  1.
         12    1    3    3    0    0 -0.16288376393E+02  0.49316755453E+01  0.74220285134E+00  0.17034773091E+02  0.00000000000E+00 0. -1.
</event>
<event>
 7    1  0.5441610E-013  0.5052884E+02  0.7816164E-02  0.1300439E+00
        -11   -1    0    0    0    0  0.00000000000E+00  0.00000000000E+00  0.45593999997E+02  0.45594000000E+02  0.51100000000E-03 0. -1.
         11   -1    0    0    0    0 -0.00000000000E+00 -0.00000000000E+00 -0.45593999997E+02  0.45594000000E+02  0.51100000000E-03 0.  1.
    9900012    2    1    2    0    0  0.37197401460E+02 -0.14197174240E+02  0.82438193760E+01  0.50528843716E+02  0.29999950960E+02 0.  0.
        -12    1    1    2    0    0 -0.37197401460E+02  0.14197174240E+02 -0.82438193760E+01  0.40659156284E+02  0.00000000000E+00 0.  1.
         11    1    3    3    0    0  0.18777962214E+02 -0.12450548023E+02  0.19883039017E+01  0.22618164463E+02  0.51100000000E-03 0. -1.
        -11    1    3    3    0    0  0.84258586234E+01 -0.30165276296E+01  0.13003430044E+02  0.15785554335E+02  0.51100000000E-03 0.  1.
         12    1    3    3    0    0  0.99935806223E+01  0.12699014125E+01 -0.67479145700E+01  0.12125124919E+02  0.00000000000E+00 0. -1.
</event>
<event>
 7    1  0.5441610E-013  0.5052885E+02  0.7816164E-02  0.1300439E+00
        -11   -1    0    0    0    0  0.00000000000E+00  0.00000000000E+00  0.45593999997E+02  0.45594000000E+02  0.51100000000E-03 0.  1.
         11   -1    0    0    0    0 -0.00000000000E+00 -0.00000000000E+00 -0.45593999997E+02  0.45594000000E+02  0.51100000000E-03 0. -1.
    9900012    2    1    2    0    0  0.21427545129E+02  0.33390266038E+02  0.88947559906E+01  0.50528852930E+02  0.29999978966E+02 0.  0.
        -12    1    1    2    0    0 -0.21427545129E+02 -0.33390266038E+02 -0.88947559906E+01  0.40659147070E+02  0.00000000000E+00 0.  1.
         11    1    3    3    0    0  0.64712398506E+01  0.23428334717E+01  0.32567404923E+01  0.76139459399E+01  0.51100000000E-03 0. -1.
        -11    1    3    3    0    0  0.15907805032E+02  0.52849997229E+01  0.22864978919E+01  0.16917965477E+02  0.51100000000E-03 0.  1.
        -12    1    3    3    0    0 -0.95149975391E+00  0.25762432843E+02  0.33515176064E+01  0.25996941513E+02  0.00000000000E+00 0.  1.
</event>
<event>
 7    1  0.5441610E-013  0.5052887E+02  0.7816164E-02  0.1300439E+00
        -11   -1    0    0    0    0  0.00000000000E+00  0.00000000000E+00  0.45593999997E+02  0.45594000000E+02  0.51100000000E-03 0. -1.
         11   -1    0    0    0    0 -0.00000000000E+00 -0.00000000000E+00 -0.45593999997E+02  0.45594000000E+02  0.51100000000E-03 0.  1.
    9900012    2    1    2    0    0 -0.34099813348E+02 -0.52024230557E+01  0.21524454603E+02  0.50528872833E+02  0.30000039464E+02 0.  0.
        -12    1    1    2    0    0  0.34099813348E+02  0.52024230557E+01 -0.21524454603E+02  0.40659127167E+02  0.00000000000E+00 0.  1.
         11    1    3    3    0    0 -0.10533044776E+02 -0.80426408521E+01  0.11306593552E+02  0.17420337601E+02  0.51100000000E-03 0. -1.
        -11    1    3    3    0    0  0.90423685748E+00  0.55846699729E+01 -0.14785600858E+01  0.58474202165E+01  0.51100000000E-03 0.  1.
         12    1    3    3    0    0 -0.24471005429E+02 -0.27444521765E+01  0.11696421137E+02  0.27261115015E+02  0.00000000000E+00 0. -1.
</event>
<event>
 7    1  0.5441610E-013  0.5052885E+02  0.7816164E-02  0.1300439E+00
        -11   -1    0    0    0    0  0.00000000000E+00  0.00000000000E+00  0.45593999997E+02  0.45594000000E+02  0.51100000000E-03 0.  1.
         11   -1    0    0    0    0 -0.00000000000E+00 -0.00000000000E+00 -0.45593999997E+02  0.45594000000E+02  0.51100000000E-03 0. -1.
    9900012    2    1    2    0    0 -0.40257901846E+02 -0.56852187028E+01 -0.38188467594E+00  0.50528853321E+02  0.29999980154E+02 0.  0.
        -12    1    1    2    0    0  0.40257901846E+02  0.56852187028E+01  0.38188467594E+00  0.40659146679E+02  0.00000000000E+00 0.  1.
         11    1    3    3    0    0 -0.10257461607E+02 -0.78718819467E+01  0.44274947026E+01  0.13666921878E+02  0.51100000000E-03 0.  1.
        -11    1    3    3    0    0 -0.18404151806E+02  0.92911993237E+01  0.35192529357E+01  0.20914691727E+02  0.51100000000E-03 0. -1.
         12    1    3    3    0    0 -0.11596288433E+02 -0.71045360798E+01 -0.83286323142E+01  0.15947239716E+02  0.00000000000E+00 0. -1.
</event>
<event>
 7    1  0.5441610E-013  0.5052886E+02  0.7816164E-02  0.1300439E+00
        -11   -1    0    0    0    0  0.00000000000E+00  0.00000000000E+00  0.45593999997E+02  0.45594000000E+02  0.51100000000E-03 0.  1.
         11   -1    0    0    0    0 -0.00000000000E+00 -0.00000000000E+00 -0.45593999997E+02  0.45594000000E+02  0.51100000000E-03 0. -1.
    9900012    2    1    2    0    0  0.30369994576E+02  0.19389577254E+02 -0.18838089095E+02  0.50528857395E+02  0.29999992537E+02 0.  0.
        -12    1    1    2    0    0 -0.30369994576E+02 -0.19389577254E+02  0.18838089095E+02  0.40659142605E+02  0.00000000000E+00 0.  1.
         11    1    3    3    0    0  0.10128894431E+02  0.82437790926E+01  0.54098482215E+01  0.14135800443E+02  0.51100000000E-03 0. -1.
        -11    1    3    3    0    0  0.55582727740E+01 -0.31798315542E+01 -0.78521959031E+01  0.10132260641E+02  0.51100000000E-03 0.  1.
        -12    1    3    3    0    0  0.14682827371E+02  0.14325629715E+02 -0.16395741414E+02  0.26260796310E+02  0.00000000000E+00 0.  1.
</event>
<event>
 7    1  0.5441610E-013  0.5052893E+02  0.7816164E-02  0.1300439E+00
        -11   -1    0    0    0    0  0.00000000000E+00  0.00000000000E+00  0.45593999997E+02  0.45594000000E+02  0.51100000000E-03 0. -1.
         11   -1    0    0    0    0 -0.00000000000E+00 -0.00000000000E+00 -0.45593999997E+02  0.45594000000E+02  0.51100000000E-03 0.  1.
    9900012    2    1    2    0    0 -0.18455446066E+02 -0.12865569845E+02  0.33867881655E+02  0.50528932319E+02  0.30000220275E+02 0.  0.
        -12    1    1    2    0    0  0.18455446066E+02  0.12865569845E+02 -0.33867881655E+02  0.40659067681E+02  0.00000000000E+00 0.  1.
         11    1    3    3    0    0 -0.42526400210E+01  0.85354203936E+00  0.28108443702E+02  0.28441133747E+02  0.51100000000E-03 0. -1.
        -11    1    3    3    0    0 -0.24642237795E+01 -0.23363095835E+01 -0.20509051103E+01  0.39669829012E+01  0.51100000000E-03 0.  1.
        -12    1    3    3    0    0 -0.11738582266E+02 -0.11382802301E+02  0.78103430626E+01  0.18120815671E+02  0.00000000000E+00 0.  1.
</event>
<event>
 7    1  0.5441610E-013  0.5052887E+02  0.7816164E-02  0.1300439E+00
        -11   -1    0    0    0    0  0.00000000000E+00  0.00000000000E+00  0.45593999997E+02  0.45594000000E+02  0.51100000000E-03 0.  1.
         11   -1    0    0    0    0 -0.00000000000E+00 -0.00000000000E+00 -0.45593999997E+02  0.45594000000E+02  0.51100000000E-03 0. -1.
    9900012    2    1    2    0    0 -0.29065731811E+02  0.26105207783E+02 -0.11263501846E+02  0.50528866796E+02  0.30000021113E+02 0.  0.
        -12    1    1    2    0    0  0.29065731811E+02 -0.26105207783E+02  0.11263501846E+02  0.40659133204E+02  0.00000000000E+00 0.  1.
         11    1    3    3    0    0 -0.11833795878E+02  0.55981495790E+01 -0.11907715812E+02  0.17696657869E+02  0.51100000000E-03 0. -1.
        -11    1    3    3    0    0 -0.21148947424E+02  0.16057791053E+02 -0.13209874685E+01  0.26587132956E+02  0.51100000000E-03 0.  1.
        -12    1    3    3    0    0  0.39170114919E+01  0.44492671507E+01  0.19652014351E+01  0.62450759712E+01  0.00000000000E+00 0.  1.
</event>
<event>
 7    1  0.5441610E-013  0.5052886E+02  0.7816164E-02  0.1300439E+00
        -11   -1    0    0    0    0  0.00000000000E+00  0.00000000000E+00  0.45593999997E+02  0.45594000000E+02  0.51100000000E-03 0.  1.
         11   -1    0    0    0    0 -0.00000000000E+00 -0.00000000000E+00 -0.45593999997E+02  0.45594000000E+02  0.51100000000E-03 0. -1.
    9900012    2    1    2    0    0  0.20336141825E+01 -0.38051319130E+02 -0.14181934788E+02  0.50528858980E+02  0.29999997356E+02 0.  0.
        -12    1    1    2    0    0 -0.20336141825E+01  0.38051319130E+02  0.14181934788E+02  0.40659141020E+02  0.00000000000E+00 0.  1.
         11    1    3    3    0    0  0.10099109472E+02 -0.15967632590E+02 -0.14748714282E+02  0.23968351547E+02  0.51100000000E-03 0. -1.
        -11    1    3    3    0    0  0.26197492373E+01 -0.83394982046E+00  0.37502950710E+00  0.27747442696E+01  0.51100000000E-03 0.  1.
         12    1    3    3    0    0 -0.10685244526E+02 -0.21249736719E+02  0.19174998626E+00  0.23785763164E+02  0.00000000000E+00 0. -1.
</event>
<event>
 7    1  0.5441610E-013  0.5052881E+02  0.7816164E-02  0.1300439E+00
        -11   -1    0    0    0    0  0.00000000000E+00  0.00000000000E+00  0.45593999997E+02  0.45594000000E+02  0.51100000000E-03 0. -1.
         11   -1    0    0    0    0 -0.00000000000E+00 -0.00000000000E+00 -0.45593999997E+02  0.45594000000E+02  0.51100000000E-03 0.  1.
    9900012    2    1    2    0    0  0.24524191905E+02  0.19670225019E+02  0.25784023428E+02  0.50528811555E+02  0.29999853204E+02 0.  0.
        -12    1    1    2    0    0 -0.24524191905E+02 -0.19670225019E+02 -0.25784023428E+02  0.40659188445E+02  0.00000000000E+00 0.  1.
         11    1    3    3    0    0  0.20735478902E+01 -0.31706014014E+01  0.34745128704E+01  0.51404818886E+01  0.51100000000E-03 0. -1.
        -11    1    3    3    0    0 -0.30330105370E+01  0.58704074521E+01  0.10836460119E+02  0.12692111910E+02  0.51100000000E-03 0.  1.
         12    1    3    3    0    0  0.25483654551E+02  0.16970418968E+02  0.11473050439E+02  0.32696217757E+02  0.00000000000E+00 0. -1.
</event>
<event>
 7    1  0.5441610E-013  0.5052885E+02  0.7816164E-02  0.1300439E+00
        -11   -1    0    0    0    0  0.00000000000E+00  0.00000000000E+00  0.45593999997E+02  0.45594000000E+02  0.51100000000E-03 0. -1.
         11   -1    0    0    0    0 -0.00000000000E+00 -0.00000000000E+00 -0.45593999997E+02  0.45594000000E+02  0.51100000000E-03 0.  1.
    9900012    2    1    2    0    0 -0.25277226171E+02  0.29938416562E+02  0.10859073792E+02  0.50528850566E+02  0.29999971780E+02 0.  0.
        -12    1    1    2    0    0  0.25277226171E+02 -0.29938416562E+02 -0.10859073792E+02  0.40659149434E+02  0.00000000000E+00 0.  1.
         11    1    3    3    0    0 -0.10015352303E+02  0.12015337892E+02  0.43948872352E+01  0.16247789403E+02  0.51100000000E-03 0. -1.
        -11    1    3    3    0    0  0.26728950142E+01  0.85304591900E+01  0.10339416781E+02  0.13668088432E+02  0.51100000000E-03 0.  1.
         12    1    3    3    0    0 -0.17934768882E+02  0.93926194800E+01 -0.38752302239E+01  0.20612972731E+02  0.00000000000E+00 0. -1.
</event>
<event>
 7    1  0.5441610E-013  0.5052887E+02  0.7816164E-02  0.1300439E+00
        -11   -1    0    0    0    0  0.00000000000E+00  0.00000000000E+00  0.45593999997E+02  0.45594000000E+02  0.51100000000E-03 0.  1.
         11   -1    0    0    0    0 -0.00000000000E+00 -0.00000000000E+00 -0.45593999997E+02  0.45594000000E+02  0.51100000000E-03 0. -1.
    9900012    2    1    2    0    0  0.18057793113E+00 -0.38230366140E+02 -0.13840940312E+02  0.50528866558E+02  0.30000020389E+02 0.  0.
        -12    1    1    2    0    0 -0.18057793113E+00  0.38230366140E+02  0.13840940312E+02  0.40659133442E+02  0.00000000000E+00 0.  1.
         11    1    3    3    0    0  0.51304176899E+01 -0.34917174260E+02 -0.13762842204E+02  0.37880682013E+02  0.51100000000E-03 0. -1.
        -11    1    3    3    0    0  0.13663262157E+01 -0.26931110672E+01  0.40687333027E+01  0.50669799188E+01  0.51100000000E-03 0.  1.
        -12    1    3    3    0    0 -0.63161659744E+01 -0.62008081261E+00 -0.41468314109E+01  0.75812046260E+01  0.00000000000E+00 0.  1.
</event>
<event>
 7    1  0.5441610E-013  0.5052886E+02  0.7816164E-02  0.1300439E+00
        -11   -1    0    0    0    0  0.00000000000E+00  0.00000000000E+00  0.45593999997E+02  0.45594000000E+02  0.51100000000E-03 0. -1.
         11   -1    0    0    0    0 -0.00000000000E+00 -0.00000000000E+00 -0.45593999997E+02  0.45594000000E+02  0.51100000000E-03 0.  1.
    9900012    2    1    2    0    0 -0.21135919134E+02 -0.22247144830E+02  0.26674016692E+02  0.50528859610E+02  0.29999999272E+02 0.  0.
        -12    1    1    2    0    0  0.21135919134E+02  0.22247144830E+02 -0.26674016692E+02  0.40659140390E+02  0.00000000000E+00 0.  1.
         11    1    3    3    0    0  0.43938380990E+01 -0.32723587029E+01  0.62668516294E+01  0.83239158049E+01  0.51100000000E-03 0.  1.
        -11    1    3    3    0    0 -0.28540436136E+01 -0.83256185557E+01 -0.14969036327E+01  0.89276094241E+01  0.51100000000E-03 0. -1.
         12    1    3    3    0    0 -0.22675713619E+02 -0.10649167572E+02  0.21904068696E+02  0.33277334381E+02  0.00000000000E+00 0. -1.
</event>
<event>
 7    1  0.5441610E-013  0.5052886E+02  0.7816164E-02  0.1300439E+00
        -11   -1    0    0    0    0  0.00000000000E+00  0.00000000000E+00  0.45593999997E+02  0.45594000000E+02  0.51100000000E-03 0. -1.
         11   -1    0    0    0    0 -0.00000000000E+00 -0.00000000000E+00 -0.45593999997E+02  0.45594000000E+02  0.51100000000E-03 0.  1.
    9900012    2    1    2    0    0 -0.22399957031E+02  0.32078863089E+02 -0.11061368419E+02  0.50528863224E+02  0.30000010255E+02 0.  0.
        -12    1    1    2    0    0  0.22399957031E+02 -0.32078863089E+02  0.11061368419E+02  0.40659136776E+02  0.00000000000E+00 0.  1.
         11    1    3    3    0    0 -0.68984235376E+01  0.66179641174E+01  0.32895990483E+01  0.10109755611E+02  0.51100000000E-03 0. -1.
        -11    1    3    3    0    0 -0.50894818386E+01 -0.38415866844E+01 -0.44788586862E+01  0.77923545243E+01  0.51100000000E-03 0.  1.
        -12    1    3    3    0    0 -0.10412051655E+02  0.29302485656E+02 -0.98721087811E+01  0.32626753088E+02  0.00000000000E+00 0.  1.
</event>
<event>
 7    1  0.5441610E-013  0.5052886E+02  0.7816164E-02  0.1300439E+00
        -11   -1    0    0    0    0  0.00000000000E+00  0.00000000000E+00  0.45593999997E+02  0.45594000000E+02  0.51100000000E-03 0. -1.
         11   -1    0    0    0    0 -0.00000000000E+00 -0.00000000000E+00 -0.45593999997E+02  0.45594000000E+02  0.51100000000E-03 0.  1.
    9900012    2    1    2    0    0  0.20024085688E+01 -0.18359712654E+02  0.36222601638E+02  0.50528861319E+02  0.30000004465E+02 0.  0.
        -12    1    1    2    0    0 -0.20024085688E+01  0.18359712654E+02 -0.36222601638E+02  0.40659138681E+02  0.00000000000E+00 0.  1.
         11    1    3    3    0    0 -0.31285475254E+01 -0.51886113081E+01  0.22286315357E+02  0.23095223518E+02  0.51100000000E-03 0. -1.
        -11    1    3    3    0    0  0.75417364362E+01 -0.50505407882E+01  0.16284573894E+02  0.18643312417E+02  0.51100000000E-03 0.  1.
        -12    1    3    3    0    0 -0.24107803420E+01 -0.81205605582E+01 -0.23482876120E+01  0.87903253833E+01  0.00000000000E+00 0.  1.
</event>
<event>
 7    1  0.5441610E-013  0.5052888E+02  0.7816164E-02  0.1300439E+00
        -11   -1    0    0    0    0  0.00000000000E+00  0.00000000000E+00  0.45593999997E+02  0.45594000000E+02  0.51100000000E-03 0. -1.
         11   -1    0    0    0    0 -0.00000000000E+00 -0.00000000000E+00 -0.45593999997E+02  0.45594000000E+02  0.51100000000E-03 0.  1.
    9900012    2    1    2    0    0  0.18291310750E+02  0.32158905169E+02  0.16864069659E+02  0.50528879546E+02  0.30000059868E+02 0.  0.
        -12    1    1    2    0    0 -0.18291310750E+02 -0.32158905169E+02 -0.16864069659E+02  0.40659120454E+02  0.00000000000E+00 0.  1.
         11    1    3    3    0    0 -0.14096799149E+01  0.73698719516E+01  0.16158205422E+02  0.17815437485E+02  0.51100000000E-03 0. -1.
        -11    1    3    3    0    0  0.30548095912E-01  0.27231168172E+01 -0.14297059494E+01  0.30757694565E+01  0.51100000000E-03 0.  1.
        -12    1    3    3    0    0  0.19670442569E+02  0.22065916400E+02  0.21355701866E+01  0.29637672605E+02  0.00000000000E+00 0.  1.
</event>
<event>
 7    1  0.5441610E-013  0.5052886E+02  0.7816164E-02  0.1300439E+00
        -11   -1    0    0    0    0  0.00000000000E+00  0.00000000000E+00  0.45593999997E+02  0.45594000000E+02  0.51100000000E-03 0. -1.
         11   -1    0    0    0    0 -0.00000000000E+00 -0.00000000000E+00 -0.45593999997E+02  0.45594000000E+02  0.51100000000E-03 0.  1.
    9900012    2    1    2    0    0  0.16482887587E+01 -0.36671447462E+02  0.17482954751E+02  0.50528860540E+02  0.30000002097E+02 0.  0.
        -12    1    1    2    0    0 -0.16482887587E+01  0.36671447462E+02 -0.17482954751E+02  0.40659139460E+02  0.00000000000E+00 0.  1.
         11    1    3    3    0    0  0.12531723949E+01 -0.49973592679E+01  0.14559815783E+01  0.53538699388E+01  0.51100000000E-03 0. -1.
        -11    1    3    3    0    0  0.12095021843E+02 -0.23358872446E+02  0.16062958130E+02  0.30821179398E+02  0.51100000000E-03 0.  1.
        -12    1    3    3    0    0 -0.11699905479E+02 -0.83152157480E+01 -0.35984956859E-01  0.14353811204E+02  0.00000000000E+00 0.  1.
</event>
<event>
 7    1  0.5441610E-013  0.5052886E+02  0.7816164E-02  0.1300439E+00
        -11   -1    0    0    0    0  0.00000000000E+00  0.00000000000E+00  0.45593999997E+02  0.45594000000E+02  0.51100000000E-03 0.  1.
         11   -1    0    0    0    0 -0.00000000000E+00 -0.00000000000E+00 -0.45593999997E+02  0.45594000000E+02  0.51100000000E-03 0. -1.
    9900012    2    1    2    0    0  0.33118941384E+02 -0.10825840758E+02 -0.20954767584E+02  0.50528863376E+02  0.30000010717E+02 0.  0.
        -12    1    1    2    0    0 -0.33118941384E+02  0.10825840758E+02  0.20954767584E+02  0.40659136624E+02  0.00000000000E+00 0.  1.
         11    1    3    3    0    0 -0.28379313303E+01  0.41878978344E+01 -0.16750665176E+01  0.53289952718E+01  0.51100000000E-03 0. -1.
        -11    1    3    3    0    0  0.74730228582E+01 -0.23609807555E+01  0.11677028442E+01  0.79236248624E+01  0.51100000000E-03 0.  1.
        -12    1    3    3    0    0  0.28483849856E+02 -0.12652757837E+02 -0.20447403911E+02  0.37276243242E+02  0.00000000000E+00 0.  1.
</event>
<event>
 7    1  0.5441610E-013  0.5052886E+02  0.7816164E-02  0.1300439E+00
        -11   -1    0    0    0    0  0.00000000000E+00  0.00000000000E+00  0.45593999997E+02  0.45594000000E+02  0.51100000000E-03 0.  1.
         11   -1    0    0    0    0 -0.00000000000E+00 -0.00000000000E+00 -0.45593999997E+02  0.45594000000E+02  0.51100000000E-03 0. -1.
    9900012    2    1    2    0    0 -0.70305370512E+01  0.18347656108E+02 -0.35596361607E+02  0.50528857172E+02  0.29999991860E+02 0.  0.
        -12    1    1    2    0    0  0.70305370512E+01 -0.18347656108E+02  0.35596361607E+02  0.40659142828E+02  0.00000000000E+00 0.  1.
         11    1    3    3    0    0  0.67373104826E+00  0.95040088174E+01 -0.16098981458E+02  0.18707145730E+02  0.51100000000E-03 0. -1.
        -11    1    3    3    0    0 -0.11876107498E+02  0.13375464912E+02 -0.18216833616E+02  0.25530335254E+02  0.51100000000E-03 0.  1.
        -12    1    3    3    0    0  0.41718393989E+01 -0.45318176213E+01 -0.12805465333E+01  0.62913761886E+01  0.00000000000E+00 0.  1.
</event>
<event>
 7    1  0.5441610E-013  0.5052886E+02  0.7816164E-02  0.1300439E+00
        -11   -1    0    0    0    0  0.00000000000E+00  0.00000000000E+00  0.45593999997E+02  0.45594000000E+02  0.51100000000E-03 0.  1.
         11   -1    0    0    0    0 -0.00000000000E+00 -0.00000000000E+00 -0.45593999997E+02  0.45594000000E+02  0.51100000000E-03 0. -1.
    9900012    2    1    2    0    0 -0.25421515834E+02 -0.29932096886E+02 -0.10534786381E+02  0.50528860617E+02  0.30000002331E+02 0.  0.
        -12    1    1    2    0    0  0.25421515834E+02  0.29932096886E+02  0.10534786381E+02  0.40659139383E+02  0.00000000000E+00 0.  1.
         11    1    3    3    0    0 -0.12997060608E+02 -0.19895313645E+02 -0.67401931647E+01  0.24701767015E+02  0.51100000000E-03 0. -1.
        -11    1    3    3    0    0 -0.10665836690E+02  0.17335295833E+00 -0.92489719360E+01  0.14118555368E+02  0.51100000000E-03 0.  1.
        -12    1    3    3    0    0 -0.17586185351E+01 -0.10210136199E+02  0.54543787197E+01  0.11708538234E+02  0.00000000000E+00 0.  1.
</event>
<event>
 7    1  0.5441610E-013  0.5052886E+02  0.7816164E-02  0.1300439E+00
        -11   -1    0    0    0    0  0.00000000000E+00  0.00000000000E+00  0.45593999997E+02  0.45594000000E+02  0.51100000000E-03 0.  1.
         11   -1    0    0    0    0 -0.00000000000E+00 -0.00000000000E+00 -0.45593999997E+02  0.45594000000E+02  0.51100000000E-03 0. -1.
    9900012    2    1    2    0    0 -0.25076509401E+02 -0.31031536736E+02 -0.78344298713E+01  0.50528857272E+02  0.29999992165E+02 0.  0.
        -12    1    1    2    0    0  0.25076509401E+02  0.31031536736E+02  0.78344298713E+01  0.40659142728E+02  0.00000000000E+00 0.  1.
         11    1    3    3    0    0 -0.12301471671E+02 -0.15978998135E+02  0.29356228175E+01  0.20378235160E+02  0.51100000000E-03 0. -1.
        -11    1    3    3    0    0  0.21177480168E+01  0.42349008136E+00  0.36780897627E+01  0.42652719814E+01  0.51100000000E-03 0.  1.
        -12    1    3    3    0    0 -0.14892785747E+02 -0.15476028683E+02 -0.14448142451E+02  0.25885350131E+02  0.00000000000E+00 0.  1.
</event>
<event>
 7    1  0.5441610E-013  0.5052885E+02  0.7816164E-02  0.1300439E+00
        -11   -1    0    0    0    0  0.00000000000E+00  0.00000000000E+00  0.45593999997E+02  0.45594000000E+02  0.51100000000E-03 0.  1.
         11   -1    0    0    0    0 -0.00000000000E+00 -0.00000000000E+00 -0.45593999997E+02  0.45594000000E+02  0.51100000000E-03 0. -1.
    9900012    2    1    2    0    0 -0.11127618211E+02 -0.32869316004E+02 -0.21188447626E+02  0.50528854234E+02  0.29999982930E+02 0.  0.
        -12    1    1    2    0    0  0.11127618211E+02  0.32869316004E+02  0.21188447626E+02  0.40659145766E+02  0.00000000000E+00 0.  1.
         11    1    3    3    0    0  0.23786050648E+00 -0.13087995429E+02 -0.19245099861E+02  0.23275009579E+02  0.51100000000E-03 0. -1.
        -11    1    3    3    0    0 -0.34390651681E+01 -0.18825382019E+02 -0.51921974012E+00  0.19143974686E+02  0.51100000000E-03 0.  1.
        -12    1    3    3    0    0 -0.79264135496E+01 -0.95593855577E+00 -0.14241280254E+01  0.81098699690E+01  0.00000000000E+00 0.  1.
</event>
<event>
 7    1  0.5441610E-013  0.5052886E+02  0.7816164E-02  0.1300439E+00
        -11   -1    0    0    0    0  0.00000000000E+00  0.00000000000E+00  0.45593999997E+02  0.45594000000E+02  0.51100000000E-03 0. -1.
         11   -1    0    0    0    0 -0.00000000000E+00 -0.00000000000E+00 -0.45593999997E+02  0.45594000000E+02  0.51100000000E-03 0.  1.
    9900012    2    1    2    0    0  0.11796651465E+02 -0.22360966106E+02  0.31843232880E+02  0.50528864849E+02  0.30000015194E+02 0.  0.
        -12    1    1    2    0    0 -0.11796651465E+02  0.22360966106E+02 -0.31843232880E+02  0.40659135151E+02  0.00000000000E+00 0.  1.
         11    1    3    3    0    0  0.34338100563E+01 -0.35855929171E+01  0.24263257604E+02  0.24765968543E+02  0.51100000000E-03 0. -1.
        -11    1    3    3    0    0  0.50644737591E+01  0.21629995332E+00  0.32029940721E+01  0.59962364374E+01  0.51100000000E-03 0.  1.
        -12    1    3    3    0    0  0.32983676500E+01 -0.18991673142E+02  0.43769812044E+01  0.19766659868E+02  0.00000000000E+00 0.  1.
</event>
<event>
 7    1  0.5441610E-013  0.5052886E+02  0.7816164E-02  0.1300439E+00
        -11   -1    0    0    0    0  0.00000000000E+00  0.00000000000E+00  0.45593999997E+02  0.45594000000E+02  0.51100000000E-03 0.  1.
         11   -1    0    0    0    0 -0.00000000000E+00 -0.00000000000E+00 -0.45593999997E+02  0.45594000000E+02  0.51100000000E-03 0. -1.
    9900012    2    1    2    0    0 -0.10359143136E+02  0.31908892062E+02 -0.22971209449E+02  0.50528859543E+02  0.29999999067E+02 0.  0.
        -12    1    1    2    0    0  0.10359143136E+02 -0.31908892062E+02  0.22971209449E+02  0.40659140457E+02  0.00000000000E+00 0.  1.
         11    1    3    3    0    0 -0.20600069681E+01  0.68389946517E+01  0.20012468029E+01  0.74175781480E+01  0.51100000000E-03 0.  1.
        -11    1    3    3    0    0 -0.14481131738E+02  0.99643509391E+01 -0.72399746357E+01  0.19010752196E+02  0.51100000000E-03 0. -1.
        -12    1    3    3    0    0  0.61819955699E+01  0.15105546471E+02 -0.17732481617E+02  0.24100529200E+02  0.00000000000E+00 0.  1.
</event>
<event>
 7    1  0.5441610E-013  0.5052887E+02  0.7816164E-02  0.1300439E+00
        -11   -1    0    0    0    0  0.00000000000E+00  0.00000000000E+00  0.45593999997E+02  0.45594000000E+02  0.51100000000E-03 0.  1.
         11   -1    0    0    0    0 -0.00000000000E+00 -0.00000000000E+00 -0.45593999997E+02  0.45594000000E+02  0.51100000000E-03 0. -1.
    9900012    2    1    2    0    0  0.29758135921E+02 -0.13390755559E+02 -0.24255016379E+02  0.50528870552E+02  0.30000032530E+02 0.  0.
        -12    1    1    2    0    0 -0.29758135921E+02  0.13390755559E+02  0.24255016379E+02  0.40659129448E+02  0.00000000000E+00 0.  1.
         11    1    3    3    0    0  0.24059007700E+02 -0.13112176229E+02 -0.95212903067E+01  0.29007240240E+02  0.51100000000E-03 0. -1.
        -11    1    3    3    0    0 -0.14738209452E+01 -0.23704643242E+01  0.18388804510E+01  0.33425635169E+01  0.51100000000E-03 0.  1.
         12    1    3    3    0    0  0.71729491661E+01  0.20918849945E+01 -0.16572606523E+02  0.18179066795E+02  0.00000000000E+00 0. -1.
</event>
<event>
 7    1  0.5441610E-013  0.5052886E+02  0.7816164E-02  0.1300439E+00
        -11   -1    0    0    0    0  0.00000000000E+00  0.00000000000E+00  0.45593999997E+02  0.45594000000E+02  0.51100000000E-03 0.  1.
         11   -1    0    0    0    0 -0.00000000000E+00 -0.00000000000E+00 -0.45593999997E+02  0.45594000000E+02  0.51100000000E-03 0. -1.
    9900012    2    1    2    0    0 -0.13980453518E+02  0.27746078407E+02 -0.26227234834E+02  0.50528858413E+02  0.29999995632E+02 0.  0.
        -12    1    1    2    0    0  0.13980453518E+02 -0.27746078407E+02  0.26227234834E+02  0.40659141587E+02  0.00000000000E+00 0.  1.
         11    1    3    3    0    0  0.20993913799E+00  0.48510890535E+00 -0.13753913777E+02  0.13764067333E+02  0.51100000000E-03 0. -1.
        -11    1    3    3    0    0 -0.79344027498E+01  0.34968024035E+01  0.10192557427E+01  0.87304785994E+01  0.51100000000E-03 0.  1.
         12    1    3    3    0    0 -0.62559899060E+01  0.23764167098E+02 -0.13492576800E+02  0.28034312481E+02  0.00000000000E+00 0. -1.
</event>
<event>
 7    1  0.5441610E-013  0.5052886E+02  0.7816164E-02  0.1300439E+00
        -11   -1    0    0    0    0  0.00000000000E+00  0.00000000000E+00  0.45593999997E+02  0.45594000000E+02  0.51100000000E-03 0.  1.
         11   -1    0    0    0    0 -0.00000000000E+00 -0.00000000000E+00 -0.45593999997E+02  0.45594000000E+02  0.51100000000E-03 0. -1.
    9900012    2    1    2    0    0  0.15905116636E+02 -0.26696214684E+02 -0.26220317432E+02  0.50528860070E+02  0.30000000667E+02 0.  0.
        -12    1    1    2    0    0 -0.15905116636E+02  0.26696214684E+02  0.26220317432E+02  0.40659139930E+02  0.00000000000E+00 0.  1.
         11    1    3    3    0    0 -0.19361937454E+01 -0.12773086322E+02 -0.13605157154E+02  0.18761686541E+02  0.51100000000E-03 0. -1.
        -11    1    3    3    0    0  0.87812714170E+01  0.22678181678E+00 -0.12106465535E+02  0.14957562158E+02  0.51100000000E-03 0.  1.
         12    1    3    3    0    0  0.90600389642E+01 -0.14149910178E+02 -0.50869474285E+00  0.16809611371E+02  0.00000000000E+00 0. -1.
</event>
<event>
 7    1  0.5441610E-013  0.5052886E+02  0.7816164E-02  0.1300439E+00
        -11   -1    0    0    0    0  0.00000000000E+00  0.00000000000E+00  0.45593999997E+02  0.45594000000E+02  0.51100000000E-03 0.  1.
         11   -1    0    0    0    0 -0.00000000000E+00 -0.00000000000E+00 -0.45593999997E+02  0.45594000000E+02  0.51100000000E-03 0. -1.
    9900012    2    1    2    0    0 -0.38033261602E+02 -0.83730578807E+01 -0.11684556569E+02  0.50528856520E+02  0.29999989877E+02 0.  0.
        -12    1    1    2    0    0  0.38033261602E+02  0.83730578807E+01  0.11684556569E+02  0.40659143480E+02  0.00000000000E+00 0.  1.
         11    1    3    3    0    0 -0.31510381875E+01  0.68634724697E+01 -0.10245934935E+01  0.76214229702E+01  0.51100000000E-03 0. -1.
        -11    1    3    3    0    0 -0.23021947120E+02 -0.14480366474E+02 -0.13963626542E+02  0.30572437405E+02  0.51100000000E-03 0.  1.
         12    1    3    3    0    0 -0.11860276295E+02 -0.75616387591E+00  0.33036634660E+01  0.12334996145E+02  0.00000000000E+00 0. -1.
</event>
<event>
 7    1  0.5441610E-013  0.5052887E+02  0.7816164E-02  0.1300439E+00
        -11   -1    0    0    0    0  0.00000000000E+00  0.00000000000E+00  0.45593999997E+02  0.45594000000E+02  0.51100000000E-03 0. -1.
         11   -1    0    0    0    0 -0.00000000000E+00 -0.00000000000E+00 -0.45593999997E+02  0.45594000000E+02  0.51100000000E-03 0.  1.
    9900012    2    1    2    0    0  0.32287626753E+02 -0.24265096061E+02 -0.46775507036E+01  0.50528865617E+02  0.30000017529E+02 0.  0.
        -12    1    1    2    0    0 -0.32287626753E+02  0.24265096061E+02  0.46775507036E+01  0.40659134383E+02  0.00000000000E+00 0.  1.
         11    1    3    3    0    0  0.17706318200E+02 -0.61073009369E+01 -0.82522424586E+01  0.20467348015E+02  0.51100000000E-03 0. -1.
        -11    1    3    3    0    0  0.91534281594E+01  0.39232157495E+00  0.54211983530E+01  0.10645588529E+02  0.51100000000E-03 0.  1.
        -12    1    3    3    0    0  0.54278803941E+01 -0.18550116699E+02 -0.18465065980E+01  0.19415929072E+02  0.00000000000E+00 0.  1.
</event>
<event>
 7    1  0.5441610E-013  0.5052885E+02  0.7816164E-02  0.1300439E+00
        -11   -1    0    0    0    0  0.00000000000E+00  0.00000000000E+00  0.45593999997E+02  0.45594000000E+02  0.51100000000E-03 0. -1.
         11   -1    0    0    0    0 -0.00000000000E+00 -0.00000000000E+00 -0.45593999997E+02  0.45594000000E+02  0.51100000000E-03 0.  1.
    9900012    2    1    2    0    0 -0.21536444531E+02  0.24513203658E+02  0.24257998398E+02  0.50528854868E+02  0.29999984857E+02 0.  0.
        -12    1    1    2    0    0  0.21536444531E+02 -0.24513203658E+02 -0.24257998398E+02  0.40659145132E+02  0.00000000000E+00 0.  1.
         11    1    3    3    0    0 -0.10322908145E+02  0.12994707864E+02  0.11757072286E+02  0.20338476198E+02  0.51100000000E-03 0. -1.
        -11    1    3    3    0    0  0.12510556547E+01  0.14039503151E+02  0.98614932996E+01  0.17202378886E+02  0.51100000000E-03 0.  1.
        -12    1    3    3    0    0 -0.12464592040E+02 -0.25210073575E+01  0.26394328123E+01  0.12987999784E+02  0.00000000000E+00 0.  1.
</event>
<event>
 7    1  0.5441610E-013  0.5052878E+02  0.7816164E-02  0.1300439E+00
        -11   -1    0    0    0    0  0.00000000000E+00  0.00000000000E+00  0.45593999997E+02  0.45594000000E+02  0.51100000000E-03 0. -1.
         11   -1    0    0    0    0 -0.00000000000E+00 -0.00000000000E+00 -0.45593999997E+02  0.45594000000E+02  0.51100000000E-03 0.  1.
    9900012    2    1    2    0    0  0.13337503469E+02 -0.19508926597E+02  0.33086024588E+02  0.50528779166E+02  0.29999754753E+02 0.  0.
        -12    1    1    2    0    0 -0.13337503469E+02  0.19508926597E+02 -0.33086024588E+02  0.40659220834E+02  0.00000000000E+00 0.  1.
         11    1    3    3    0    0  0.40532487721E+01 -0.20796924563E+01  0.12301937402E+02  0.13118369199E+02  0.51100000000E-03 0. -1.
        -11    1    3    3    0    0 -0.67617311717E+01  0.70240936591E+00  0.33795287317E+01  0.75918115141E+01  0.51100000000E-03 0.  1.
        -12    1    3    3    0    0  0.16045985869E+02 -0.18131643507E+02  0.17404558454E+02  0.29818598454E+02  0.00000000000E+00 0.  1.
</event>
<event>
 7    1  0.5441610E-013  0.5052885E+02  0.7816164E-02  0.1300439E+00
        -11   -1    0    0    0    0  0.00000000000E+00  0.00000000000E+00  0.45593999997E+02  0.45594000000E+02  0.51100000000E-03 0.  1.
         11   -1    0    0    0    0 -0.00000000000E+00 -0.00000000000E+00 -0.45593999997E+02  0.45594000000E+02  0.51100000000E-03 0. -1.
    9900012    2    1    2    0    0  0.59762000112E+01  0.26037407957E+02 -0.30651341795E+02  0.50528851785E+02  0.29999975486E+02 0.  0.
        -12    1    1    2    0    0 -0.59762000112E+01 -0.26037407957E+02  0.30651341795E+02  0.40659148215E+02  0.00000000000E+00 0.  1.
         11    1    3    3    0    0 -0.10704080638E+01  0.51756636255E+01  0.19020643359E+01  0.56170380438E+01  0.51100000000E-03 0. -1.
        -11    1    3    3    0    0 -0.62572297426E+01  0.54340800827E+00 -0.97496402678E+01  0.11597573105E+02  0.51100000000E-03 0.  1.
         12    1    3    3    0    0  0.13303837818E+02  0.20318336323E+02 -0.22803765863E+02  0.33314240636E+02  0.00000000000E+00 0. -1.
</event>
<event>
 7    1  0.5441610E-013  0.5052887E+02  0.7816164E-02  0.1300439E+00
        -11   -1    0    0    0    0  0.00000000000E+00  0.00000000000E+00  0.45593999997E+02  0.45594000000E+02  0.51100000000E-03 0. -1.
         11   -1    0    0    0    0 -0.00000000000E+00 -0.00000000000E+00 -0.45593999997E+02  0.45594000000E+02  0.51100000000E-03 0.  1.
    9900012    2    1    2    0    0  0.24559220441E+02 -0.24963957716E+02  0.20659391618E+02  0.50528868731E+02  0.30000026995E+02 0.  0.
        -12    1    1    2    0    0 -0.24559220441E+02  0.24963957716E+02 -0.20659391618E+02  0.40659131269E+02  0.00000000000E+00 0.  1.
         11    1    3    3    0    0  0.10443692505E+02 -0.71342427433E+00  0.60185539101E+01  0.12074878002E+02  0.51100000000E-03 0. -1.
        -11    1    3    3    0    0  0.19096605352E+02 -0.16970975933E+02  0.62975902049E+01  0.26312620598E+02  0.51100000000E-03 0.  1.
        -12    1    3    3    0    0 -0.49810774165E+01 -0.72795575082E+01  0.83432475031E+01  0.12141370130E+02  0.00000000000E+00 0.  1.
</event>
<event>
 7    1  0.5441610E-013  0.5052886E+02  0.7816164E-02  0.1300439E+00
        -11   -1    0    0    0    0  0.00000000000E+00  0.00000000000E+00  0.45593999997E+02  0.45594000000E+02  0.51100000000E-03 0.  1.
         11   -1    0    0    0    0 -0.00000000000E+00 -0.00000000000E+00 -0.45593999997E+02  0.45594000000E+02  0.51100000000E-03 0. -1.
    9900012    2    1    2    0    0 -0.18065001311E+02 -0.15084166748E+02 -0.33155533505E+02  0.50528858828E+02  0.29999996894E+02 0.  0.
        -12    1    1    2    0    0  0.18065001311E+02  0.15084166748E+02  0.33155533505E+02  0.40659141172E+02  0.00000000000E+00 0.  1.
         11    1    3    3    0    0 -0.72103325174E+01 -0.42739349818E+01 -0.21350627018E+02  0.22936972110E+02  0.51100000000E-03 0. -1.
        -11    1    3    3    0    0  0.52238154188E+01 -0.10265283016E+01 -0.57137777215E+01  0.78095623434E+01  0.51100000000E-03 0.  1.
         12    1    3    3    0    0 -0.16078484212E+02 -0.97837034643E+01 -0.60911287655E+01  0.19782324375E+02  0.00000000000E+00 0. -1.
</event>
<event>
 7    1  0.5441610E-013  0.5052884E+02  0.7816164E-02  0.1300439E+00
        -11   -1    0    0    0    0  0.00000000000E+00  0.00000000000E+00  0.45593999997E+02  0.45594000000E+02  0.51100000000E-03 0.  1.
         11   -1    0    0    0    0 -0.00000000000E+00 -0.00000000000E+00 -0.45593999997E+02  0.45594000000E+02  0.51100000000E-03 0. -1.
    9900012    2    1    2    0    0 -0.32356658537E+02  0.23703236966E+02 -0.66611043392E+01  0.50528842293E+02  0.29999946635E+02 0.  0.
        -12    1    1    2    0    0  0.32356658537E+02 -0.23703236966E+02  0.66611043392E+01  0.40659157707E+02  0.00000000000E+00 0.  1.
         11    1    3    3    0    0 -0.16159191181E+02  0.26600554062E+02 -0.78329914356E+01  0.32094620906E+02  0.51100000000E-03 0. -1.
        -11    1    3    3    0    0 -0.44139582890E+01 -0.24842557391E+00 -0.33406414460E+01  0.55411757394E+01  0.51100000000E-03 0.  1.
        -12    1    3    3    0    0 -0.11783509068E+02 -0.26488915213E+01  0.45125285424E+01  0.12893045648E+02  0.00000000000E+00 0.  1.
</event>
<event>
 7    1  0.5441610E-013  0.5052886E+02  0.7816164E-02  0.1300439E+00
        -11   -1    0    0    0    0  0.00000000000E+00  0.00000000000E+00  0.45593999997E+02  0.45594000000E+02  0.51100000000E-03 0.  1.
         11   -1    0    0    0    0 -0.00000000000E+00 -0.00000000000E+00 -0.45593999997E+02  0.45594000000E+02  0.51100000000E-03 0. -1.
    9900012    2    1    2    0    0 -0.21261670713E+02  0.23103235633E+02 -0.25833069204E+02  0.50528860773E+02  0.30000002804E+02 0.  0.
        -12    1    1    2    0    0  0.21261670713E+02 -0.23103235633E+02  0.25833069204E+02  0.40659139227E+02  0.00000000000E+00 0.  1.
         11    1    3    3    0    0 -0.23341114859E+02  0.16246995266E+02 -0.25843056322E+02  0.38427022502E+02  0.51100000000E-03 0. -1.
        -11    1    3    3    0    0  0.28379589030E+01 -0.17933098849E+01 -0.54654001204E+00  0.34012758378E+01  0.51100000000E-03 0.  1.
        -12    1    3    3    0    0 -0.75851475657E+00  0.86495502522E+01  0.55652713000E+00  0.87005624329E+01  0.00000000000E+00 0.  1.
</event>
<event>
 7    1  0.5441610E-013  0.5052886E+02  0.7816164E-02  0.1300439E+00
        -11   -1    0    0    0    0  0.00000000000E+00  0.00000000000E+00  0.45593999997E+02  0.45594000000E+02  0.51100000000E-03 0.  1.
         11   -1    0    0    0    0 -0.00000000000E+00 -0.00000000000E+00 -0.45593999997E+02  0.45594000000E+02  0.51100000000E-03 0. -1.
    9900012    2    1    2    0    0 -0.19147077943E+02 -0.29603976760E+02 -0.20252400003E+02  0.50528859088E+02  0.29999997684E+02 0.  0.
        -12    1    1    2    0    0  0.19147077943E+02  0.29603976760E+02  0.20252400003E+02  0.40659140912E+02  0.00000000000E+00 0.  1.
         11    1    3    3    0    0 -0.92858274916E+01 -0.21448748521E+02 -0.20842647547E+02  0.31315992118E+02  0.51100000000E-03 0. -1.
        -11    1    3    3    0    0 -0.12242124850E+02 -0.18336183025E+01 -0.40243425020E+00  0.12385222264E+02  0.51100000000E-03 0.  1.
         12    1    3    3    0    0  0.23808743986E+01 -0.63216099368E+01  0.99268179344E+00  0.68276447065E+01  0.00000000000E+00 0. -1.
</event>
<event>
 7    1  0.5441610E-013  0.5052884E+02  0.7816164E-02  0.1300439E+00
        -11   -1    0    0    0    0  0.00000000000E+00  0.00000000000E+00  0.45593999997E+02  0.45594000000E+02  0.51100000000E-03 0. -1.
         11   -1    0    0    0    0 -0.00000000000E+00 -0.00000000000E+00 -0.45593999997E+02  0.45594000000E+02  0.51100000000E-03 0.  1.
    9900012    2    1    2    0    0 -0.37324094234E+02 -0.12665367655E+00  0.16126486565E+02  0.50528835960E+02  0.29999927383E+02 0.  0.
        -12    1    1    2    0    0  0.37324094234E+02  0.12665367655E+00 -0.16126486565E+02  0.40659164040E+02  0.00000000000E+00 0.  1.
         11    1    3    3    0    0 -0.11422964222E+02  0.64417883996E+01 -0.37275801186E+00  0.13119439706E+02  0.51100000000E-03 0. -1.
        -11    1    3    3    0    0  0.12293865864E+01  0.37169012538E+01  0.46235880346E+01  0.60584084449E+01  0.51100000000E-03 0.  1.
         12    1    3    3    0    0 -0.27130516598E+02 -0.10285343330E+02  0.11875656542E+02  0.31350987809E+02  0.00000000000E+00 0. -1.
</event>
<event>
 7    1  0.5441610E-013  0.5052887E+02  0.7816164E-02  0.1300439E+00
        -11   -1    0    0    0    0  0.00000000000E+00  0.00000000000E+00  0.45593999997E+02  0.45594000000E+02  0.51100000000E-03 0.  1.
         11   -1    0    0    0    0 -0.00000000000E+00 -0.00000000000E+00 -0.45593999997E+02  0.45594000000E+02  0.51100000000E-03 0. -1.
    9900012    2    1    2    0    0 -0.12148074118E+02 -0.11018289129E+02 -0.37204660705E+02  0.50528865991E+02  0.30000018668E+02 0.  0.
        -12    1    1    2    0    0  0.12148074118E+02  0.11018289129E+02  0.37204660705E+02  0.40659134009E+02  0.00000000000E+00 0.  1.
         11    1    3    3    0    0 -0.13346888905E+02  0.36030811385E+01 -0.20074311894E+02  0.24374159173E+02  0.51100000000E-03 0. -1.
        -11    1    3    3    0    0 -0.25247429386E+00 -0.12309509692E+01 -0.11480187724E+02  0.11548752920E+02  0.51100000000E-03 0.  1.
        -12    1    3    3    0    0  0.14512890800E+01 -0.13390419298E+02 -0.56501610877E+01  0.14605953899E+02  0.00000000000E+00 0.  1.
</event>
<event>
 7    1  0.5441610E-013  0.5052886E+02  0.7816164E-02  0.1300439E+00
        -11   -1    0    0    0    0  0.00000000000E+00  0.00000000000E+00  0.45593999997E+02  0.45594000000E+02  0.51100000000E-03 0. -1.
         11   -1    0    0    0    0 -0.00000000000E+00 -0.00000000000E+00 -0.45593999997E+02  0.45594000000E+02  0.51100000000E-03 0.  1.
    9900012    2    1    2    0    0  0.29374665215E+02  0.24928624218E+02  0.12994564498E+02  0.50528856276E+02  0.29999989135E+02 0.  0.
        -12    1    1    2    0    0 -0.29374665215E+02 -0.24928624218E+02 -0.12994564498E+02  0.40659143724E+02  0.00000000000E+00 0.  1.
         11    1    3    3    0    0  0.61748283914E+01  0.14477729200E+02  0.29987526878E+01  0.16022661027E+02  0.51100000000E-03 0. -1.
        -11    1    3    3    0    0 -0.12790753377E+01 -0.42726526903E+01  0.14401161753E+01  0.46867397614E+01  0.51100000000E-03 0.  1.
         12    1    3    3    0    0  0.24478912162E+02  0.14723547709E+02  0.85556956349E+01  0.29819455487E+02  0.00000000000E+00 0. -1.
</event>
<event>
 7    1  0.5441610E-013  0.5052886E+02  0.7816164E-02  0.1300439E+00
        -11   -1    0    0    0    0  0.00000000000E+00  0.00000000000E+00  0.45593999997E+02  0.45594000000E+02  0.51100000000E-03 0.  1.
         11   -1    0    0    0    0 -0.00000000000E+00 -0.00000000000E+00 -0.45593999997E+02  0.45594000000E+02  0.51100000000E-03 0. -1.
    9900012    2    1    2    0    0 -0.13080248267E+02  0.13528074078E+02 -0.36042531513E+02  0.50528858828E+02  0.29999996893E+02 0.  0.
        -12    1    1    2    0    0  0.13080248267E+02 -0.13528074078E+02  0.36042531513E+02  0.40659141172E+02  0.00000000000E+00 0.  1.
         11    1    3    3    0    0 -0.15844976260E+02 -0.60823869751E+00 -0.21608969021E+02  0.26802626166E+02  0.51100000000E-03 0. -1.
        -11    1    3    3    0    0 -0.19526238295E+01  0.12862444649E+02 -0.13505732167E+02  0.18752600454E+02  0.51100000000E-03 0.  1.
        -12    1    3    3    0    0  0.47173518227E+01  0.12738681266E+01 -0.92783032548E+00  0.49736322075E+01  0.00000000000E+00 0.  1.
</event>
<event>
 7    1  0.5441610E-013  0.5052886E+02  0.7816164E-02  0.1300439E+00
        -11   -1    0    0    0    0  0.00000000000E+00  0.00000000000E+00  0.45593999997E+02  0.45594000000E+02  0.51100000000E-03 0.  1.
         11   -1    0    0    0    0 -0.00000000000E+00 -0.00000000000E+00 -0.45593999997E+02  0.45594000000E+02  0.51100000000E-03 0. -1.
    9900012    2    1    2    0    0 -0.22547421194E+02  0.27661336686E+02 -0.19484101602E+02  0.50528856318E+02  0.29999989263E+02 0.  0.
        -12    1    1    2    0    0  0.22547421194E+02 -0.27661336686E+02  0.19484101602E+02  0.40659143682E+02  0.00000000000E+00 0.  1.
         11    1    3    3    0    0 -0.89461977280E+00 -0.33106800054E+01 -0.82458586096E+01  0.89305728319E+01  0.51100000000E-03 0. -1.
        -11    1    3    3    0    0 -0.24255987580E+01  0.40706534084E+01  0.29877165534E+01  0.56018031892E+01  0.51100000000E-03 0.  1.
         12    1    3    3    0    0 -0.19227202663E+02  0.26901363283E+02 -0.14225959546E+02  0.35996480296E+02  0.00000000000E+00 0. -1.
</event>
<event>
 7    1  0.5441610E-013  0.5052884E+02  0.7816164E-02  0.1300439E+00
        -11   -1    0    0    0    0  0.00000000000E+00  0.00000000000E+00  0.45593999997E+02  0.45594000000E+02  0.51100000000E-03 0.  1.
         11   -1    0    0    0    0 -0.00000000000E+00 -0.00000000000E+00 -0.45593999997E+02  0.45594000000E+02  0.51100000000E-03 0. -1.
    9900012    2    1    2    0    0  0.55131858513E+00 -0.38900793505E+02 -0.11814874705E+02  0.50528844182E+02  0.29999952375E+02 0.  0.
        -12    1    1    2    0    0 -0.55131858513E+00  0.38900793505E+02  0.11814874705E+02  0.40659155818E+02  0.00000000000E+00 0.  1.
         11    1    3    3    0    0  0.14497138510E+01 -0.11350006115E+02 -0.66669164487E+01  0.13242812551E+02  0.51100000000E-03 0. -1.
        -11    1    3    3    0    0  0.46217185637E+01  0.24123153894E+00 -0.75435022625E+01  0.88500226996E+01  0.51100000000E-03 0.  1.
         12    1    3    3    0    0 -0.55201138296E+01 -0.27792018929E+02  0.23955440060E+01  0.28436008931E+02  0.00000000000E+00 0. -1.
</event>
<event>
 7    1  0.5441610E-013  0.5052886E+02  0.7816164E-02  0.1300439E+00
        -11   -1    0    0    0    0  0.00000000000E+00  0.00000000000E+00  0.45593999997E+02  0.45594000000E+02  0.51100000000E-03 0. -1.
         11   -1    0    0    0    0 -0.00000000000E+00 -0.00000000000E+00 -0.45593999997E+02  0.45594000000E+02  0.51100000000E-03 0.  1.
    9900012    2    1    2    0    0  0.32356220652E+02 -0.10304665387E+02  0.22361903423E+02  0.50528857506E+02  0.29999992876E+02 0.  0.
        -12    1    1    2    0    0 -0.32356220652E+02  0.10304665387E+02 -0.22361903423E+02  0.40659142494E+02  0.00000000000E+00 0.  1.
         11    1    3    3    0    0  0.24995539665E+02 -0.44515932984E-02  0.16314386619E+02  0.29848554973E+02  0.51100000000E-03 0. -1.
        -11    1    3    3    0    0  0.89788763423E+01  0.31563110790E+00  0.35127921579E+01  0.96467379136E+01  0.51100000000E-03 0.  1.
         12    1    3    3    0    0 -0.16181953551E+01 -0.10615844901E+02  0.25347246461E+01  0.11033564619E+02  0.00000000000E+00 0. -1.
</event>
<event>
 7    1  0.5441610E-013  0.5052886E+02  0.7816164E-02  0.1300439E+00
        -11   -1    0    0    0    0  0.00000000000E+00  0.00000000000E+00  0.45593999997E+02  0.45594000000E+02  0.51100000000E-03 0.  1.
         11   -1    0    0    0    0 -0.00000000000E+00 -0.00000000000E+00 -0.45593999997E+02  0.45594000000E+02  0.51100000000E-03 0. -1.
    9900012    2    1    2    0    0  0.12115655749E+02  0.26899572206E+02  0.27978370005E+02  0.50528864652E+02  0.30000014597E+02 0.  0.
        -12    1    1    2    0    0 -0.12115655749E+02 -0.26899572206E+02 -0.27978370005E+02  0.40659135348E+02  0.00000000000E+00 0.  1.
         11    1    3    3    0    0  0.28575698531E+01  0.13494878084E+02  0.18264517017E+02  0.22888207052E+02  0.51100000000E-03 0. -1.
        -11    1    3    3    0    0 -0.20710594688E+01 -0.32273911657E+01  0.60843171058E+01  0.71919577283E+01  0.51100000000E-03 0.  1.
         12    1    3    3    0    0  0.11329145365E+02  0.16632085288E+02  0.36295358832E+01  0.20448699872E+02  0.00000000000E+00 0. -1.
</event>
<event>
 7    1  0.5441610E-013  0.5052885E+02  0.7816164E-02  0.1300439E+00
        -11   -1    0    0    0    0  0.00000000000E+00  0.00000000000E+00  0.45593999997E+02  0.45594000000E+02  0.51100000000E-03 0.  1.
         11   -1    0    0    0    0 -0.00000000000E+00 -0.00000000000E+00 -0.45593999997E+02  0.45594000000E+02  0.51100000000E-03 0. -1.
    9900012    2    1    2    0    0  0.20038908510E+02  0.55711795964E+01 -0.34936661621E+02  0.50528853162E+02  0.29999979670E+02 0.  0.
        -12    1    1    2    0    0 -0.20038908510E+02 -0.55711795964E+01  0.34936661621E+02  0.40659146838E+02  0.00000000000E+00 0.  1.
         11    1    3    3    0    0  0.11597409559E+02 -0.23408205383E+00 -0.14198873293E+01  0.11686350293E+02  0.51100000000E-03 0. -1.
        -11    1    3    3    0    0  0.13753135088E+01 -0.58023532761E+01 -0.86766055410E+01  0.10528165783E+02  0.51100000000E-03 0.  1.
        -12    1    3    3    0    0  0.70661854422E+01  0.11607614926E+02 -0.24840168751E+02  0.28314337085E+02  0.00000000000E+00 0.  1.
</event>
<event>
 7    1  0.5441610E-013  0.5052886E+02  0.7816164E-02  0.1300439E+00
        -11   -1    0    0    0    0  0.00000000000E+00  0.00000000000E+00  0.45593999997E+02  0.45594000000E+02  0.51100000000E-03 0.  1.
         11   -1    0    0    0    0 -0.00000000000E+00 -0.00000000000E+00 -0.45593999997E+02  0.45594000000E+02  0.51100000000E-03 0. -1.
    9900012    2    1    2    0    0 -0.80010368972E+01  0.29382442784E+02 -0.26941065931E+02  0.50528861189E+02  0.30000004070E+02 0.  0.
        -12    1    1    2    0    0  0.80010368972E+01 -0.29382442784E+02  0.26941065931E+02  0.40659138811E+02  0.00000000000E+00 0.  1.
         11    1    3    3    0    0 -0.43177016977E+01 -0.10955703279E+01 -0.14609793858E+02  0.15273797797E+02  0.51100000000E-03 0. -1.
        -11    1    3    3    0    0  0.29107157118E+01  0.77218165561E+01 -0.73367196664E+01  0.11042018502E+02  0.51100000000E-03 0.  1.
        -12    1    3    3    0    0 -0.65940509112E+01  0.22756196556E+02 -0.49945524058E+01  0.24213044890E+02  0.00000000000E+00 0.  1.
</event>
<event>
 7    1  0.5441610E-013  0.5052886E+02  0.7816164E-02  0.1300439E+00
        -11   -1    0    0    0    0  0.00000000000E+00  0.00000000000E+00  0.45593999997E+02  0.45594000000E+02  0.51100000000E-03 0.  1.
         11   -1    0    0    0    0 -0.00000000000E+00 -0.00000000000E+00 -0.45593999997E+02  0.45594000000E+02  0.51100000000E-03 0. -1.
    9900012    2    1    2    0    0  0.37892398770E+02 -0.53696741075E+01 -0.13729473098E+02  0.50528859378E+02  0.29999998566E+02 0.  0.
        -12    1    1    2    0    0 -0.37892398770E+02  0.53696741075E+01  0.13729473098E+02  0.40659140622E+02  0.00000000000E+00 0.  1.
         11    1    3    3    0    0  0.28575333884E+02 -0.64346435858E+01 -0.16546355837E+02  0.33641287675E+02  0.51100000000E-03 0. -1.
        -11    1    3    3    0    0  0.28421309558E+00 -0.42933391396E+01 -0.26439494697E+01  0.50501492167E+01  0.51100000000E-03 0.  1.
        -12    1    3    3    0    0  0.90328517900E+01  0.53583086179E+01  0.54608322092E+01  0.11837422486E+02  0.00000000000E+00 0.  1.
</event>
<event>
 7    1  0.5441610E-013  0.5052887E+02  0.7816164E-02  0.1300439E+00
        -11   -1    0    0    0    0  0.00000000000E+00  0.00000000000E+00  0.45593999997E+02  0.45594000000E+02  0.51100000000E-03 0.  1.
         11   -1    0    0    0    0 -0.00000000000E+00 -0.00000000000E+00 -0.45593999997E+02  0.45594000000E+02  0.51100000000E-03 0. -1.
    9900012    2    1    2    0    0 -0.92371098282E+01  0.72916617787E+01 -0.38918788527E+02  0.50528872736E+02  0.30000039168E+02 0.  0.
        -12    1    1    2    0    0  0.92371098282E+01 -0.72916617787E+01  0.38918788527E+02  0.40659127264E+02  0.00000000000E+00 0.  1.
         11    1    3    3    0    0 -0.56240810608E+01  0.71314963103E+01 -0.36592248650E+02  0.37702535576E+02  0.51100000000E-03 0. -1.
        -11    1    3    3    0    0 -0.42019072471E+01 -0.35877725266E+01 -0.55621896485E+01  0.78400312603E+01  0.51100000000E-03 0.  1.
        -12    1    3    3    0    0  0.58887847970E+00  0.37479379950E+01  0.32356497711E+01  0.49863058991E+01  0.00000000000E+00 0.  1.
</event>
<event>
 7    1  0.5441610E-013  0.5052886E+02  0.7816164E-02  0.1300439E+00
        -11   -1    0    0    0    0  0.00000000000E+00  0.00000000000E+00  0.45593999997E+02  0.45594000000E+02  0.51100000000E-03 0.  1.
         11   -1    0    0    0    0 -0.00000000000E+00 -0.00000000000E+00 -0.45593999997E+02  0.45594000000E+02  0.51100000000E-03 0. -1.
    9900012    2    1    2    0    0 -0.40331796323E+02 -0.47255422516E+01 -0.20447579730E+01  0.50528861060E+02  0.30000003677E+02 0.  0.
        -12    1    1    2    0    0  0.40331796323E+02  0.47255422516E+01  0.20447579730E+01  0.40659138940E+02  0.00000000000E+00 0.  1.
         11    1    3    3    0    0  0.28506342211E+01  0.32850313047E+01 -0.27565744699E+01  0.51493930909E+01  0.51100000000E-03 0. -1.
        -11    1    3    3    0    0 -0.43062562818E+01 -0.33826132030E+01  0.28446736396E+01  0.61707441709E+01  0.51100000000E-03 0.  1.
         12    1    3    3    0    0 -0.38876174262E+02 -0.46279603533E+01 -0.21328571427E+01  0.39208723798E+02  0.00000000000E+00 0. -1.
</event>
<event>
 7    1  0.5441610E-013  0.5052886E+02  0.7816164E-02  0.1300439E+00
        -11   -1    0    0    0    0  0.00000000000E+00  0.00000000000E+00  0.45593999997E+02  0.45594000000E+02  0.51100000000E-03 0. -1.
         11   -1    0    0    0    0 -0.00000000000E+00 -0.00000000000E+00 -0.45593999997E+02  0.45594000000E+02  0.51100000000E-03 0.  1.
    9900012    2    1    2    0    0 -0.37051426544E+02 -0.15580296107E+02  0.61328597560E+01  0.50528858291E+02  0.29999995261E+02 0.  0.
        -12    1    1    2    0    0  0.37051426544E+02  0.15580296107E+02 -0.61328597560E+01  0.40659141709E+02  0.00000000000E+00 0.  1.
         11    1    3    3    0    0 -0.26631782185E+02 -0.45254731718E+01  0.12178348009E+02  0.29631805383E+02  0.51100000000E-03 0. -1.
        -11    1    3    3    0    0  0.41335562342E+00  0.15257636820E+01  0.19167445217E+01  0.24844974355E+01  0.51100000000E-03 0.  1.
         12    1    3    3    0    0 -0.10832999983E+02 -0.12580586618E+02 -0.79622327745E+01  0.18412555472E+02  0.00000000000E+00 0. -1.
</event>
<event>
 7    1  0.5441610E-013  0.5052886E+02  0.7816164E-02  0.1300439E+00
        -11   -1    0    0    0    0  0.00000000000E+00  0.00000000000E+00  0.45593999997E+02  0.45594000000E+02  0.51100000000E-03 0.  1.
         11   -1    0    0    0    0 -0.00000000000E+00 -0.00000000000E+00 -0.45593999997E+02  0.45594000000E+02  0.51100000000E-03 0. -1.
    9900012    2    1    2    0    0 -0.14219673484E+02 -0.25213079884E+01 -0.38008014641E+02  0.50528864680E+02  0.30000014683E+02 0.  0.
        -12    1    1    2    0    0  0.14219673484E+02  0.25213079884E+01  0.38008014641E+02  0.40659135320E+02  0.00000000000E+00 0.  1.
         11    1    3    3    0    0 -0.55077740705E+01  0.72188046076E+01 -0.71193201562E+01  0.11538259614E+02  0.51100000000E-03 0. -1.
        -11    1    3    3    0    0  0.60168382680E+01  0.15646081828E+00 -0.69862909726E+01  0.92214469877E+01  0.51100000000E-03 0.  1.
         12    1    3    3    0    0 -0.14728737681E+02 -0.98965734144E+01 -0.23902403513E+02  0.29769158079E+02  0.00000000000E+00 0. -1.
</event>
<event>
 7    1  0.5441610E-013  0.5052886E+02  0.7816164E-02  0.1300439E+00
        -11   -1    0    0    0    0  0.00000000000E+00  0.00000000000E+00  0.45593999997E+02  0.45594000000E+02  0.51100000000E-03 0.  1.
         11   -1    0    0    0    0 -0.00000000000E+00 -0.00000000000E+00 -0.45593999997E+02  0.45594000000E+02  0.51100000000E-03 0. -1.
    9900012    2    1    2    0    0  0.74147322343E+01 -0.37125780995E+02 -0.14827799818E+02  0.50528861838E+02  0.30000006043E+02 0.  0.
        -12    1    1    2    0    0 -0.74147322343E+01  0.37125780995E+02  0.14827799818E+02  0.40659138162E+02  0.00000000000E+00 0.  1.
         11    1    3    3    0    0  0.53617865656E-01 -0.90126995180E+01 -0.13823745996E+02  0.16502350775E+02  0.51100000000E-03 0. -1.
        -11    1    3    3    0    0  0.61597014955E+01 -0.15050564190E+01 -0.35550549737E+01  0.72694933431E+01  0.51100000000E-03 0.  1.
         12    1    3    3    0    0  0.12014128731E+01 -0.26608025058E+02  0.25510011516E+01  0.26757017720E+02  0.00000000000E+00 0. -1.
</event>
<event>
 7    1  0.5441610E-013  0.5052886E+02  0.7816164E-02  0.1300439E+00
        -11   -1    0    0    0    0  0.00000000000E+00  0.00000000000E+00  0.45593999997E+02  0.45594000000E+02  0.51100000000E-03 0. -1.
         11   -1    0    0    0    0 -0.00000000000E+00 -0.00000000000E+00 -0.45593999997E+02  0.45594000000E+02  0.51100000000E-03 0.  1.
    9900012    2    1    2    0    0 -0.22910403637E+02  0.91288965400E+01  0.32325570705E+02  0.50528857507E+02  0.29999992878E+02 0.  0.
        -12    1    1    2    0    0  0.22910403637E+02 -0.91288965400E+01 -0.32325570705E+02  0.40659142493E+02  0.00000000000E+00 0.  1.
         11    1    3    3    0    0 -0.13513647193E+02  0.13031922501E+02  0.14742981212E+02  0.23870591945E+02  0.51100000000E-03 0. -1.
        -11    1    3    3    0    0 -0.66798047825E+01  0.49665143852E+00  0.19896087856E+02  0.20993350538E+02  0.51100000000E-03 0.  1.
        -12    1    3    3    0    0 -0.27169516610E+01 -0.43996773993E+01 -0.23134983631E+01  0.56649150234E+01  0.00000000000E+00 0.  1.
</event>
<event>
 7    1  0.5441610E-013  0.5052890E+02  0.7816164E-02  0.1300439E+00
        -11   -1    0    0    0    0  0.00000000000E+00  0.00000000000E+00  0.45593999997E+02  0.45594000000E+02  0.51100000000E-03 0.  1.
         11   -1    0    0    0    0 -0.00000000000E+00 -0.00000000000E+00 -0.45593999997E+02  0.45594000000E+02  0.51100000000E-03 0. -1.
    9900012    2    1    2    0    0 -0.45342507237E+01 -0.22635112030E+01 -0.40342031815E+02  0.50528899622E+02  0.30000120891E+02 0.  0.
        -12    1    1    2    0    0  0.45342507237E+01  0.22635112030E+01  0.40342031815E+02  0.40659100378E+02  0.00000000000E+00 0.  1.
         11    1    3    3    0    0  0.41364207212E+01 -0.44697232606E+01 -0.66770826712E+01  0.90372471288E+01  0.51100000000E-03 0.  1.
        -11    1    3    3    0    0  0.42551196860E+01  0.63922052959E+01 -0.35625675986E+01  0.84651178517E+01  0.51100000000E-03 0. -1.
         12    1    3    3    0    0 -0.12925791131E+02 -0.41859932383E+01 -0.30102381545E+02  0.33026534642E+02  0.00000000000E+00 0. -1.
</event>
<event>
 7    1  0.5441610E-013  0.5052889E+02  0.7816164E-02  0.1300439E+00
        -11   -1    0    0    0    0  0.00000000000E+00  0.00000000000E+00  0.45593999997E+02  0.45594000000E+02  0.51100000000E-03 0.  1.
         11   -1    0    0    0    0 -0.00000000000E+00 -0.00000000000E+00 -0.45593999997E+02  0.45594000000E+02  0.51100000000E-03 0. -1.
    9900012    2    1    2    0    0  0.26680604329E+02  0.29863015075E+02 -0.70362819651E+01  0.50528885639E+02  0.30000078388E+02 0.  0.
        -12    1    1    2    0    0 -0.26680604329E+02 -0.29863015075E+02  0.70362819651E+01  0.40659114361E+02  0.00000000000E+00 0.  1.
         11    1    3    3    0    0  0.78216103850E+01  0.51332060205E+01 -0.37957180124E+01  0.10096279936E+02  0.51100000000E-03 0. -1.
        -11    1    3    3    0    0  0.11035857817E+02  0.13813936379E+02 -0.14532221175E+02  0.22886687147E+02  0.51100000000E-03 0.  1.
        -12    1    3    3    0    0  0.78231361268E+01  0.10915872675E+02  0.11291657222E+02  0.17545918555E+02  0.00000000000E+00 0.  1.
</event>
<event>
 7    1  0.5441610E-013  0.5052887E+02  0.7816164E-02  0.1300439E+00
        -11   -1    0    0    0    0  0.00000000000E+00  0.00000000000E+00  0.45593999997E+02  0.45594000000E+02  0.51100000000E-03 0.  1.
         11   -1    0    0    0    0 -0.00000000000E+00 -0.00000000000E+00 -0.45593999997E+02  0.45594000000E+02  0.51100000000E-03 0. -1.
    9900012    2    1    2    0    0  0.12095530944E+02  0.30226586543E+02 -0.24356037173E+02  0.50528868803E+02  0.30000027215E+02 0.  0.
        -12    1    1    2    0    0 -0.12095530944E+02 -0.30226586543E+02  0.24356037173E+02  0.40659131197E+02  0.00000000000E+00 0.  1.
         11    1    3    3    0    0  0.49586703653E+01  0.12692824384E+02  0.15172010143E+01  0.13711239981E+02  0.51100000000E-03 0. -1.
        -11    1    3    3    0    0  0.66310126937E+01  0.21248538593E+02 -0.20466129977E+02  0.30237943022E+02  0.51100000000E-03 0.  1.
        -12    1    3    3    0    0  0.50584788455E+00 -0.37147764338E+01 -0.54071082108E+01  0.65796858009E+01  0.00000000000E+00 0.  1.
</event>
<event>
 7    1  0.5441610E-013  0.5052886E+02  0.7816164E-02  0.1300439E+00
        -11   -1    0    0    0    0  0.00000000000E+00  0.00000000000E+00  0.45593999997E+02  0.45594000000E+02  0.51100000000E-03 0.  1.
         11   -1    0    0    0    0 -0.00000000000E+00 -0.00000000000E+00 -0.45593999997E+02  0.45594000000E+02  0.51100000000E-03 0. -1.
    9900012    2    1    2    0    0 -0.23870469386E+02 -0.25216732089E+02 -0.21153780255E+02  0.50528864433E+02  0.30000013931E+02 0.  0.
        -12    1    1    2    0    0  0.23870469386E+02  0.25216732089E+02  0.21153780255E+02  0.40659135567E+02  0.00000000000E+00 0.  1.
         11    1    3    3    0    0 -0.89793835440E+01 -0.92210570522E+00 -0.18255137190E+02  0.20364912027E+02  0.51100000000E-03 0. -1.
        -11    1    3    3    0    0 -0.99183977424E+01 -0.16463872923E+02 -0.63861485078E+01  0.20253805036E+02  0.51100000000E-03 0.  1.
        -12    1    3    3    0    0 -0.49726880998E+01 -0.78307534608E+01  0.34875054425E+01  0.99101473709E+01  0.00000000000E+00 0.  1.
</event>
<event>
 7    1  0.5441610E-013  0.5052886E+02  0.7816164E-02  0.1300439E+00
        -11   -1    0    0    0    0  0.00000000000E+00  0.00000000000E+00  0.45593999997E+02  0.45594000000E+02  0.51100000000E-03 0.  1.
         11   -1    0    0    0    0 -0.00000000000E+00 -0.00000000000E+00 -0.45593999997E+02  0.45594000000E+02  0.51100000000E-03 0. -1.
    9900012    2    1    2    0    0 -0.84193475443E+01 -0.99579517486E+01 -0.38511294063E+02  0.50528856053E+02  0.29999988460E+02 0.  0.
        -12    1    1    2    0    0  0.84193475443E+01  0.99579517486E+01  0.38511294063E+02  0.40659143947E+02  0.00000000000E+00 0.  1.
         11    1    3    3    0    0 -0.10940964290E+02 -0.15745631749E+02 -0.27962886133E+02  0.33905053015E+02  0.51100000000E-03 0. -1.
        -11    1    3    3    0    0 -0.30442536524E+01  0.91504122903E+00  0.60927749352E+00  0.32366649620E+01  0.51100000000E-03 0.  1.
        -12    1    3    3    0    0  0.55658703976E+01  0.48726387717E+01 -0.11157685423E+02  0.13387138076E+02  0.00000000000E+00 0.  1.
</event>
<event>
 7    1  0.5441610E-013  0.5052886E+02  0.7816164E-02  0.1300439E+00
        -11   -1    0    0    0    0  0.00000000000E+00  0.00000000000E+00  0.45593999997E+02  0.45594000000E+02  0.51100000000E-03 0. -1.
         11   -1    0    0    0    0 -0.00000000000E+00 -0.00000000000E+00 -0.45593999997E+02  0.45594000000E+02  0.51100000000E-03 0.  1.
    9900012    2    1    2    0    0 -0.53311962668E+01 -0.14074408969E+02  0.37771089531E+02  0.50528857783E+02  0.29999993717E+02 0.  0.
        -12    1    1    2    0    0  0.53311962668E+01  0.14074408969E+02 -0.37771089531E+02  0.40659142217E+02  0.00000000000E+00 0.  1.
         11    1    3    3    0    0  0.22872503162E+01 -0.38345480249E+01  0.10671813116E+02  0.11568183436E+02  0.51100000000E-03 0. -1.
        -11    1    3    3    0    0  0.22296316006E+01 -0.12050637766E+02  0.26178733397E+02  0.28905279971E+02  0.51100000000E-03 0.  1.
        -12    1    3    3    0    0 -0.98480781835E+01  0.18107768225E+01  0.92054301778E+00  0.10055394376E+02  0.00000000000E+00 0.  1.
</event>
<event>
 7    1  0.5441610E-013  0.5052886E+02  0.7816164E-02  0.1300439E+00
        -11   -1    0    0    0    0  0.00000000000E+00  0.00000000000E+00  0.45593999997E+02  0.45594000000E+02  0.51100000000E-03 0.  1.
         11   -1    0    0    0    0 -0.00000000000E+00 -0.00000000000E+00 -0.45593999997E+02  0.45594000000E+02  0.51100000000E-03 0. -1.
    9900012    2    1    2    0    0 -0.13538705047E+01 -0.31678947509E+02 -0.25451464931E+02  0.50528858989E+02  0.29999997384E+02 0.  0.
        -12    1    1    2    0    0  0.13538705047E+01  0.31678947509E+02  0.25451464931E+02  0.40659141011E+02  0.00000000000E+00 0.  1.
         11    1    3    3    0    0  0.24039203858E+01 -0.16385733400E+02 -0.14453108043E+02  0.21980978701E+02  0.51100000000E-03 0. -1.
        -11    1    3    3    0    0  0.65135684445E+01  0.50877319119E+00  0.35939601174E+00  0.65432858561E+01  0.51100000000E-03 0.  1.
         12    1    3    3    0    0 -0.10271359335E+02 -0.15801987300E+02 -0.11357752900E+02  0.22004594433E+02  0.00000000000E+00 0. -1.
</event>
<event>
 7    1  0.5441610E-013  0.5052886E+02  0.7816164E-02  0.1300439E+00
        -11   -1    0    0    0    0  0.00000000000E+00  0.00000000000E+00  0.45593999997E+02  0.45594000000E+02  0.51100000000E-03 0. -1.
         11   -1    0    0    0    0 -0.00000000000E+00 -0.00000000000E+00 -0.45593999997E+02  0.45594000000E+02  0.51100000000E-03 0.  1.
    9900012    2    1    2    0    0 -0.38216012102E+02  0.13699591248E+02  0.22412858557E+01  0.50528859040E+02  0.29999997537E+02 0.  0.
        -12    1    1    2    0    0  0.38216012102E+02 -0.13699591248E+02 -0.22412858557E+01  0.40659140960E+02  0.00000000000E+00 0.  1.
         11    1    3    3    0    0 -0.28282997385E+02  0.91544444153E+01  0.48874459189E+01  0.30126714416E+02  0.51100000000E-03 0. -1.
        -11    1    3    3    0    0 -0.35480728147E+01  0.10207227783E+02  0.15077927008E+01  0.10910992567E+02  0.51100000000E-03 0.  1.
         12    1    3    3    0    0 -0.63849419023E+01 -0.56620809508E+01 -0.41539527640E+01  0.94911520562E+01  0.00000000000E+00 0. -1.
</event>
<event>
 7    1  0.5441610E-013  0.5052889E+02  0.7816164E-02  0.1300439E+00
        -11   -1    0    0    0    0  0.00000000000E+00  0.00000000000E+00  0.45593999997E+02  0.45594000000E+02  0.51100000000E-03 0.  1.
         11   -1    0    0    0    0 -0.00000000000E+00 -0.00000000000E+00 -0.45593999997E+02  0.45594000000E+02  0.51100000000E-03 0. -1.
    9900012    2    1    2    0    0 -0.49264240100E+00  0.16533263284E+02 -0.37142590676E+02  0.50528886219E+02  0.30000080150E+02 0.  0.
        -12    1    1    2    0    0  0.49264240100E+00 -0.16533263284E+02  0.37142590676E+02  0.40659113781E+02  0.00000000000E+00 0.  1.
         11    1    3    3    0    0  0.49614091396E+00 -0.13496995074E+01  0.97966406972E-01  0.14413334954E+01  0.51100000000E-03 0.  1.
        -11    1    3    3    0    0  0.20731146283E+01  0.76582766446E+01 -0.37580470503E+02  0.38408837120E+02  0.51100000000E-03 0. -1.
         12    1    3    3    0    0 -0.30618979432E+01  0.10224686146E+02  0.33991341965E+00  0.10678715604E+02  0.00000000000E+00 0. -1.
</event>
<event>
 7    1  0.5441610E-013  0.5052884E+02  0.7816164E-02  0.1300439E+00
        -11   -1    0    0    0    0  0.00000000000E+00  0.00000000000E+00  0.45593999997E+02  0.45594000000E+02  0.51100000000E-03 0.  1.
         11   -1    0    0    0    0 -0.00000000000E+00 -0.00000000000E+00 -0.45593999997E+02  0.45594000000E+02  0.51100000000E-03 0. -1.
    9900012    2    1    2    0    0 -0.17118082644E+02  0.14017872251E+02 -0.34112131044E+02  0.50528843833E+02  0.29999951314E+02 0.  0.
        -12    1    1    2    0    0  0.17118082644E+02 -0.14017872251E+02  0.34112131044E+02  0.40659156167E+02  0.00000000000E+00 0.  1.
         11    1    3    3    0    0 -0.12481920492E+02 -0.61522200472E+00 -0.10319504537E+02  0.16207066713E+02  0.51100000000E-03 0. -1.
        -11    1    3    3    0    0 -0.35429641785E+01  0.62709512346E+01 -0.24803504011E+02  0.25828109417E+02  0.51100000000E-03 0.  1.
        -12    1    3    3    0    0 -0.10931979730E+01  0.83621430213E+01  0.10108775039E+01  0.84936677027E+01  0.00000000000E+00 0.  1.
</event>
<event>
 7    1  0.5441610E-013  0.5052888E+02  0.7816164E-02  0.1300439E+00
        -11   -1    0    0    0    0  0.00000000000E+00  0.00000000000E+00  0.45593999997E+02  0.45594000000E+02  0.51100000000E-03 0. -1.
         11   -1    0    0    0    0 -0.00000000000E+00 -0.00000000000E+00 -0.45593999997E+02  0.45594000000E+02  0.51100000000E-03 0.  1.
    9900012    2    1    2    0    0 -0.36134904650E+02  0.28329807317E+01  0.18423004239E+02  0.50528878034E+02  0.30000055271E+02 0.  0.
        -12    1    1    2    0    0  0.36134904650E+02 -0.28329807317E+01 -0.18423004239E+02  0.40659121966E+02  0.00000000000E+00 0.  1.
         11    1    3    3    0    0 -0.16406719709E+02 -0.61359857881E+01  0.11068191422E+02  0.20720415894E+02  0.51100000000E-03 0. -1.
        -11    1    3    3    0    0 -0.14237982410E+02  0.61751123104E+01  0.13890051109E+02  0.20827522061E+02  0.51100000000E-03 0.  1.
         12    1    3    3    0    0 -0.54902025314E+01  0.27938542094E+01 -0.65352382910E+01  0.89809400788E+01  0.00000000000E+00 0. -1.
</event>
<event>
 7    1  0.5441610E-013  0.5052887E+02  0.7816164E-02  0.1300439E+00
        -11   -1    0    0    0    0  0.00000000000E+00  0.00000000000E+00  0.45593999997E+02  0.45594000000E+02  0.51100000000E-03 0. -1.
         11   -1    0    0    0    0 -0.00000000000E+00 -0.00000000000E+00 -0.45593999997E+02  0.45594000000E+02  0.51100000000E-03 0.  1.
    9900012    2    1    2    0    0  0.94130476383E+01 -0.37190740748E+02  0.13468795390E+02  0.50528866801E+02  0.30000021129E+02 0.  0.
        -12    1    1    2    0    0 -0.94130476383E+01  0.37190740748E+02 -0.13468795390E+02  0.40659133199E+02  0.00000000000E+00 0.  1.
         11    1    3    3    0    0 -0.36557047444E+00 -0.37293125249E+01 -0.39548411312E+01  0.54481356732E+01  0.51100000000E-03 0.  1.
        -11    1    3    3    0    0  0.54626981272E+01 -0.42933571917E+00 -0.27548813715E+01  0.61330882612E+01  0.51100000000E-03 0. -1.
         12    1    3    3    0    0  0.43159199856E+01 -0.33032092504E+02  0.20178517893E+02  0.38947642867E+02  0.00000000000E+00 0. -1.
</event>
<event>
 7    1  0.5441610E-013  0.5052886E+02  0.7816164E-02  0.1300439E+00
        -11   -1    0    0    0    0  0.00000000000E+00  0.00000000000E+00  0.45593999997E+02  0.45594000000E+02  0.51100000000E-03 0. -1.
         11   -1    0    0    0    0 -0.00000000000E+00 -0.00000000000E+00 -0.45593999997E+02  0.45594000000E+02  0.51100000000E-03 0.  1.
    9900012    2    1    2    0    0  0.26439043257E+02  0.24356332519E+02  0.18997682040E+02  0.50528857547E+02  0.29999992999E+02 0.  0.
        -12    1    1    2    0    0 -0.26439043257E+02 -0.24356332519E+02 -0.18997682040E+02  0.40659142453E+02  0.00000000000E+00 0.  1.
         11    1    3    3    0    0  0.13939313509E+02  0.24003931733E+02  0.19186365410E+02  0.33743292929E+02  0.51100000000E-03 0. -1.
        -11    1    3    3    0    0  0.12182153324E+02  0.42258349448E+01 -0.29544114791E+00  0.12897667476E+02  0.51100000000E-03 0.  1.
        -12    1    3    3    0    0  0.31757642433E+00 -0.38734341585E+01  0.10675777731E+00  0.38878971422E+01  0.00000000000E+00 0.  1.
</event>
<event>
 7    1  0.5441610E-013  0.5052886E+02  0.7816164E-02  0.1300439E+00
        -11   -1    0    0    0    0  0.00000000000E+00  0.00000000000E+00  0.45593999997E+02  0.45594000000E+02  0.51100000000E-03 0. -1.
         11   -1    0    0    0    0 -0.00000000000E+00 -0.00000000000E+00 -0.45593999997E+02  0.45594000000E+02  0.51100000000E-03 0.  1.
    9900012    2    1    2    0    0  0.46261316604E+01 -0.37681826956E+02  0.14554886378E+02  0.50528857187E+02  0.29999991904E+02 0.  0.
        -12    1    1    2    0    0 -0.46261316604E+01  0.37681826956E+02 -0.14554886378E+02  0.40659142813E+02  0.00000000000E+00 0.  1.
         11    1    3    3    0    0 -0.72603534139E+01 -0.32089734678E+01  0.38880144193E+01  0.88389421763E+01  0.51100000000E-03 0. -1.
        -11    1    3    3    0    0  0.10375234338E+01 -0.27874238767E+01 -0.41184893422E+01  0.50801714014E+01  0.51100000000E-03 0.  1.
         12    1    3    3    0    0  0.10848961641E+02 -0.31685429611E+02  0.14785361301E+02  0.36609743609E+02  0.00000000000E+00 0. -1.
</event>
<event>
 7    1  0.5441610E-013  0.5052886E+02  0.7816164E-02  0.1300439E+00
        -11   -1    0    0    0    0  0.00000000000E+00  0.00000000000E+00  0.45593999997E+02  0.45594000000E+02  0.51100000000E-03 0. -1.
         11   -1    0    0    0    0 -0.00000000000E+00 -0.00000000000E+00 -0.45593999997E+02  0.45594000000E+02  0.51100000000E-03 0.  1.
    9900012    2    1    2    0    0 -0.30427139818E+02 -0.23137469208E+02  0.13856844338E+02  0.50528862603E+02  0.30000008367E+02 0.  0.
        -12    1    1    2    0    0  0.30427139818E+02  0.23137469208E+02 -0.13856844338E+02  0.40659137397E+02  0.00000000000E+00 0.  1.
         11    1    3    3    0    0 -0.23928468798E+02 -0.16890136681E+02  0.15225673431E+02  0.33010141893E+02  0.51100000000E-03 0. -1.
        -11    1    3    3    0    0 -0.18861002111E+01 -0.11451530637E+01  0.66193427029E+01  0.69774241397E+01  0.51100000000E-03 0.  1.
        -12    1    3    3    0    0 -0.46125708090E+01 -0.51021794640E+01 -0.79881717952E+01  0.10541296570E+02  0.00000000000E+00 0.  1.
</event>
<event>
 7    1  0.5441610E-013  0.5052886E+02  0.7816164E-02  0.1300439E+00
        -11   -1    0    0    0    0  0.00000000000E+00  0.00000000000E+00  0.45593999997E+02  0.45594000000E+02  0.51100000000E-03 0.  1.
         11   -1    0    0    0    0 -0.00000000000E+00 -0.00000000000E+00 -0.45593999997E+02  0.45594000000E+02  0.51100000000E-03 0. -1.
    9900012    2    1    2    0    0 -0.11946263846E+02  0.88541657766E+01 -0.37842520914E+02  0.50528857601E+02  0.29999993164E+02 0.  0.
        -12    1    1    2    0    0  0.11946263846E+02 -0.88541657766E+01  0.37842520914E+02  0.40659142399E+02  0.00000000000E+00 0.  1.
         11    1    3    3    0    0  0.72581901005E+00  0.60928459942E+01  0.10014677461E+01  0.62171153642E+01  0.51100000000E-03 0. -1.
        -11    1    3    3    0    0 -0.51359100721E+01  0.90596871240E+01 -0.12952174640E+02  0.16619697085E+02  0.51100000000E-03 0.  1.
         12    1    3    3    0    0 -0.75361727843E+01 -0.62983673416E+01 -0.25891814020E+02  0.27692045151E+02  0.00000000000E+00 0. -1.
</event>
<event>
 7    1  0.5441610E-013  0.5052886E+02  0.7816164E-02  0.1300439E+00
        -11   -1    0    0    0    0  0.00000000000E+00  0.00000000000E+00  0.45593999997E+02  0.45594000000E+02  0.51100000000E-03 0.  1.
         11   -1    0    0    0    0 -0.00000000000E+00 -0.00000000000E+00 -0.45593999997E+02  0.45594000000E+02  0.51100000000E-03 0. -1.
    9900012    2    1    2    0    0  0.89503405051E+01  0.14214141585E+02 -0.37027223652E+02  0.50528859483E+02  0.29999998886E+02 0.  0.
        -12    1    1    2    0    0 -0.89503405051E+01 -0.14214141585E+02  0.37027223652E+02  0.40659140517E+02  0.00000000000E+00 0.  1.
         11    1    3    3    0    0 -0.54278418443E+01 -0.22397223753E+01 -0.75969994805E+01  0.96016782269E+01  0.51100000000E-03 0. -1.
        -11    1    3    3    0    0  0.90119687718E+01  0.17117159662E+02 -0.12204446474E+02  0.22872718466E+02  0.51100000000E-03 0.  1.
         12    1    3    3    0    0  0.53662135775E+01 -0.66329570186E+00 -0.17225777698E+02  0.18054462790E+02  0.00000000000E+00 0. -1.
</event>
<event>
 7    1  0.5441610E-013  0.5052884E+02  0.7816164E-02  0.1300439E+00
        -11   -1    0    0    0    0  0.00000000000E+00  0.00000000000E+00  0.45593999997E+02  0.45594000000E+02  0.51100000000E-03 0.  1.
         11   -1    0    0    0    0 -0.00000000000E+00 -0.00000000000E+00 -0.45593999997E+02  0.45594000000E+02  0.51100000000E-03 0. -1.
    9900012    2    1    2    0    0 -0.14016013974E+02  0.38105341371E+02 -0.21683220531E+01  0.50528839787E+02  0.29999939017E+02 0.  0.
        -12    1    1    2    0    0  0.14016013974E+02 -0.38105341371E+02  0.21683220531E+01  0.40659160213E+02  0.00000000000E+00 0.  1.
         11    1    3    3    0    0 -0.48227359335E+01  0.87113278756E+01 -0.62866442289E+01  0.11775733997E+02  0.51100000000E-03 0. -1.
        -11    1    3    3    0    0 -0.40560606486E+01  0.90953304545E+01 -0.95098358733E+01  0.13770026967E+02  0.51100000000E-03 0.  1.
         12    1    3    3    0    0 -0.51372173921E+01  0.20298683040E+02  0.13628158049E+02  0.24983078824E+02  0.00000000000E+00 0. -1.
</event>
<event>
 7    1  0.5441610E-013  0.5052894E+02  0.7816164E-02  0.1300439E+00
        -11   -1    0    0    0    0  0.00000000000E+00  0.00000000000E+00  0.45593999997E+02  0.45594000000E+02  0.51100000000E-03 0. -1.
         11   -1    0    0    0    0 -0.00000000000E+00 -0.00000000000E+00 -0.45593999997E+02  0.45594000000E+02  0.51100000000E-03 0.  1.
    9900012    2    1    2    0    0  0.31164681165E+02  0.27252905022E+01  0.25971031449E+02  0.50528941538E+02  0.30000248299E+02 0.  0.
        -12    1    1    2    0    0 -0.31164681165E+02 -0.27252905022E+01 -0.25971031449E+02  0.40659058462E+02  0.00000000000E+00 0.  1.
         11    1    3    3    0    0  0.16693597843E+02  0.13195898874E+02  0.10650063670E+02  0.23795625911E+02  0.51100000000E-03 0. -1.
        -11    1    3    3    0    0 -0.23206546646E+01 -0.13456037447E+01  0.28466990516E+01  0.39114937379E+01  0.51100000000E-03 0.  1.
         12    1    3    3    0    0  0.16791737987E+02 -0.91250046275E+01  0.12474268728E+02  0.22821821890E+02  0.00000000000E+00 0. -1.
</event>
<event>
 7    1  0.5441610E-013  0.5052887E+02  0.7816164E-02  0.1300439E+00
        -11   -1    0    0    0    0  0.00000000000E+00  0.00000000000E+00  0.45593999997E+02  0.45594000000E+02  0.51100000000E-03 0.  1.
         11   -1    0    0    0    0 -0.00000000000E+00 -0.00000000000E+00 -0.45593999997E+02  0.45594000000E+02  0.51100000000E-03 0. -1.
    9900012    2    1    2    0    0  0.17303492225E+02 -0.34083320827E+02 -0.13859341547E+02  0.50528868800E+02  0.30000027205E+02 0.  0.
        -12    1    1    2    0    0 -0.17303492225E+02  0.34083320827E+02  0.13859341547E+02  0.40659131200E+02  0.00000000000E+00 0.  1.
         11    1    3    3    0    0  0.80755226969E+01 -0.24522112733E+02 -0.86852786913E+01  0.27239349220E+02  0.51100000000E-03 0. -1.
        -11    1    3    3    0    0 -0.51596689188E+00 -0.10490313805E+02  0.25648220026E+01  0.10811624195E+02  0.51100000000E-03 0.  1.
         12    1    3    3    0    0  0.97439364201E+01  0.92910571166E+00 -0.77388848587E+01  0.12477895385E+02  0.00000000000E+00 0. -1.
</event>
<event>
 7    1  0.5441610E-013  0.5052886E+02  0.7816164E-02  0.1300439E+00
        -11   -1    0    0    0    0  0.00000000000E+00  0.00000000000E+00  0.45593999997E+02  0.45594000000E+02  0.51100000000E-03 0.  1.
         11   -1    0    0    0    0 -0.00000000000E+00 -0.00000000000E+00 -0.45593999997E+02  0.45594000000E+02  0.51100000000E-03 0. -1.
    9900012    2    1    2    0    0 -0.81457222570E+01  0.24555106750E+02 -0.31366539786E+02  0.50528857402E+02  0.29999992560E+02 0.  0.
        -12    1    1    2    0    0  0.81457222570E+01 -0.24555106750E+02  0.31366539786E+02  0.40659142598E+02  0.00000000000E+00 0.  1.
         11    1    3    3    0    0  0.23884318741E+01  0.96391676942E+01  0.10873691233E+01  0.99900216479E+01  0.51100000000E-03 0. -1.
        -11    1    3    3    0    0  0.39870098277E+01  0.35359654051E+01 -0.11141654030E+02  0.12350536567E+02  0.51100000000E-03 0.  1.
         12    1    3    3    0    0 -0.14521163959E+02  0.11379973651E+02 -0.21312254880E+02  0.28188299187E+02  0.00000000000E+00 0. -1.
</event>
<event>
 7    1  0.5441610E-013  0.5052885E+02  0.7816164E-02  0.1300439E+00
        -11   -1    0    0    0    0  0.00000000000E+00  0.00000000000E+00  0.45593999997E+02  0.45594000000E+02  0.51100000000E-03 0.  1.
         11   -1    0    0    0    0 -0.00000000000E+00 -0.00000000000E+00 -0.45593999997E+02  0.45594000000E+02  0.51100000000E-03 0. -1.
    9900012    2    1    2    0    0 -0.15392119469E+02 -0.28564367103E+02 -0.24501544243E+02  0.50528854903E+02  0.29999984963E+02 0.  0.
        -12    1    1    2    0    0  0.15392119469E+02  0.28564367103E+02  0.24501544243E+02  0.40659145097E+02  0.00000000000E+00 0.  1.
         11    1    3    3    0    0  0.42728007518E+01 -0.41589395014E+01 -0.61918355252E+01  0.85960706997E+01  0.51100000000E-03 0. -1.
        -11    1    3    3    0    0 -0.38382254467E+01 -0.18751359931E+02 -0.33464011588E+01  0.19430488280E+02  0.51100000000E-03 0.  1.
         12    1    3    3    0    0 -0.15826694774E+02 -0.56540676707E+01 -0.14963307559E+02  0.22502295923E+02  0.00000000000E+00 0. -1.
</event>
<event>
 7    1  0.5441610E-013  0.5052884E+02  0.7816164E-02  0.1300439E+00
        -11   -1    0    0    0    0  0.00000000000E+00  0.00000000000E+00  0.45593999997E+02  0.45594000000E+02  0.51100000000E-03 0. -1.
         11   -1    0    0    0    0 -0.00000000000E+00 -0.00000000000E+00 -0.45593999997E+02  0.45594000000E+02  0.51100000000E-03 0.  1.
    9900012    2    1    2    0    0 -0.31366029196E+02  0.16800638466E+02  0.19674301632E+02  0.50528838854E+02  0.29999936181E+02 0.  0.
        -12    1    1    2    0    0  0.31366029196E+02 -0.16800638466E+02 -0.19674301632E+02  0.40659161146E+02  0.00000000000E+00 0.  1.
         11    1    3    3    0    0 -0.65081529296E+01  0.66399269192E+01  0.67267893102E+01  0.11475817127E+02  0.51100000000E-03 0. -1.
        -11    1    3    3    0    0  0.43539362710E+00 -0.36273761628E+01  0.93295920908E+01  0.10019416863E+02  0.51100000000E-03 0.  1.
         12    1    3    3    0    0 -0.25293269893E+02  0.13788087710E+02  0.36179202308E+01  0.29033604864E+02  0.00000000000E+00 0. -1.
</event>
<event>
 7    1  0.5441610E-013  0.5052886E+02  0.7816164E-02  0.1300439E+00
        -11   -1    0    0    0    0  0.00000000000E+00  0.00000000000E+00  0.45593999997E+02  0.45594000000E+02  0.51100000000E-03 0.  1.
         11   -1    0    0    0    0 -0.00000000000E+00 -0.00000000000E+00 -0.45593999997E+02  0.45594000000E+02  0.51100000000E-03 0. -1.
    9900012    2    1    2    0    0 -0.62571100205E+01 -0.36414643336E+02  0.16970203429E+02  0.50528862287E+02  0.30000007409E+02 0.  0.
        -12    1    1    2    0    0  0.62571100205E+01  0.36414643336E+02 -0.16970203429E+02  0.40659137713E+02  0.00000000000E+00 0.  1.
         11    1    3    3    0    0 -0.36016766300E+01  0.30929234103E+01 -0.10513029044E+01  0.48624569743E+01  0.51100000000E-03 0. -1.
        -11    1    3    3    0    0  0.48466286991E+01 -0.12779407826E+02  0.26105661214E+01  0.13914673186E+02  0.51100000000E-03 0.  1.
        -12    1    3    3    0    0 -0.75020620896E+01 -0.26728158920E+02  0.15410940212E+02  0.31751732127E+02  0.00000000000E+00 0.  1.
</event>
<event>
 7    1  0.5441610E-013  0.5052885E+02  0.7816164E-02  0.1300439E+00
        -11   -1    0    0    0    0  0.00000000000E+00  0.00000000000E+00  0.45593999997E+02  0.45594000000E+02  0.51100000000E-03 0.  1.
         11   -1    0    0    0    0 -0.00000000000E+00 -0.00000000000E+00 -0.45593999997E+02  0.45594000000E+02  0.51100000000E-03 0. -1.
    9900012    2    1    2    0    0 -0.36097248840E+02  0.62197352109E+01 -0.17648506702E+02  0.50528852582E+02  0.29999977908E+02 0.  0.
        -12    1    1    2    0    0  0.36097248840E+02 -0.62197352109E+01  0.17648506702E+02  0.40659147418E+02  0.00000000000E+00 0.  1.
         11    1    3    3    0    0 -0.18990463524E+02 -0.11179264623E+01  0.17724969780E+01  0.19105737626E+02  0.51100000000E-03 0. -1.
        -11    1    3    3    0    0 -0.12542831031E+02  0.74786286567E+01 -0.37170644574E+01  0.15068811011E+02  0.51100000000E-03 0.  1.
         12    1    3    3    0    0 -0.45639542858E+01 -0.14096698348E+00 -0.15703939223E+02  0.16354303945E+02  0.00000000000E+00 0. -1.
</event>
<event>
 7    1  0.5441610E-013  0.5052884E+02  0.7816164E-02  0.1300439E+00
        -11   -1    0    0    0    0  0.00000000000E+00  0.00000000000E+00  0.45593999997E+02  0.45594000000E+02  0.51100000000E-03 0.  1.
         11   -1    0    0    0    0 -0.00000000000E+00 -0.00000000000E+00 -0.45593999997E+02  0.45594000000E+02  0.51100000000E-03 0. -1.
    9900012    2    1    2    0    0 -0.16543412620E+01  0.32949115975E+02 -0.23765226258E+02  0.50528842757E+02  0.29999948045E+02 0.  0.
        -12    1    1    2    0    0  0.16543412620E+01 -0.32949115975E+02  0.23765226258E+02  0.40659157243E+02  0.00000000000E+00 0.  1.
         11    1    3    3    0    0  0.80986479781E+00  0.18723998167E+02 -0.64858488810E+01  0.19832050432E+02  0.51100000000E-03 0. -1.
        -11    1    3    3    0    0 -0.58962897268E+01  0.44601189276E+01  0.29604663209E+01  0.79638718277E+01  0.51100000000E-03 0.  1.
        -12    1    3    3    0    0  0.34320836670E+01  0.97649988804E+01 -0.20239843698E+02  0.22732920498E+02  0.00000000000E+00 0.  1.
</event>
<event>
 7    1  0.5441610E-013  0.5052886E+02  0.7816164E-02  0.1300439E+00
        -11   -1    0    0    0    0  0.00000000000E+00  0.00000000000E+00  0.45593999997E+02  0.45594000000E+02  0.51100000000E-03 0.  1.
         11   -1    0    0    0    0 -0.00000000000E+00 -0.00000000000E+00 -0.45593999997E+02  0.45594000000E+02  0.51100000000E-03 0. -1.
    9900012    2    1    2    0    0  0.82468881593E+01 -0.13952265731E+02 -0.37289259498E+02  0.50528858872E+02  0.29999997027E+02 0.  0.
        -12    1    1    2    0    0 -0.82468881593E+01  0.13952265731E+02  0.37289259498E+02  0.40659141128E+02  0.00000000000E+00 0.  1.
         11    1    3    3    0    0 -0.77632098617E+01 -0.41198584797E+01 -0.20484623836E+02  0.22290367319E+02  0.51100000000E-03 0. -1.
        -11    1    3    3    0    0  0.82858984561E+01  0.15587853188E+00 -0.12302211902E+02  0.14833233945E+02  0.51100000000E-03 0.  1.
         12    1    3    3    0    0  0.77241995649E+01 -0.99882857834E+01 -0.45024237603E+01  0.13405257608E+02  0.00000000000E+00 0. -1.
</event>
<event>
 7    1  0.5441610E-013  0.5052884E+02  0.7816164E-02  0.1300439E+00
        -11   -1    0    0    0    0  0.00000000000E+00  0.00000000000E+00  0.45593999997E+02  0.45594000000E+02  0.51100000000E-03 0.  1.
         11   -1    0    0    0    0 -0.00000000000E+00 -0.00000000000E+00 -0.45593999997E+02  0.45594000000E+02  0.51100000000E-03 0. -1.
    9900012    2    1    2    0    0 -0.29401918388E+02 -0.24342365999E+02 -0.14005123680E+02  0.50528842647E+02  0.29999947711E+02 0.  0.
        -12    1    1    2    0    0  0.29401918388E+02  0.24342365999E+02  0.14005123680E+02  0.40659157353E+02  0.00000000000E+00 0.  1.
         11    1    3    3    0    0 -0.15110681574E+02 -0.15689791326E+02 -0.32508283600E+01  0.22024307816E+02  0.51100000000E-03 0. -1.
        -11    1    3    3    0    0 -0.19180967169E+02 -0.46876851561E+01 -0.60689795861E+01  0.20657115170E+02  0.51100000000E-03 0.  1.
         12    1    3    3    0    0  0.48897303547E+01 -0.39648895169E+01 -0.46853157339E+01  0.78474196618E+01  0.00000000000E+00 0. -1.
</event>
<event>
 7    1  0.5441610E-013  0.5052881E+02  0.7816164E-02  0.1300439E+00
        -11   -1    0    0    0    0  0.00000000000E+00  0.00000000000E+00  0.45593999997E+02  0.45594000000E+02  0.51100000000E-03 0. -1.
         11   -1    0    0    0    0 -0.00000000000E+00 -0.00000000000E+00 -0.45593999997E+02  0.45594000000E+02  0.51100000000E-03 0.  1.
    9900012    2    1    2    0    0 -0.28933267706E+02  0.21746870226E+02  0.18523213198E+02  0.50528809502E+02  0.29999846962E+02 0.  0.
        -12    1    1    2    0    0  0.28933267706E+02 -0.21746870226E+02 -0.18523213198E+02  0.40659190498E+02  0.00000000000E+00 0.  1.
         11    1    3    3    0    0 -0.19731620766E+02  0.81961127822E+01  0.81633777084E+01  0.22872556890E+02  0.51100000000E-03 0. -1.
        -11    1    3    3    0    0 -0.69177619151E+01 -0.39282466144E+01  0.23571214885E+01  0.82971424810E+01  0.51100000000E-03 0.  1.
         12    1    3    3    0    0 -0.22838850244E+01  0.17479004058E+02  0.80027140012E+01  0.19359110131E+02  0.00000000000E+00 0. -1.
</event>
<event>
 7    1  0.5441610E-013  0.5052886E+02  0.7816164E-02  0.1300439E+00
        -11   -1    0    0    0    0  0.00000000000E+00  0.00000000000E+00  0.45593999997E+02  0.45594000000E+02  0.51100000000E-03 0.  1.
         11   -1    0    0    0    0 -0.00000000000E+00 -0.00000000000E+00 -0.45593999997E+02  0.45594000000E+02  0.51100000000E-03 0. -1.
    9900012    2    1    2    0    0 -0.15143633831E+02 -0.27038095107E+02 -0.26320658935E+02  0.50528864257E+02  0.30000013394E+02 0.  0.
        -12    1    1    2    0    0  0.15143633831E+02  0.27038095107E+02  0.26320658935E+02  0.40659135743E+02  0.00000000000E+00 0.  1.
         11    1    3    3    0    0 -0.43270017149E+01 -0.17396433328E+02 -0.20415212781E+02  0.27168727418E+02  0.51100000000E-03 0. -1.
        -11    1    3    3    0    0 -0.95607632192E+01 -0.42933167077E+01 -0.11472361025E+02  0.15538849038E+02  0.51100000000E-03 0.  1.
        -12    1    3    3    0    0 -0.12558688967E+01 -0.53483450707E+01  0.55669148700E+01  0.78212878000E+01  0.00000000000E+00 0.  1.
</event>
<event>
 7    1  0.5441610E-013  0.5052886E+02  0.7816164E-02  0.1300439E+00
        -11   -1    0    0    0    0  0.00000000000E+00  0.00000000000E+00  0.45593999997E+02  0.45594000000E+02  0.51100000000E-03 0.  1.
         11   -1    0    0    0    0 -0.00000000000E+00 -0.00000000000E+00 -0.45593999997E+02  0.45594000000E+02  0.51100000000E-03 0. -1.
    9900012    2    1    2    0    0  0.38904601740E+02  0.44360112281E+01  0.10950787909E+02  0.50528856035E+02  0.29999988404E+02 0.  0.
        -12    1    1    2    0    0 -0.38904601740E+02 -0.44360112281E+01 -0.10950787909E+02  0.40659143965E+02  0.00000000000E+00 0.  1.
         11    1    3    3    0    0  0.20634970170E+02  0.13714728345E+02  0.27637334882E+01  0.24930583438E+02  0.51100000000E-03 0. -1.
        -11    1    3    3    0    0  0.17243333845E+02 -0.31884390805E+01  0.83451614749E+01  0.19420103660E+02  0.51100000000E-03 0.  1.
        -12    1    3    3    0    0  0.10262977252E+01 -0.60902780364E+01 -0.15810705373E+00  0.61781689376E+01  0.00000000000E+00 0.  1.
</event>
<event>
 7    1  0.5441610E-013  0.5052885E+02  0.7816164E-02  0.1300439E+00
        -11   -1    0    0    0    0  0.00000000000E+00  0.00000000000E+00  0.45593999997E+02  0.45594000000E+02  0.51100000000E-03 0.  1.
         11   -1    0    0    0    0 -0.00000000000E+00 -0.00000000000E+00 -0.45593999997E+02  0.45594000000E+02  0.51100000000E-03 0. -1.
    9900012    2    1    2    0    0  0.28167677720E+02 -0.22795537572E+00 -0.29320576244E+02  0.50528853144E+02  0.29999979616E+02 0.  0.
        -12    1    1    2    0    0 -0.28167677720E+02  0.22795537572E+00  0.29320576244E+02  0.40659146856E+02  0.00000000000E+00 0.  1.
         11    1    3    3    0    0  0.16478365754E+02 -0.10122487739E+02 -0.13163505400E+02  0.23393998603E+02  0.51100000000E-03 0. -1.
        -11    1    3    3    0    0 -0.34793026499E+01  0.40517231909E+00 -0.48009395317E+01  0.59429565189E+01  0.51100000000E-03 0.  1.
        -12    1    3    3    0    0  0.15168614616E+02  0.94893600437E+01 -0.11356131312E+02  0.21191898022E+02  0.00000000000E+00 0.  1.
</event>
<event>
 7    1  0.5441610E-013  0.5052883E+02  0.7816164E-02  0.1300439E+00
        -11   -1    0    0    0    0  0.00000000000E+00  0.00000000000E+00  0.45593999997E+02  0.45594000000E+02  0.51100000000E-03 0. -1.
         11   -1    0    0    0    0 -0.00000000000E+00 -0.00000000000E+00 -0.45593999997E+02  0.45594000000E+02  0.51100000000E-03 0.  1.
    9900012    2    1    2    0    0 -0.22410261448E+02  0.31357547485E+02  0.12948058659E+02  0.50528833439E+02  0.29999919721E+02 0.  0.
        -12    1    1    2    0    0  0.22410261448E+02 -0.31357547485E+02 -0.12948058659E+02  0.40659166561E+02  0.00000000000E+00 0.  1.
         11    1    3    3    0    0 -0.58731380574E+01  0.37424386143E+01  0.27925771072E+01  0.75032049542E+01  0.51100000000E-03 0. -1.
        -11    1    3    3    0    0 -0.20202146691E+02  0.84365853203E+01  0.82945024081E+01  0.23411567082E+02  0.51100000000E-03 0.  1.
        -12    1    3    3    0    0  0.36650233003E+01  0.19178523550E+02  0.18609791435E+01  0.19614061403E+02  0.00000000000E+00 0.  1.
</event>
<event>
 7    1  0.5441610E-013  0.5052886E+02  0.7816164E-02  0.1300439E+00
        -11   -1    0    0    0    0  0.00000000000E+00  0.00000000000E+00  0.45593999997E+02  0.45594000000E+02  0.51100000000E-03 0. -1.
         11   -1    0    0    0    0 -0.00000000000E+00 -0.00000000000E+00 -0.45593999997E+02  0.45594000000E+02  0.51100000000E-03 0.  1.
    9900012    2    1    2    0    0 -0.32681078626E+02  0.12834362127E+02  0.20503462479E+02  0.50528859269E+02  0.29999998235E+02 0.  0.
        -12    1    1    2    0    0  0.32681078626E+02 -0.12834362127E+02 -0.20503462479E+02  0.40659140731E+02  0.00000000000E+00 0.  1.
         11    1    3    3    0    0 -0.11494101955E+02  0.13116155564E+01  0.76026528103E+01  0.13843231023E+02  0.51100000000E-03 0. -1.
        -11    1    3    3    0    0 -0.17817887124E+02  0.14007898758E+02 -0.47506813213E+00  0.22669892351E+02  0.51100000000E-03 0.  1.
         12    1    3    3    0    0 -0.33690895457E+01 -0.24851521882E+01  0.13375877801E+02  0.14015735896E+02  0.00000000000E+00 0. -1.
</event>
<event>
 7    1  0.5441610E-013  0.5052887E+02  0.7816164E-02  0.1300439E+00
        -11   -1    0    0    0    0  0.00000000000E+00  0.00000000000E+00  0.45593999997E+02  0.45594000000E+02  0.51100000000E-03 0.  1.
         11   -1    0    0    0    0 -0.00000000000E+00 -0.00000000000E+00 -0.45593999997E+02  0.45594000000E+02  0.51100000000E-03 0. -1.
    9900012    2    1    2    0    0 -0.18169151467E+02  0.74843632170E+00 -0.36366010690E+02  0.50528868732E+02  0.30000026998E+02 0.  0.
        -12    1    1    2    0    0  0.18169151467E+02 -0.74843632170E+00  0.36366010690E+02  0.40659131268E+02  0.00000000000E+00 0.  1.
         11    1    3    3    0    0 -0.21568889584E+01  0.87722138384E+01 -0.14316174452E+02  0.16927987382E+02  0.51100000000E-03 0. -1.
        -11    1    3    3    0    0 -0.16417687244E+01 -0.36993656167E+01  0.25508736900E+01  0.47841057006E+01  0.51100000000E-03 0.  1.
        -12    1    3    3    0    0 -0.14370493784E+02 -0.43244119000E+01 -0.24600709928E+02  0.28816775650E+02  0.00000000000E+00 0.  1.
</event>
<event>
 7    1  0.5441610E-013  0.5052887E+02  0.7816164E-02  0.1300439E+00
        -11   -1    0    0    0    0  0.00000000000E+00  0.00000000000E+00  0.45593999997E+02  0.45594000000E+02  0.51100000000E-03 0.  1.
         11   -1    0    0    0    0 -0.00000000000E+00 -0.00000000000E+00 -0.45593999997E+02  0.45594000000E+02  0.51100000000E-03 0. -1.
    9900012    2    1    2    0    0  0.15381013637E+02 -0.71930818136E+01 -0.36943862101E+02  0.50528868757E+02  0.30000027075E+02 0.  0.
        -12    1    1    2    0    0 -0.15381013637E+02  0.71930818136E+01  0.36943862101E+02  0.40659131243E+02  0.00000000000E+00 0.  1.
         11    1    3    3    0    0 -0.30465055883E+01 -0.75839197188E+01 -0.24326674476E+02  0.25662893951E+02  0.51100000000E-03 0. -1.
        -11    1    3    3    0    0  0.18237165397E+01 -0.37193175551E+01 -0.12442725860E+01  0.43252144019E+01  0.51100000000E-03 0.  1.
        -12    1    3    3    0    0  0.16603802685E+02  0.41101554603E+01 -0.11372915039E+02  0.20540760405E+02  0.00000000000E+00 0.  1.
</event>
<event>
 7    1  0.5441610E-013  0.5052890E+02  0.7816164E-02  0.1300439E+00
        -11   -1    0    0    0    0  0.00000000000E+00  0.00000000000E+00  0.45593999997E+02  0.45594000000E+02  0.51100000000E-03 0. -1.
         11   -1    0    0    0    0 -0.00000000000E+00 -0.00000000000E+00 -0.45593999997E+02  0.45594000000E+02  0.51100000000E-03 0.  1.
    9900012    2    1    2    0    0  0.15785972001E+02  0.29176507196E+02 -0.23509505890E+02  0.50528900756E+02  0.30000124336E+02 0.  0.
        -12    1    1    2    0    0 -0.15785972001E+02 -0.29176507196E+02  0.23509505890E+02  0.40659099244E+02  0.00000000000E+00 0.  1.
         11    1    3    3    0    0  0.11692112035E+02  0.97074516401E+01 -0.76210076047E+01  0.17000584059E+02  0.51100000000E-03 0. -1.
        -11    1    3    3    0    0  0.40011975014E+01 -0.41533175340E+01 -0.44368962728E+01  0.72763779987E+01  0.51100000000E-03 0.  1.
        -12    1    3    3    0    0  0.92662464653E-01  0.23622373090E+02 -0.11451602013E+02  0.26251938698E+02  0.00000000000E+00 0.  1.
</event>
<event>
 7    1  0.5441610E-013  0.5052887E+02  0.7816164E-02  0.1300439E+00
        -11   -1    0    0    0    0  0.00000000000E+00  0.00000000000E+00  0.45593999997E+02  0.45594000000E+02  0.51100000000E-03 0. -1.
         11   -1    0    0    0    0 -0.00000000000E+00 -0.00000000000E+00 -0.45593999997E+02  0.45594000000E+02  0.51100000000E-03 0.  1.
    9900012    2    1    2    0    0  0.51946896771E+01  0.27067432989E+02  0.29892036114E+02  0.50528873687E+02  0.30000042059E+02 0.  0.
        -12    1    1    2    0    0 -0.51946896771E+01 -0.27067432989E+02 -0.29892036114E+02  0.40659126313E+02  0.00000000000E+00 0.  1.
         11    1    3    3    0    0 -0.14378350258E+01 -0.56985000238E-01  0.16364676602E+01  0.21791382507E+01  0.51100000000E-03 0. -1.
        -11    1    3    3    0    0 -0.10174542118E+02  0.46984520875E+01  0.78432072174E+01  0.13678912933E+02  0.51100000000E-03 0.  1.
         12    1    3    3    0    0  0.16807066821E+02  0.22425965902E+02  0.20412361237E+02  0.34670822503E+02  0.00000000000E+00 0. -1.
</event>
<event>
 7    1  0.5441610E-013  0.5052886E+02  0.7816164E-02  0.1300439E+00
        -11   -1    0    0    0    0  0.00000000000E+00  0.00000000000E+00  0.45593999997E+02  0.45594000000E+02  0.51100000000E-03 0. -1.
         11   -1    0    0    0    0 -0.00000000000E+00 -0.00000000000E+00 -0.45593999997E+02  0.45594000000E+02  0.51100000000E-03 0.  1.
    9900012    2    1    2    0    0 -0.28615651720E+02  0.16338004568E+02  0.23819739953E+02  0.50528856772E+02  0.29999990644E+02 0.  0.
        -12    1    1    2    0    0  0.28615651720E+02 -0.16338004568E+02 -0.23819739953E+02  0.40659143228E+02  0.00000000000E+00 0.  1.
         11    1    3    3    0    0 -0.21276006384E+02  0.65000552676E+01  0.15130640346E+02  0.26904561763E+02  0.51100000000E-03 0. -1.
        -11    1    3    3    0    0 -0.96427505177E+01  0.11294563645E+02  0.12172178749E+02  0.19201868171E+02  0.51100000000E-03 0.  1.
        -12    1    3    3    0    0  0.23031051820E+01 -0.14566143446E+01 -0.34830791420E+01  0.44224268380E+01  0.00000000000E+00 0.  1.
</event>
<event>
 7    1  0.5441610E-013  0.5052886E+02  0.7816164E-02  0.1300439E+00
        -11   -1    0    0    0    0  0.00000000000E+00  0.00000000000E+00  0.45593999997E+02  0.45594000000E+02  0.51100000000E-03 0.  1.
         11   -1    0    0    0    0 -0.00000000000E+00 -0.00000000000E+00 -0.45593999997E+02  0.45594000000E+02  0.51100000000E-03 0. -1.
    9900012    2    1    2    0    0 -0.26616866019E+02 -0.25539086418E+02 -0.17101548212E+02  0.50528862737E+02  0.30000008776E+02 0.  0.
        -12    1    1    2    0    0  0.26616866019E+02  0.25539086418E+02  0.17101548212E+02  0.40659137263E+02  0.00000000000E+00 0.  1.
         11    1    3    3    0    0 -0.62910004776E+01 -0.56127698446E+01  0.28123214107E+00  0.84355772840E+01  0.51100000000E-03 0. -1.
        -11    1    3    3    0    0  0.22137960194E+01  0.33164573336E+01  0.18917491986E+01  0.44134450662E+01  0.51100000000E-03 0.  1.
         12    1    3    3    0    0 -0.22539661560E+02 -0.23242773907E+02 -0.19274529552E+02  0.37679840387E+02  0.00000000000E+00 0. -1.
</event>
<event>
 7    1  0.5441610E-013  0.5052886E+02  0.7816164E-02  0.1300439E+00
        -11   -1    0    0    0    0  0.00000000000E+00  0.00000000000E+00  0.45593999997E+02  0.45594000000E+02  0.51100000000E-03 0. -1.
         11   -1    0    0    0    0 -0.00000000000E+00 -0.00000000000E+00 -0.45593999997E+02  0.45594000000E+02  0.51100000000E-03 0.  1.
    9900012    2    1    2    0    0 -0.23106841277E+02 -0.33080269869E+02  0.49935404537E+01  0.50528858166E+02  0.29999994883E+02 0.  0.
        -12    1    1    2    0    0  0.23106841277E+02  0.33080269869E+02 -0.49935404537E+01  0.40659141834E+02  0.00000000000E+00 0.  1.
         11    1    3    3    0    0 -0.57496206299E+01 -0.90889474123E+01  0.12582323778E+02  0.16552400864E+02  0.51100000000E-03 0. -1.
        -11    1    3    3    0    0 -0.37508811032E+01  0.16195797811E+01 -0.45340581304E+00  0.41106842265E+01  0.51100000000E-03 0.  1.
         12    1    3    3    0    0 -0.13606339544E+02 -0.25610902237E+02 -0.71353775111E+01  0.29865773076E+02  0.00000000000E+00 0. -1.
</event>
<event>
 7    1  0.5441610E-013  0.5052886E+02  0.7816164E-02  0.1300439E+00
        -11   -1    0    0    0    0  0.00000000000E+00  0.00000000000E+00  0.45593999997E+02  0.45594000000E+02  0.51100000000E-03 0.  1.
         11   -1    0    0    0    0 -0.00000000000E+00 -0.00000000000E+00 -0.45593999997E+02  0.45594000000E+02  0.51100000000E-03 0. -1.
    9900012    2    1    2    0    0  0.35429339997E+02 -0.12254752190E+02 -0.15740023255E+02  0.50528863069E+02  0.30000009785E+02 0.  0.
        -12    1    1    2    0    0 -0.35429339997E+02  0.12254752190E+02  0.15740023255E+02  0.40659136931E+02  0.00000000000E+00 0.  1.
         11    1    3    3    0    0  0.18554574063E+02 -0.13637002295E+02 -0.83500663701E+01  0.24494155607E+02  0.51100000000E-03 0. -1.
        -11    1    3    3    0    0  0.15449028418E+02 -0.35243690512E+01  0.13578158671E+01  0.15904003284E+02  0.51100000000E-03 0.  1.
         12    1    3    3    0    0  0.14257375161E+01  0.49066191563E+01 -0.87477727524E+01  0.10130704178E+02  0.00000000000E+00 0. -1.
</event>
<event>
 7    1  0.9251639E-013  0.5052887E+02  0.7816164E-02  0.1300439E+00
        -11   -1    0    0    0    0  0.00000000000E+00  0.00000000000E+00  0.45593999997E+02  0.45594000000E+02  0.51100000000E-03 0. -1.
         11   -1    0    0    0    0 -0.00000000000E+00 -0.00000000000E+00 -0.45593999997E+02  0.45594000000E+02  0.51100000000E-03 0.  1.
    9900012    2    1    2    0    0  0.17358839280E+02 -0.36143251651E+02 -0.67454604332E+01  0.50528866001E+02  0.30000018696E+02 0.  0.
        -12    1    1    2    0    0 -0.17358839280E+02  0.36143251651E+02  0.67454604332E+01  0.40659133999E+02  0.00000000000E+00 0.  1.
         11    1    3    3    0    0  0.12383924827E+02 -0.30505935846E+02 -0.77461559943E+01  0.33822723854E+02  0.51100000000E-03 0. -1.
        -11    1    3    3    0    0 -0.30761580667E+00 -0.97171146903E+01  0.20877675448E+01  0.99436270531E+01  0.51100000000E-03 0.  1.
        -12    1    3    3    0    0  0.52825302599E+01  0.40797988852E+01 -0.10870719837E+01  0.67625150934E+01  0.00000000000E+00 0.  1.
</event>
<event>
 7    1  0.5441610E-013  0.5052886E+02  0.7816164E-02  0.1300439E+00
        -11   -1    0    0    0    0  0.00000000000E+00  0.00000000000E+00  0.45593999997E+02  0.45594000000E+02  0.51100000000E-03 0.  1.
         11   -1    0    0    0    0 -0.00000000000E+00 -0.00000000000E+00 -0.45593999997E+02  0.45594000000E+02  0.51100000000E-03 0. -1.
    9900012    2    1    2    0    0  0.28835998730E+02  0.11389781841E+02 -0.26304440555E+02  0.50528861470E+02  0.30000004923E+02 0.  0.
        -12    1    1    2    0    0 -0.28835998730E+02 -0.11389781841E+02  0.26304440555E+02  0.40659138530E+02  0.00000000000E+00 0.  1.
         11    1    3    3    0    0  0.69152506318E+01 -0.35069745489E+01 -0.15921416788E+02  0.17709067581E+02  0.51100000000E-03 0. -1.
        -11    1    3    3    0    0  0.14007590841E+02  0.12011630347E+02 -0.14478079548E+02  0.23454352526E+02  0.51100000000E-03 0.  1.
        -12    1    3    3    0    0  0.79131572568E+01  0.28851260429E+01  0.40950557814E+01  0.93654413621E+01  0.00000000000E+00 0.  1.
</event>
<event>
 7    1  0.5441610E-013  0.5052885E+02  0.7816164E-02  0.1300439E+00
        -11   -1    0    0    0    0  0.00000000000E+00  0.00000000000E+00  0.45593999997E+02  0.45594000000E+02  0.51100000000E-03 0.  1.
         11   -1    0    0    0    0 -0.00000000000E+00 -0.00000000000E+00 -0.45593999997E+02  0.45594000000E+02  0.51100000000E-03 0. -1.
    9900012    2    1    2    0    0  0.78249728531E+01 -0.34274895935E+02 -0.20424677559E+02  0.50528854106E+02  0.29999982539E+02 0.  0.
        -12    1    1    2    0    0 -0.78249728531E+01  0.34274895935E+02  0.20424677559E+02  0.40659145894E+02  0.00000000000E+00 0.  1.
         11    1    3    3    0    0  0.97606829119E+01 -0.29427174409E+02 -0.20607825333E+02  0.37227838909E+02  0.51100000000E-03 0. -1.
        -11    1    3    3    0    0  0.49090140172E+01 -0.41119282589E+01 -0.19368827731E+00  0.64065504008E+01  0.51100000000E-03 0.  1.
        -12    1    3    3    0    0 -0.68447240760E+01 -0.73579326651E+00  0.37683605162E+00  0.68944647956E+01  0.00000000000E+00 0.  1.
</event>
<event>
 7    1  0.5441610E-013  0.5052884E+02  0.7816164E-02  0.1300439E+00
        -11   -1    0    0    0    0  0.00000000000E+00  0.00000000000E+00  0.45593999997E+02  0.45594000000E+02  0.51100000000E-03 0.  1.
         11   -1    0    0    0    0 -0.00000000000E+00 -0.00000000000E+00 -0.45593999997E+02  0.45594000000E+02  0.51100000000E-03 0. -1.
    9900012    2    1    2    0    0  0.35763155508E+02  0.21505848898E+01 -0.19223405987E+02  0.50528835658E+02  0.29999926465E+02 0.  0.
        -12    1    1    2    0    0 -0.35763155508E+02 -0.21505848898E+01  0.19223405987E+02  0.40659164342E+02  0.00000000000E+00 0.  1.
         11    1    3    3    0    0  0.31640851308E+02 -0.86891920240E+00 -0.15178872090E+02  0.35104083099E+02  0.51100000000E-03 0. -1.
        -11    1    3    3    0    0  0.52592650940E+01  0.33101078185E+01  0.39376611607E+01  0.73567559954E+01  0.51100000000E-03 0.  1.
        -12    1    3    3    0    0 -0.11369608936E+01 -0.29060372627E+00 -0.79821950577E+01  0.80679965629E+01  0.00000000000E+00 0.  1.
</event>
<event>
 7    1  0.5441610E-013  0.5052890E+02  0.7816164E-02  0.1300439E+00
        -11   -1    0    0    0    0  0.00000000000E+00  0.00000000000E+00  0.45593999997E+02  0.45594000000E+02  0.51100000000E-03 0. -1.
         11   -1    0    0    0    0 -0.00000000000E+00 -0.00000000000E+00 -0.45593999997E+02  0.45594000000E+02  0.51100000000E-03 0.  1.
    9900012    2    1    2    0    0 -0.33593019246E+02  0.20118617216E+02  0.10950476844E+02  0.50528897158E+02  0.30000113403E+02 0.  0.
        -12    1    1    2    0    0  0.33593019246E+02 -0.20118617216E+02 -0.10950476844E+02  0.40659102842E+02  0.00000000000E+00 0.  1.
         11    1    3    3    0    0 -0.11269342835E+02  0.13680719339E+02 -0.28492922422E+00  0.17726854049E+02  0.51100000000E-03 0. -1.
        -11    1    3    3    0    0 -0.14386630543E+02 -0.41992519660E+01 -0.62890551449E+00  0.15000145928E+02  0.51100000000E-03 0.  1.
         12    1    3    3    0    0 -0.79370458680E+01  0.10637149844E+02  0.11864311583E+02  0.17801897181E+02  0.00000000000E+00 0. -1.
</event>
<event>
 7    1  0.5441610E-013  0.5052886E+02  0.7816164E-02  0.1300439E+00
        -11   -1    0    0    0    0  0.00000000000E+00  0.00000000000E+00  0.45593999997E+02  0.45594000000E+02  0.51100000000E-03 0.  1.
         11   -1    0    0    0    0 -0.00000000000E+00 -0.00000000000E+00 -0.45593999997E+02  0.45594000000E+02  0.51100000000E-03 0. -1.
    9900012    2    1    2    0    0  0.14564975234E+02 -0.17666560013E+02 -0.33599403565E+02  0.50528858762E+02  0.29999996694E+02 0.  0.
        -12    1    1    2    0    0 -0.14564975234E+02  0.17666560013E+02  0.33599403565E+02  0.40659141238E+02  0.00000000000E+00 0.  1.
         11    1    3    3    0    0  0.32216147105E+01 -0.11559519860E+02 -0.13110403390E+02  0.17773125162E+02  0.51100000000E-03 0. -1.
        -11    1    3    3    0    0  0.91782147698E+01  0.35631516958E+01 -0.20614871828E+02  0.22845319370E+02  0.51100000000E-03 0.  1.
         12    1    3    3    0    0  0.21651457536E+01 -0.96701918491E+01  0.12587165307E+00  0.99104142297E+01  0.00000000000E+00 0. -1.
</event>
<event>
 7    1  0.5441610E-013  0.5052888E+02  0.7816164E-02  0.1300439E+00
        -11   -1    0    0    0    0  0.00000000000E+00  0.00000000000E+00  0.45593999997E+02  0.45594000000E+02  0.51100000000E-03 0. -1.
         11   -1    0    0    0    0 -0.00000000000E+00 -0.00000000000E+00 -0.45593999997E+02  0.45594000000E+02  0.51100000000E-03 0.  1.
    9900012    2    1    2    0    0  0.27673372636E+02 -0.26256982392E+02  0.14068369257E+02  0.50528884283E+02  0.30000074266E+02 0.  0.
        -12    1    1    2    0    0 -0.27673372636E+02  0.26256982392E+02 -0.14068369257E+02  0.40659115717E+02  0.00000000000E+00 0.  1.
         11    1    3    3    0    0  0.12445811106E+02 -0.20752964180E+02  0.11833160722E+01  0.24227752135E+02  0.51100000000E-03 0. -1.
        -11    1    3    3    0    0 -0.34102430202E+00 -0.58223308666E+01 -0.38078047402E+00  0.58447265399E+01  0.51100000000E-03 0.  1.
         12    1    3    3    0    0  0.15568585831E+02  0.31831265407E+00  0.13265833659E+02  0.20456405608E+02  0.00000000000E+00 0. -1.
</event>
<event>
 7    1  0.5441610E-013  0.5052886E+02  0.7816164E-02  0.1300439E+00
        -11   -1    0    0    0    0  0.00000000000E+00  0.00000000000E+00  0.45593999997E+02  0.45594000000E+02  0.51100000000E-03 0.  1.
         11   -1    0    0    0    0 -0.00000000000E+00 -0.00000000000E+00 -0.45593999997E+02  0.45594000000E+02  0.51100000000E-03 0. -1.
    9900012    2    1    2    0    0 -0.30569475763E+02  0.17781827586E+02 -0.20061891055E+02  0.50528859411E+02  0.29999998665E+02 0.  0.
        -12    1    1    2    0    0  0.30569475763E+02 -0.17781827586E+02  0.20061891055E+02  0.40659140589E+02  0.00000000000E+00 0.  1.
         11    1    3    3    0    0 -0.12344121178E+02 -0.38289442326E+01 -0.54660394942E+01  0.14032666518E+02  0.51100000000E-03 0. -1.
        -11    1    3    3    0    0  0.24172504986E+01  0.79182855893E+01 -0.12937052952E+01  0.83795000029E+01  0.51100000000E-03 0.  1.
         12    1    3    3    0    0 -0.20642605084E+02  0.13692486229E+02 -0.13302146266E+02  0.28116692890E+02  0.00000000000E+00 0. -1.
</event>
<event>
 7    1  0.5441610E-013  0.5052885E+02  0.7816164E-02  0.1300439E+00
        -11   -1    0    0    0    0  0.00000000000E+00  0.00000000000E+00  0.45593999997E+02  0.45594000000E+02  0.51100000000E-03 0.  1.
         11   -1    0    0    0    0 -0.00000000000E+00 -0.00000000000E+00 -0.45593999997E+02  0.45594000000E+02  0.51100000000E-03 0. -1.
    9900012    2    1    2    0    0  0.76381768495E+01 -0.25181806713E+02 -0.30995186560E+02  0.50528846973E+02  0.29999960860E+02 0.  0.
        -12    1    1    2    0    0 -0.76381768495E+01  0.25181806713E+02  0.30995186560E+02  0.40659153027E+02  0.00000000000E+00 0.  1.
         11    1    3    3    0    0  0.82819230446E+01 -0.22021765138E+02 -0.17405699636E+02  0.29266136902E+02  0.51100000000E-03 0. -1.
        -11    1    3    3    0    0  0.57894083509E+01 -0.16074874365E+01  0.15235269444E+00  0.60103640918E+01  0.51100000000E-03 0.  1.
         12    1    3    3    0    0 -0.64331545460E+01 -0.15525541390E+01 -0.13741839619E+02  0.15252345979E+02  0.00000000000E+00 0. -1.
</event>
<event>
 7    1  0.5441610E-013  0.5052886E+02  0.7816164E-02  0.1300439E+00
        -11   -1    0    0    0    0  0.00000000000E+00  0.00000000000E+00  0.45593999997E+02  0.45594000000E+02  0.51100000000E-03 0.  1.
         11   -1    0    0    0    0 -0.00000000000E+00 -0.00000000000E+00 -0.45593999997E+02  0.45594000000E+02  0.51100000000E-03 0. -1.
    9900012    2    1    2    0    0  0.32099857555E+02 -0.28281991281E+01 -0.24794481811E+02  0.50528857195E+02  0.29999991929E+02 0.  0.
        -12    1    1    2    0    0 -0.32099857555E+02  0.28281991281E+01  0.24794481811E+02  0.40659142805E+02  0.00000000000E+00 0.  1.
         11    1    3    3    0    0  0.69278117904E+01 -0.32707508800E+01  0.38601730326E+00  0.76708146335E+01  0.51100000000E-03 0. -1.
        -11    1    3    3    0    0  0.86165268011E+00  0.88960574770E+01 -0.61794240930E+01  0.10865890040E+02  0.51100000000E-03 0.  1.
         12    1    3    3    0    0  0.24310393085E+02 -0.84535057251E+01 -0.19001075021E+02  0.31992152521E+02  0.00000000000E+00 0. -1.
</event>
<event>
 7    1  0.5441610E-013  0.5052885E+02  0.7816164E-02  0.1300439E+00
        -11   -1    0    0    0    0  0.00000000000E+00  0.00000000000E+00  0.45593999997E+02  0.45594000000E+02  0.51100000000E-03 0.  1.
         11   -1    0    0    0    0 -0.00000000000E+00 -0.00000000000E+00 -0.45593999997E+02  0.45594000000E+02  0.51100000000E-03 0. -1.
    9900012    2    1    2    0    0  0.25258471081E+02  0.20987813366E+02  0.23972643614E+02  0.50528852037E+02  0.29999976251E+02 0.  0.
        -12    1    1    2    0    0 -0.25258471081E+02 -0.20987813366E+02 -0.23972643614E+02  0.40659147963E+02  0.00000000000E+00 0.  1.
         11    1    3    3    0    0  0.25002018486E+02  0.27773021117E+02  0.20837012093E+02  0.42785776884E+02  0.51100000000E-03 0. -1.
        -11    1    3    3    0    0  0.12248882093E-01 -0.93383061829E+00  0.13096767606E+01  0.16085531192E+01  0.51100000000E-03 0.  1.
         12    1    3    3    0    0  0.24420371297E+00 -0.58513771322E+01  0.18259547599E+01  0.61345220337E+01  0.00000000000E+00 0. -1.
</event>
<event>
 7    1  0.6316803E-013  0.5052887E+02  0.7816164E-02  0.1300439E+00
        -11   -1    0    0    0    0  0.00000000000E+00  0.00000000000E+00  0.45593999997E+02  0.45594000000E+02  0.51100000000E-03 0.  1.
         11   -1    0    0    0    0 -0.00000000000E+00 -0.00000000000E+00 -0.45593999997E+02  0.45594000000E+02  0.51100000000E-03 0. -1.
    9900012    2    1    2    0    0  0.17991914467E+02  0.27108079138E+02 -0.24384576003E+02  0.50528874486E+02  0.30000044486E+02 0.  0.
        -12    1    1    2    0    0 -0.17991914467E+02 -0.27108079138E+02  0.24384576003E+02  0.40659125514E+02  0.00000000000E+00 0.  1.
         11    1    3    3    0    0  0.10595016940E+02  0.18098498618E+02 -0.13331127727E+02  0.24850130843E+02  0.51100000000E-03 0. -1.
        -11    1    3    3    0    0  0.12210876068E+02  0.38954528225E+01 -0.13136002365E+02  0.18353054389E+02  0.51100000000E-03 0.  1.
        -12    1    3    3    0    0 -0.48139785411E+01  0.51141276982E+01  0.20825540882E+01  0.73256892534E+01  0.00000000000E+00 0.  1.
</event>
<event>
 7    1  0.5441610E-013  0.5052886E+02  0.7816164E-02  0.1300439E+00
        -11   -1    0    0    0    0  0.00000000000E+00  0.00000000000E+00  0.45593999997E+02  0.45594000000E+02  0.51100000000E-03 0.  1.
         11   -1    0    0    0    0 -0.00000000000E+00 -0.00000000000E+00 -0.45593999997E+02  0.45594000000E+02  0.51100000000E-03 0. -1.
    9900012    2    1    2    0    0 -0.53344881041E+01  0.31503640905E+02 -0.25144178312E+02  0.50528857651E+02  0.29999993315E+02 0.  0.
        -12    1    1    2    0    0  0.53344881041E+01 -0.31503640905E+02  0.25144178312E+02  0.40659142349E+02  0.00000000000E+00 0.  1.
         11    1    3    3    0    0 -0.67302253332E+01  0.50547985755E+01 -0.61122966187E+01  0.10402263787E+02  0.51100000000E-03 0. -1.
        -11    1    3    3    0    0  0.48392815391E+01  0.26864627450E+01  0.40205651867E+01  0.68411017078E+01  0.51100000000E-03 0.  1.
         12    1    3    3    0    0 -0.34435443100E+01  0.23762379585E+02 -0.23052446880E+02  0.33285492156E+02  0.00000000000E+00 0. -1.
</event>
<event>
 7    1  0.5441610E-013  0.5052885E+02  0.7816164E-02  0.1300439E+00
        -11   -1    0    0    0    0  0.00000000000E+00  0.00000000000E+00  0.45593999997E+02  0.45594000000E+02  0.51100000000E-03 0.  1.
         11   -1    0    0    0    0 -0.00000000000E+00 -0.00000000000E+00 -0.45593999997E+02  0.45594000000E+02  0.51100000000E-03 0. -1.
    9900012    2    1    2    0    0  0.25564769804E+02 -0.29167666698E+02 -0.12200659278E+02  0.50528851921E+02  0.29999975898E+02 0.  0.
        -12    1    1    2    0    0 -0.25564769804E+02  0.29167666698E+02  0.12200659278E+02  0.40659148079E+02  0.00000000000E+00 0.  1.
         11    1    3    3    0    0  0.17383814175E+02 -0.14046455813E+02 -0.13774545654E+02  0.26253343109E+02  0.51100000000E-03 0. -1.
        -11    1    3    3    0    0 -0.40063088987E+01 -0.30843311741E+01 -0.37978937008E+01  0.63235754607E+01  0.51100000000E-03 0.  1.
        -12    1    3    3    0    0  0.12187264528E+02 -0.12036879711E+02  0.53717800768E+01  0.17951933351E+02  0.00000000000E+00 0.  1.
</event>
<event>
 7    1  0.5441610E-013  0.5052885E+02  0.7816164E-02  0.1300439E+00
        -11   -1    0    0    0    0  0.00000000000E+00  0.00000000000E+00  0.45593999997E+02  0.45594000000E+02  0.51100000000E-03 0.  1.
         11   -1    0    0    0    0 -0.00000000000E+00 -0.00000000000E+00 -0.45593999997E+02  0.45594000000E+02  0.51100000000E-03 0. -1.
    9900012    2    1    2    0    0 -0.15561088295E+02  0.36543948140E+02 -0.86924798654E+01  0.50528845793E+02  0.29999957273E+02 0.  0.
        -12    1    1    2    0    0  0.15561088295E+02 -0.36543948140E+02  0.86924798654E+01  0.40659154207E+02  0.00000000000E+00 0.  1.
         11    1    3    3    0    0 -0.39901347693E+01  0.95162777390E+00  0.73421910231E+01  0.84103828795E+01  0.51100000000E-03 0.  1.
        -11    1    3    3    0    0  0.78030515217E+00  0.14087224534E+02 -0.67170995325E+01  0.15626202276E+02  0.51100000000E-03 0. -1.
        -12    1    3    3    0    0 -0.12351258678E+02  0.21505095833E+02 -0.93175713561E+01  0.26492260637E+02  0.00000000000E+00 0.  1.
</event>
<event>
 7    1  0.5441610E-013  0.5052887E+02  0.7816164E-02  0.1300439E+00
        -11   -1    0    0    0    0  0.00000000000E+00  0.00000000000E+00  0.45593999997E+02  0.45594000000E+02  0.51100000000E-03 0. -1.
         11   -1    0    0    0    0 -0.00000000000E+00 -0.00000000000E+00 -0.45593999997E+02  0.45594000000E+02  0.51100000000E-03 0.  1.
    9900012    2    1    2    0    0 -0.74105328801E+01  0.26561225372E+02  0.29878928428E+02  0.50528867510E+02  0.30000023284E+02 0.  0.
        -12    1    1    2    0    0  0.74105328801E+01 -0.26561225372E+02 -0.29878928428E+02  0.40659132490E+02  0.00000000000E+00 0.  1.
         11    1    3    3    0    0 -0.25930577944E+01  0.10146263199E+02  0.11891691314E+02  0.15845596492E+02  0.51100000000E-03 0. -1.
        -11    1    3    3    0    0 -0.94741620959E+01 -0.13785384900E+01  0.96516119533E+00  0.96224556212E+01  0.51100000000E-03 0.  1.
         12    1    3    3    0    0  0.46566870102E+01  0.17793500664E+02  0.17022075918E+02  0.25060815397E+02  0.00000000000E+00 0. -1.
</event>
<event>
 7    1  0.5441610E-013  0.5052886E+02  0.7816164E-02  0.1300439E+00
        -11   -1    0    0    0    0  0.00000000000E+00  0.00000000000E+00  0.45593999997E+02  0.45594000000E+02  0.51100000000E-03 0.  1.
         11   -1    0    0    0    0 -0.00000000000E+00 -0.00000000000E+00 -0.45593999997E+02  0.45594000000E+02  0.51100000000E-03 0. -1.
    9900012    2    1    2    0    0 -0.92619170170E+00  0.11957378721E+02 -0.38850085309E+02  0.50528857542E+02  0.29999992984E+02 0.  0.
        -12    1    1    2    0    0  0.92619170170E+00 -0.11957378721E+02  0.38850085309E+02  0.40659142458E+02  0.00000000000E+00 0.  1.
         11    1    3    3    0    0  0.62821244614E+01  0.82135326390E+01 -0.25874620793E+02  0.27864371653E+02  0.51100000000E-03 0. -1.
        -11    1    3    3    0    0 -0.50382429471E+00 -0.39307324784E+01 -0.11750161648E+02  0.12400435304E+02  0.51100000000E-03 0.  1.
        -12    1    3    3    0    0 -0.67044918684E+01  0.76745785602E+01 -0.12253028682E+01  0.10264050585E+02  0.00000000000E+00 0.  1.
</event>
<event>
 7    1  0.5441610E-013  0.5052886E+02  0.7816164E-02  0.1300439E+00
        -11   -1    0    0    0    0  0.00000000000E+00  0.00000000000E+00  0.45593999997E+02  0.45594000000E+02  0.51100000000E-03 0. -1.
         11   -1    0    0    0    0 -0.00000000000E+00 -0.00000000000E+00 -0.45593999997E+02  0.45594000000E+02  0.51100000000E-03 0.  1.
    9900012    2    1    2    0    0 -0.32079055212E+02  0.13060654087E+02  0.21295990381E+02  0.50528859887E+02  0.30000000112E+02 0.  0.
        -12    1    1    2    0    0  0.32079055212E+02 -0.13060654087E+02 -0.21295990381E+02  0.40659140113E+02  0.00000000000E+00 0.  1.
         11    1    3    3    0    0 -0.22365099374E+02  0.31289208853E+01  0.11894969088E+02  0.25524069147E+02  0.51100000000E-03 0. -1.
        -11    1    3    3    0    0 -0.19986620564E+01 -0.51710218403E+01  0.50431763424E+01  0.74945143118E+01  0.51100000000E-03 0.  1.
         12    1    3    3    0    0 -0.77152937808E+01  0.15102755042E+02  0.43578449504E+01  0.17510276428E+02  0.00000000000E+00 0. -1.
</event>
<event>
 7    1  0.5441610E-013  0.5052886E+02  0.7816164E-02  0.1300439E+00
        -11   -1    0    0    0    0  0.00000000000E+00  0.00000000000E+00  0.45593999997E+02  0.45594000000E+02  0.51100000000E-03 0.  1.
         11   -1    0    0    0    0 -0.00000000000E+00 -0.00000000000E+00 -0.45593999997E+02  0.45594000000E+02  0.51100000000E-03 0. -1.
    9900012    2    1    2    0    0  0.90003194501E+01 -0.34280139795E+02 -0.19925654698E+02  0.50528862654E+02  0.30000008524E+02 0.  0.
        -12    1    1    2    0    0 -0.90003194501E+01  0.34280139795E+02  0.19925654698E+02  0.40659137346E+02  0.00000000000E+00 0.  1.
         11    1    3    3    0    0 -0.22480048531E-01  0.23127424941E+00 -0.73439921853E+01  0.73476672904E+01  0.51100000000E-03 0. -1.
        -11    1    3    3    0    0  0.38789906896E+01  0.15763886033E+01 -0.38711129815E+01  0.57023754502E+01  0.51100000000E-03 0.  1.
         12    1    3    3    0    0  0.51438088090E+01 -0.36087802647E+02 -0.87105495316E+01  0.37478819914E+02  0.00000000000E+00 0. -1.
</event>
<event>
 7    1  0.5441610E-013  0.5052888E+02  0.7816164E-02  0.1300439E+00
        -11   -1    0    0    0    0  0.00000000000E+00  0.00000000000E+00  0.45593999997E+02  0.45594000000E+02  0.51100000000E-03 0. -1.
         11   -1    0    0    0    0 -0.00000000000E+00 -0.00000000000E+00 -0.45593999997E+02  0.45594000000E+02  0.51100000000E-03 0.  1.
    9900012    2    1    2    0    0  0.23134622387E+02 -0.15333709779E+02  0.29712469584E+02  0.50528877317E+02  0.30000053092E+02 0.  0.
        -12    1    1    2    0    0 -0.23134622387E+02  0.15333709779E+02 -0.29712469584E+02  0.40659122683E+02  0.00000000000E+00 0.  1.
         11    1    3    3    0    0  0.57206627365E+01 -0.10567576544E+01  0.95351755497E+01  0.11169704200E+02  0.51100000000E-03 0. -1.
        -11    1    3    3    0    0  0.19120222648E+02 -0.19887044030E+02  0.18648574009E+02  0.33299350552E+02  0.51100000000E-03 0.  1.
        -12    1    3    3    0    0 -0.17062629972E+01  0.56100919055E+01  0.15287200257E+01  0.60598225651E+01  0.00000000000E+00 0.  1.
</event>
<event>
 7    1  0.5441610E-013  0.5052885E+02  0.7816164E-02  0.1300439E+00
        -11   -1    0    0    0    0  0.00000000000E+00  0.00000000000E+00  0.45593999997E+02  0.45594000000E+02  0.51100000000E-03 0.  1.
         11   -1    0    0    0    0 -0.00000000000E+00 -0.00000000000E+00 -0.45593999997E+02  0.45594000000E+02  0.51100000000E-03 0. -1.
    9900012    2    1    2    0    0 -0.77458968519E+01  0.15914126597E+02 -0.36604759955E+02  0.50528846114E+02  0.29999958249E+02 0.  0.
        -12    1    1    2    0    0  0.77458968519E+01 -0.15914126597E+02  0.36604759955E+02  0.40659153886E+02  0.00000000000E+00 0.  1.
         11    1    3    3    0    0 -0.48454355545E+01  0.91507661397E+01 -0.33816319040E+02  0.35366060006E+02  0.51100000000E-03 0. -1.
        -11    1    3    3    0    0 -0.65719993229E+01  0.36217555006E+01 -0.57867262767E+01  0.94759954236E+01  0.51100000000E-03 0.  1.
        -12    1    3    3    0    0  0.36715380255E+01  0.31416049562E+01  0.29982853625E+01  0.56867906844E+01  0.00000000000E+00 0.  1.
</event>
<event>
 7    1  0.5441610E-013  0.5052886E+02  0.7816164E-02  0.1300439E+00
        -11   -1    0    0    0    0  0.00000000000E+00  0.00000000000E+00  0.45593999997E+02  0.45594000000E+02  0.51100000000E-03 0.  1.
         11   -1    0    0    0    0 -0.00000000000E+00 -0.00000000000E+00 -0.45593999997E+02  0.45594000000E+02  0.51100000000E-03 0. -1.
    9900012    2    1    2    0    0 -0.13309836025E+01 -0.34619651849E+02 -0.21280823568E+02  0.50528864947E+02  0.30000015492E+02 0.  0.
        -12    1    1    2    0    0  0.13309836025E+01  0.34619651849E+02  0.21280823568E+02  0.40659135053E+02  0.00000000000E+00 0.  1.
         11    1    3    3    0    0  0.39601712554E-01 -0.29251554644E+02 -0.84473338757E+01  0.30446879433E+02  0.51100000000E-03 0. -1.
        -11    1    3    3    0    0  0.24153707840E+01 -0.82051234546E+01 -0.28182963694E+01  0.90056016799E+01  0.51100000000E-03 0.  1.
         12    1    3    3    0    0 -0.37859560990E+01  0.28370262489E+01 -0.10015193323E+02  0.11076383834E+02  0.00000000000E+00 0. -1.
</event>
<event>
 7    1  0.5441610E-013  0.5052886E+02  0.7816164E-02  0.1300439E+00
        -11   -1    0    0    0    0  0.00000000000E+00  0.00000000000E+00  0.45593999997E+02  0.45594000000E+02  0.51100000000E-03 0.  1.
         11   -1    0    0    0    0 -0.00000000000E+00 -0.00000000000E+00 -0.45593999997E+02  0.45594000000E+02  0.51100000000E-03 0. -1.
    9900012    2    1    2    0    0 -0.52195409625E+01 -0.25722378420E+02 -0.31052876081E+02  0.50528862375E+02  0.30000007676E+02 0.  0.
        -12    1    1    2    0    0  0.52195409625E+01  0.25722378420E+02  0.31052876081E+02  0.40659137625E+02  0.00000000000E+00 0.  1.
         11    1    3    3    0    0  0.66847408118E+01 -0.13507522139E+02 -0.12044703366E+02  0.19292843064E+02  0.51100000000E-03 0. -1.
        -11    1    3    3    0    0  0.10900476963E+00  0.13677987260E+01 -0.11546514640E+02  0.11627757994E+02  0.51100000000E-03 0.  1.
        -12    1    3    3    0    0 -0.12013286544E+02 -0.13582655007E+02 -0.74616580755E+01  0.19608261316E+02  0.00000000000E+00 0.  1.
</event>
<event>
 7    1  0.5441610E-013  0.5052883E+02  0.7816164E-02  0.1300439E+00
        -11   -1    0    0    0    0  0.00000000000E+00  0.00000000000E+00  0.45593999997E+02  0.45594000000E+02  0.51100000000E-03 0.  1.
         11   -1    0    0    0    0 -0.00000000000E+00 -0.00000000000E+00 -0.45593999997E+02  0.45594000000E+02  0.51100000000E-03 0. -1.
    9900012    2    1    2    0    0  0.31664535228E+02 -0.22043420089E+02 -0.12830143500E+02  0.50528834457E+02  0.29999922816E+02 0.  0.
        -12    1    1    2    0    0 -0.31664535228E+02  0.22043420089E+02  0.12830143500E+02  0.40659165543E+02  0.00000000000E+00 0.  1.
         11    1    3    3    0    0  0.15783527624E+02 -0.10834269519E+02  0.77200883439E+01  0.20642211717E+02  0.51100000000E-03 0.  1.
        -11    1    3    3    0    0  0.21399671829E+01 -0.69409872165E+00 -0.85218000667E+01  0.88137568163E+01  0.51100000000E-03 0. -1.
        -12    1    3    3    0    0  0.13741040421E+02 -0.10515051849E+02 -0.12028431777E+02  0.21072865924E+02  0.00000000000E+00 0.  1.
</event>
<event>
 7    1  0.5441610E-013  0.5052886E+02  0.7816164E-02  0.1300439E+00
        -11   -1    0    0    0    0  0.00000000000E+00  0.00000000000E+00  0.45593999997E+02  0.45594000000E+02  0.51100000000E-03 0. -1.
         11   -1    0    0    0    0 -0.00000000000E+00 -0.00000000000E+00 -0.45593999997E+02  0.45594000000E+02  0.51100000000E-03 0.  1.
    9900012    2    1    2    0    0 -0.92307986987E+01  0.39585264584E+02  0.98221463476E+00  0.50528861268E+02  0.30000004311E+02 0.  0.
        -12    1    1    2    0    0  0.92307986987E+01 -0.39585264584E+02 -0.98221463476E+00  0.40659138732E+02  0.00000000000E+00 0.  1.
         11    1    3    3    0    0 -0.14046993000E+02  0.93482951729E+01 -0.36231445690E+01  0.17257920263E+02  0.51100000000E-03 0.  1.
        -11    1    3    3    0    0  0.81070467969E+00  0.12024635476E+02 -0.40477021213E+01  0.12713496495E+02  0.51100000000E-03 0. -1.
        -12    1    3    3    0    0  0.40054896216E+01  0.18212333935E+02  0.86530613250E+01  0.20557444510E+02  0.00000000000E+00 0.  1.
</event>
<event>
 7    1  0.5441610E-013  0.5052883E+02  0.7816164E-02  0.1300439E+00
        -11   -1    0    0    0    0  0.00000000000E+00  0.00000000000E+00  0.45593999997E+02  0.45594000000E+02  0.51100000000E-03 0.  1.
         11   -1    0    0    0    0 -0.00000000000E+00 -0.00000000000E+00 -0.45593999997E+02  0.45594000000E+02  0.51100000000E-03 0. -1.
    9900012    2    1    2    0    0 -0.16413876152E+02 -0.21248086362E+02 -0.30533124147E+02  0.50528829145E+02  0.29999906670E+02 0.  0.
        -12    1    1    2    0    0  0.16413876152E+02  0.21248086362E+02  0.30533124147E+02  0.40659170855E+02  0.00000000000E+00 0.  1.
         11    1    3    3    0    0 -0.11158578702E+02 -0.63208586929E+01 -0.27727807072E+01  0.13120802048E+02  0.51100000000E-03 0. -1.
        -11    1    3    3    0    0  0.14838570155E+01 -0.61268440599E+01  0.11837059699E+01  0.64141413970E+01  0.51100000000E-03 0.  1.
         12    1    3    3    0    0 -0.67391544650E+01 -0.88003836095E+01 -0.28944049410E+02  0.30993885701E+02  0.00000000000E+00 0. -1.
</event>
<event>
 7    1  0.5441610E-013  0.5052885E+02  0.7816164E-02  0.1300439E+00
        -11   -1    0    0    0    0  0.00000000000E+00  0.00000000000E+00  0.45593999997E+02  0.45594000000E+02  0.51100000000E-03 0.  1.
         11   -1    0    0    0    0 -0.00000000000E+00 -0.00000000000E+00 -0.45593999997E+02  0.45594000000E+02  0.51100000000E-03 0. -1.
    9900012    2    1    2    0    0 -0.36698627760E+02  0.17397108733E+02  0.19281033224E+01  0.50528852762E+02  0.29999978455E+02 0.  0.
        -12    1    1    2    0    0  0.36698627760E+02 -0.17397108733E+02 -0.19281033224E+01  0.40659147238E+02  0.00000000000E+00 0.  1.
         11    1    3    3    0    0 -0.67172487560E+01  0.14034802205E+02  0.68901025902E+01  0.17016774599E+02  0.51100000000E-03 0. -1.
        -11    1    3    3    0    0 -0.43944839160E+00  0.30274435336E+00 -0.37496178933E+01  0.37874006442E+01  0.51100000000E-03 0.  1.
         12    1    3    3    0    0 -0.29541930612E+02  0.30595621744E+01 -0.12123813744E+01  0.29724677519E+02  0.00000000000E+00 0. -1.
</event>
<event>
 7    1  0.5441610E-013  0.5052886E+02  0.7816164E-02  0.1300439E+00
        -11   -1    0    0    0    0  0.00000000000E+00  0.00000000000E+00  0.45593999997E+02  0.45594000000E+02  0.51100000000E-03 0.  1.
         11   -1    0    0    0    0 -0.00000000000E+00 -0.00000000000E+00 -0.45593999997E+02  0.45594000000E+02  0.51100000000E-03 0. -1.
    9900012    2    1    2    0    0  0.81545012215E+01 -0.17384667225E+01 -0.39795071073E+02  0.50528857874E+02  0.29999993993E+02 0.  0.
        -12    1    1    2    0    0 -0.81545012215E+01  0.17384667225E+01  0.39795071073E+02  0.40659142126E+02  0.00000000000E+00 0.  1.
         11    1    3    3    0    0  0.58483958047E+01  0.48861473534E+01 -0.14872296273E+02  0.16711174888E+02  0.51100000000E-03 0. -1.
        -11    1    3    3    0    0  0.93499770482E+01 -0.99155918863E+01 -0.21187295622E+02  0.25192112442E+02  0.51100000000E-03 0.  1.
        -12    1    3    3    0    0 -0.70438716314E+01  0.32909778104E+01 -0.37354791783E+01  0.86255705434E+01  0.00000000000E+00 0.  1.
</event>
<event>
 7    1  0.5441610E-013  0.5052885E+02  0.7816164E-02  0.1300439E+00
        -11   -1    0    0    0    0  0.00000000000E+00  0.00000000000E+00  0.45593999997E+02  0.45594000000E+02  0.51100000000E-03 0. -1.
         11   -1    0    0    0    0 -0.00000000000E+00 -0.00000000000E+00 -0.45593999997E+02  0.45594000000E+02  0.51100000000E-03 0.  1.
    9900012    2    1    2    0    0 -0.38196770433E+02  0.70709158479E+00 -0.13916644904E+02  0.50528852746E+02  0.29999978408E+02 0.  0.
        -12    1    1    2    0    0  0.38196770433E+02 -0.70709158479E+00  0.13916644904E+02  0.40659147254E+02  0.00000000000E+00 0.  1.
         11    1    3    3    0    0 -0.19172480695E+02  0.57859358324E+01 -0.20337080058E+02  0.28542212511E+02  0.51100000000E-03 0. -1.
        -11    1    3    3    0    0 -0.19529364213E+01 -0.29335839428E+01 -0.25046314447E+00  0.35330733736E+01  0.51100000000E-03 0.  1.
         12    1    3    3    0    0 -0.17071353316E+02 -0.21452603048E+01  0.66708982981E+01  0.18453566862E+02  0.00000000000E+00 0. -1.
</event>
<event>
 7    1  0.5441610E-013  0.5052891E+02  0.7816164E-02  0.1300439E+00
        -11   -1    0    0    0    0  0.00000000000E+00  0.00000000000E+00  0.45593999997E+02  0.45594000000E+02  0.51100000000E-03 0.  1.
         11   -1    0    0    0    0 -0.00000000000E+00 -0.00000000000E+00 -0.45593999997E+02  0.45594000000E+02  0.51100000000E-03 0. -1.
    9900012    2    1    2    0    0  0.28931477814E+02 -0.14821704517E+02 -0.24422295983E+02  0.50528906622E+02  0.30000142167E+02 0.  0.
        -12    1    1    2    0    0 -0.28931477814E+02  0.14821704517E+02  0.24422295983E+02  0.40659093378E+02  0.00000000000E+00 0.  1.
         11    1    3    3    0    0  0.90426118540E+01 -0.46035214283E+01 -0.44509937419E+01  0.11080279068E+02  0.51100000000E-03 0. -1.
        -11    1    3    3    0    0  0.85402955598E+01 -0.29366698873E+01  0.55387628712E+01  0.10594270748E+02  0.51100000000E-03 0.  1.
         12    1    3    3    0    0  0.11348570400E+02 -0.72815132016E+01 -0.25510065112E+02  0.28854356805E+02  0.00000000000E+00 0. -1.
</event>
<event>
 7    1  0.5441610E-013  0.5052886E+02  0.7816164E-02  0.1300439E+00
        -11   -1    0    0    0    0  0.00000000000E+00  0.00000000000E+00  0.45593999997E+02  0.45594000000E+02  0.51100000000E-03 0. -1.
         11   -1    0    0    0    0 -0.00000000000E+00 -0.00000000000E+00 -0.45593999997E+02  0.45594000000E+02  0.51100000000E-03 0.  1.
    9900012    2    1    2    0    0 -0.39510424920E+02  0.37806264734E+01  0.88203452900E+01  0.50528864435E+02  0.30000013936E+02 0.  0.
        -12    1    1    2    0    0  0.39510424920E+02 -0.37806264734E+01 -0.88203452900E+01  0.40659135565E+02  0.00000000000E+00 0.  1.
         11    1    3    3    0    0 -0.98329562603E+01 -0.10812264673E+02  0.94839677908E+01  0.17422334559E+02  0.51100000000E-03 0.  1.
        -11    1    3    3    0    0 -0.19723571271E+02  0.89699451253E+01 -0.47404739439E+00  0.21672653285E+02  0.51100000000E-03 0. -1.
        -12    1    3    3    0    0 -0.99538973887E+01  0.56229460207E+01 -0.18957510641E+00  0.11433876591E+02  0.00000000000E+00 0.  1.
</event>
<event>
 7    1  0.5441610E-013  0.5052885E+02  0.7816164E-02  0.1300439E+00
        -11   -1    0    0    0    0  0.00000000000E+00  0.00000000000E+00  0.45593999997E+02  0.45594000000E+02  0.51100000000E-03 0.  1.
         11   -1    0    0    0    0 -0.00000000000E+00 -0.00000000000E+00 -0.45593999997E+02  0.45594000000E+02  0.51100000000E-03 0. -1.
    9900012    2    1    2    0    0  0.25144229078E+02 -0.25534480732E+02 -0.19207398823E+02  0.50528854267E+02  0.29999983030E+02 0.  0.
        -12    1    1    2    0    0 -0.25144229078E+02  0.25534480732E+02  0.19207398823E+02  0.40659145733E+02  0.00000000000E+00 0.  1.
         11    1    3    3    0    0  0.53550356790E+01 -0.39793125771E+01  0.22631596645E+01  0.70450853535E+01  0.51100000000E-03 0. -1.
        -11    1    3    3    0    0  0.80967772201E+01 -0.87778688742E+00 -0.17631040669E+02  0.19421171604E+02  0.51100000000E-03 0.  1.
         12    1    3    3    0    0  0.11692416179E+02 -0.20677381268E+02 -0.38395178190E+01  0.24062597309E+02  0.00000000000E+00 0. -1.
</event>
<event>
 7    1  0.5441610E-013  0.5052885E+02  0.7816164E-02  0.1300439E+00
        -11   -1    0    0    0    0  0.00000000000E+00  0.00000000000E+00  0.45593999997E+02  0.45594000000E+02  0.51100000000E-03 0.  1.
         11   -1    0    0    0    0 -0.00000000000E+00 -0.00000000000E+00 -0.45593999997E+02  0.45594000000E+02  0.51100000000E-03 0. -1.
    9900012    2    1    2    0    0 -0.22827671775E+02 -0.33101498103E+02 -0.60295145122E+01  0.50528845796E+02  0.29999957282E+02 0.  0.
        -12    1    1    2    0    0  0.22827671775E+02  0.33101498103E+02  0.60295145122E+01  0.40659154204E+02  0.00000000000E+00 0.  1.
         11    1    3    3    0    0 -0.13425660765E+02 -0.77584131469E+01  0.81214680090E+01  0.17504273319E+02  0.51100000000E-03 0. -1.
        -11    1    3    3    0    0 -0.58800564661E+01 -0.11928532773E+02 -0.12535529868E+00  0.13299649333E+02  0.51100000000E-03 0.  1.
         12    1    3    3    0    0 -0.35219545437E+01 -0.13414552183E+02 -0.14025627223E+02  0.19724923145E+02  0.00000000000E+00 0. -1.
</event>
<event>
 7    1  0.5441610E-013  0.5052882E+02  0.7816164E-02  0.1300439E+00
        -11   -1    0    0    0    0  0.00000000000E+00  0.00000000000E+00  0.45593999997E+02  0.45594000000E+02  0.51100000000E-03 0.  1.
         11   -1    0    0    0    0 -0.00000000000E+00 -0.00000000000E+00 -0.45593999997E+02  0.45594000000E+02  0.51100000000E-03 0. -1.
    9900012    2    1    2    0    0 -0.35701073568E+02 -0.19230340680E+02  0.29658254701E+01  0.50528821733E+02  0.29999884139E+02 0.  0.
        -12    1    1    2    0    0  0.35701073568E+02  0.19230340680E+02 -0.29658254701E+01  0.40659178267E+02  0.00000000000E+00 0.  1.
         11    1    3    3    0    0 -0.29156303341E+02 -0.13945043463E+02 -0.60535077829E+01  0.32881593916E+02  0.51100000000E-03 0. -1.
        -11    1    3    3    0    0 -0.91913607479E+01  0.71518589206E-01  0.55944674193E+01  0.10760311021E+02  0.51100000000E-03 0.  1.
         12    1    3    3    0    0  0.26465905208E+01 -0.53568158068E+01  0.34248658338E+01  0.68869167958E+01  0.00000000000E+00 0. -1.
</event>
<event>
 7    1  0.5441610E-013  0.5052885E+02  0.7816164E-02  0.1300439E+00
        -11   -1    0    0    0    0  0.00000000000E+00  0.00000000000E+00  0.45593999997E+02  0.45594000000E+02  0.51100000000E-03 0.  1.
         11   -1    0    0    0    0 -0.00000000000E+00 -0.00000000000E+00 -0.45593999997E+02  0.45594000000E+02  0.51100000000E-03 0. -1.
    9900012    2    1    2    0    0  0.13389674176E+02 -0.61076076070E+01 -0.37902247059E+02  0.50528848788E+02  0.29999966375E+02 0.  0.
        -12    1    1    2    0    0 -0.13389674176E+02  0.61076076070E+01  0.37902247059E+02  0.40659151212E+02  0.00000000000E+00 0.  1.
         11    1    3    3    0    0  0.20622523121E+01 -0.83369345087E+01 -0.51909999580E+01  0.10035130414E+02  0.51100000000E-03 0. -1.
        -11    1    3    3    0    0  0.13878979153E+02  0.84881415206E+01 -0.17756556683E+02  0.24082564529E+02  0.51100000000E-03 0.  1.
         12    1    3    3    0    0 -0.25515572888E+01 -0.62588146188E+01 -0.14954690417E+02  0.16411153845E+02  0.00000000000E+00 0. -1.
</event>
<event>
 7    1  0.5441610E-013  0.5052886E+02  0.7816164E-02  0.1300439E+00
        -11   -1    0    0    0    0  0.00000000000E+00  0.00000000000E+00  0.45593999997E+02  0.45594000000E+02  0.51100000000E-03 0. -1.
         11   -1    0    0    0    0 -0.00000000000E+00 -0.00000000000E+00 -0.45593999997E+02  0.45594000000E+02  0.51100000000E-03 0.  1.
    9900012    2    1    2    0    0 -0.15230021347E+02  0.14214030691E+02  0.34916660351E+02  0.50528863403E+02  0.30000010801E+02 0.  0.
        -12    1    1    2    0    0  0.15230021347E+02 -0.14214030691E+02 -0.34916660351E+02  0.40659136597E+02  0.00000000000E+00 0.  1.
         11    1    3    3    0    0  0.10167379980E+01  0.26094806153E+01  0.11536509313E+02  0.11871570774E+02  0.51100000000E-03 0. -1.
        -11    1    3    3    0    0 -0.10600919500E+02  0.17908760348E+02  0.21628925767E+02  0.30015223163E+02  0.51100000000E-03 0.  1.
        -12    1    3    3    0    0 -0.56458398455E+01 -0.63042102719E+01  0.17512252699E+01  0.86420694663E+01  0.00000000000E+00 0.  1.
</event>
<event>
 7    1  0.5441610E-013  0.5052886E+02  0.7816164E-02  0.1300439E+00
        -11   -1    0    0    0    0  0.00000000000E+00  0.00000000000E+00  0.45593999997E+02  0.45594000000E+02  0.51100000000E-03 0. -1.
         11   -1    0    0    0    0 -0.00000000000E+00 -0.00000000000E+00 -0.45593999997E+02  0.45594000000E+02  0.51100000000E-03 0.  1.
    9900012    2    1    2    0    0 -0.30111717740E+02  0.27001277897E+02  0.41690792942E+01  0.50528858648E+02  0.29999996347E+02 0.  0.
        -12    1    1    2    0    0  0.30111717740E+02 -0.27001277897E+02 -0.41690792942E+01  0.40659141352E+02  0.00000000000E+00 0.  1.
         11    1    3    3    0    0 -0.32813140863E+01  0.12650831600E+02  0.39598148528E+00  0.13075448899E+02  0.51100000000E-03 0. -1.
        -11    1    3    3    0    0 -0.16937013029E+01  0.14227461047E+01 -0.68949334293E+01  0.72410591654E+01  0.51100000000E-03 0.  1.
         12    1    3    3    0    0 -0.25136702351E+02  0.12927700192E+02  0.10668031238E+02  0.30212350584E+02  0.00000000000E+00 0. -1.
</event>
<event>
 7    1  0.5441610E-013  0.5052885E+02  0.7816164E-02  0.1300439E+00
        -11   -1    0    0    0    0  0.00000000000E+00  0.00000000000E+00  0.45593999997E+02  0.45594000000E+02  0.51100000000E-03 0. -1.
         11   -1    0    0    0    0 -0.00000000000E+00 -0.00000000000E+00 -0.45593999997E+02  0.45594000000E+02  0.51100000000E-03 0.  1.
    9900012    2    1    2    0    0  0.25145774886E+02 -0.44320130389E+01 -0.31641958117E+02  0.50528852841E+02  0.29999978696E+02 0.  0.
        -12    1    1    2    0    0 -0.25145774886E+02  0.44320130389E+01  0.31641958117E+02  0.40659147159E+02  0.00000000000E+00 0.  1.
         11    1    3    3    0    0 -0.10888597444E+01 -0.34223578377E+01 -0.69928405313E+00  0.36588450582E+01  0.51100000000E-03 0. -1.
        -11    1    3    3    0    0  0.13512638900E+02  0.16525607951E+00 -0.13074684519E+00  0.13514281876E+02  0.51100000000E-03 0.  1.
        -12    1    3    3    0    0  0.12721995731E+02 -0.11749112807E+01 -0.30811927218E+02  0.33355725907E+02  0.00000000000E+00 0.  1.
</event>
<event>
 7    1  0.5441610E-013  0.5052886E+02  0.7816164E-02  0.1300439E+00
        -11   -1    0    0    0    0  0.00000000000E+00  0.00000000000E+00  0.45593999997E+02  0.45594000000E+02  0.51100000000E-03 0.  1.
         11   -1    0    0    0    0 -0.00000000000E+00 -0.00000000000E+00 -0.45593999997E+02  0.45594000000E+02  0.51100000000E-03 0. -1.
    9900012    2    1    2    0    0  0.21901261414E+02  0.30413309304E+02 -0.15764863966E+02  0.50528861172E+02  0.30000004019E+02 0.  0.
        -12    1    1    2    0    0 -0.21901261414E+02 -0.30413309304E+02  0.15764863966E+02  0.40659138828E+02  0.00000000000E+00 0.  1.
         11    1    3    3    0    0  0.23197068012E+02  0.16031869242E+02 -0.39078989696E+01  0.28467463364E+02  0.51100000000E-03 0. -1.
        -11    1    3    3    0    0 -0.17671115001E+01  0.10738878004E+01  0.19764368652E+01  0.28604581809E+01  0.51100000000E-03 0.  1.
        -12    1    3    3    0    0  0.47130490208E+00  0.13307552261E+02 -0.13833401862E+02  0.19200939627E+02  0.00000000000E+00 0.  1.
</event>
<event>
 7    1  0.5441610E-013  0.5052889E+02  0.7816164E-02  0.1300439E+00
        -11   -1    0    0    0    0  0.00000000000E+00  0.00000000000E+00  0.45593999997E+02  0.45594000000E+02  0.51100000000E-03 0.  1.
         11   -1    0    0    0    0 -0.00000000000E+00 -0.00000000000E+00 -0.45593999997E+02  0.45594000000E+02  0.51100000000E-03 0. -1.
    9900012    2    1    2    0    0  0.18521063136E+01 -0.16427781586E+01 -0.40583671752E+02  0.50528887482E+02  0.30000083990E+02 0.  0.
        -12    1    1    2    0    0 -0.18521063136E+01  0.16427781586E+01  0.40583671752E+02  0.40659112518E+02  0.00000000000E+00 0.  1.
         11    1    3    3    0    0  0.22017483560E+01 -0.31113096483E+01 -0.23215050821E+02  0.23525869345E+02  0.51100000000E-03 0. -1.
        -11    1    3    3    0    0 -0.28367536885E+01  0.10722520144E+02 -0.91249701497E+01  0.14362614324E+02  0.51100000000E-03 0.  1.
         12    1    3    3    0    0  0.24871116461E+01 -0.92539886543E+01 -0.82436507809E+01  0.12640403813E+02  0.00000000000E+00 0. -1.
</event>
<event>
 7    1  0.5441610E-013  0.5052884E+02  0.7816164E-02  0.1300439E+00
        -11   -1    0    0    0    0  0.00000000000E+00  0.00000000000E+00  0.45593999997E+02  0.45594000000E+02  0.51100000000E-03 0.  1.
         11   -1    0    0    0    0 -0.00000000000E+00 -0.00000000000E+00 -0.45593999997E+02  0.45594000000E+02  0.51100000000E-03 0. -1.
    9900012    2    1    2    0    0 -0.47406253889E+01  0.71207468181E+01 -0.39749069716E+02  0.50528842266E+02  0.29999946552E+02 0.  0.
        -12    1    1    2    0    0  0.47406253889E+01 -0.71207468181E+01  0.39749069716E+02  0.40659157734E+02  0.00000000000E+00 0.  1.
         11    1    3    3    0    0 -0.69779889609E+01  0.79963620933E-01 -0.36511179058E+02  0.37172098684E+02  0.51100000000E-03 0. -1.
        -11    1    3    3    0    0  0.22594566500E+01 -0.21720810291E+01  0.89477655904E+00  0.32594026603E+01  0.51100000000E-03 0.  1.
        -12    1    3    3    0    0 -0.22093078066E-01  0.92128642263E+01 -0.41326672175E+01  0.10097340922E+02  0.00000000000E+00 0.  1.
</event>
<event>
 7    1  0.5441610E-013  0.5052885E+02  0.7816164E-02  0.1300439E+00
        -11   -1    0    0    0    0  0.00000000000E+00  0.00000000000E+00  0.45593999997E+02  0.45594000000E+02  0.51100000000E-03 0.  1.
         11   -1    0    0    0    0 -0.00000000000E+00 -0.00000000000E+00 -0.45593999997E+02  0.45594000000E+02  0.51100000000E-03 0. -1.
    9900012    2    1    2    0    0  0.15106298617E+02  0.29650051465E+02  0.23363226805E+02  0.50528853716E+02  0.29999981355E+02 0.  0.
        -12    1    1    2    0    0 -0.15106298617E+02 -0.29650051465E+02 -0.23363226805E+02  0.40659146284E+02  0.00000000000E+00 0.  1.
         11    1    3    3    0    0  0.17193686129E+00  0.13764732613E+02  0.14771301415E+02  0.20191304364E+02  0.51100000000E-03 0. -1.
        -11    1    3    3    0    0  0.63271576608E+01 -0.13231053584E+01  0.90137986910E+01  0.11091983545E+02  0.51100000000E-03 0.  1.
         12    1    3    3    0    0  0.86072040946E+01  0.17208424211E+02 -0.42187330061E+00  0.19245565807E+02  0.00000000000E+00 0. -1.
</event>
<event>
 7    1  0.5441610E-013  0.5052882E+02  0.7816164E-02  0.1300439E+00
        -11   -1    0    0    0    0  0.00000000000E+00  0.00000000000E+00  0.45593999997E+02  0.45594000000E+02  0.51100000000E-03 0. -1.
         11   -1    0    0    0    0 -0.00000000000E+00 -0.00000000000E+00 -0.45593999997E+02  0.45594000000E+02  0.51100000000E-03 0.  1.
    9900012    2    1    2    0    0 -0.13007666806E+02 -0.29722774996E+02  0.24505640858E+02  0.50528816744E+02  0.29999868975E+02 0.  0.
        -12    1    1    2    0    0  0.13007666806E+02  0.29722774996E+02 -0.24505640858E+02  0.40659183256E+02  0.00000000000E+00 0.  1.
         11    1    3    3    0    0 -0.15957943203E+02 -0.19660756239E+02  0.21372434129E+02  0.33135814884E+02  0.51100000000E-03 0. -1.
        -11    1    3    3    0    0 -0.53366630590E+01 -0.39338433006E+01  0.32312877625E-01  0.66299426922E+01  0.51100000000E-03 0.  1.
         12    1    3    3    0    0  0.82869394560E+01 -0.61281754560E+01  0.31008938507E+01  0.10763059167E+02  0.00000000000E+00 0. -1.
</event>
<event>
 7    1  0.5441610E-013  0.5052886E+02  0.7816164E-02  0.1300439E+00
        -11   -1    0    0    0    0  0.00000000000E+00  0.00000000000E+00  0.45593999997E+02  0.45594000000E+02  0.51100000000E-03 0.  1.
         11   -1    0    0    0    0 -0.00000000000E+00 -0.00000000000E+00 -0.45593999997E+02  0.45594000000E+02  0.51100000000E-03 0. -1.
    9900012    2    1    2    0    0 -0.84654935047E+01  0.20365720069E+02 -0.34157556268E+02  0.50528858538E+02  0.29999996012E+02 0.  0.
        -12    1    1    2    0    0  0.84654935047E+01 -0.20365720069E+02  0.34157556268E+02  0.40659141462E+02  0.00000000000E+00 0.  1.
         11    1    3    3    0    0  0.61943540284E+01  0.81475781680E+01 -0.15927444615E+02  0.18932420449E+02  0.51100000000E-03 0. -1.
        -11    1    3    3    0    0 -0.38335983070E+01 -0.44457157643E+01 -0.51213079864E+01  0.77902927024E+01  0.51100000000E-03 0.  1.
         12    1    3    3    0    0 -0.10826249226E+02  0.16663857665E+02 -0.13108803667E+02  0.23806145387E+02  0.00000000000E+00 0. -1.
</event>
<event>
 7    1  0.5441610E-013  0.5052887E+02  0.7816164E-02  0.1300439E+00
        -11   -1    0    0    0    0  0.00000000000E+00  0.00000000000E+00  0.45593999997E+02  0.45594000000E+02  0.51100000000E-03 0. -1.
         11   -1    0    0    0    0 -0.00000000000E+00 -0.00000000000E+00 -0.45593999997E+02  0.45594000000E+02  0.51100000000E-03 0.  1.
    9900012    2    1    2    0    0 -0.30113956443E+02 -0.13741079559E+02  0.23611378986E+02  0.50528869934E+02  0.30000030651E+02 0.  0.
        -12    1    1    2    0    0  0.30113956443E+02  0.13741079559E+02 -0.23611378986E+02  0.40659130066E+02  0.00000000000E+00 0.  1.
         11    1    3    3    0    0 -0.27012156533E+02 -0.18298507748E+01  0.14956396889E+02  0.30930547402E+02  0.51100000000E-03 0. -1.
        -11    1    3    3    0    0  0.23683693521E+01  0.16968220435E+01  0.12833080965E+01  0.31835920541E+01  0.51100000000E-03 0.  1.
        -12    1    3    3    0    0 -0.54701692627E+01 -0.13608050828E+02  0.73716740005E+01  0.16414730478E+02  0.00000000000E+00 0.  1.
</event>
<event>
 7    1  0.5441610E-013  0.5052888E+02  0.7816164E-02  0.1300439E+00
        -11   -1    0    0    0    0  0.00000000000E+00  0.00000000000E+00  0.45593999997E+02  0.45594000000E+02  0.51100000000E-03 0.  1.
         11   -1    0    0    0    0 -0.00000000000E+00 -0.00000000000E+00 -0.45593999997E+02  0.45594000000E+02  0.51100000000E-03 0. -1.
    9900012    2    1    2    0    0 -0.76297521526E+01  0.37329841152E+02  0.14192735940E+02  0.50528881566E+02  0.30000066007E+02 0.  0.
        -12    1    1    2    0    0  0.76297521526E+01 -0.37329841152E+02 -0.14192735940E+02  0.40659118434E+02  0.00000000000E+00 0.  1.
         11    1    3    3    0    0 -0.60111489774E+01  0.27502440639E+01  0.72276403538E+01  0.97947199952E+01  0.51100000000E-03 0.  1.
        -11    1    3    3    0    0 -0.27062576926E+01  0.37190422672E+02  0.67770004391E+01  0.37899592404E+02  0.51100000000E-03 0. -1.
         12    1    3    3    0    0  0.10876545173E+01 -0.26108255832E+01  0.18809514756E+00  0.28345691664E+01  0.00000000000E+00 0. -1.
</event>
<event>
 7    1  0.5441610E-013  0.5052886E+02  0.7816164E-02  0.1300439E+00
        -11   -1    0    0    0    0  0.00000000000E+00  0.00000000000E+00  0.45593999997E+02  0.45594000000E+02  0.51100000000E-03 0.  1.
         11   -1    0    0    0    0 -0.00000000000E+00 -0.00000000000E+00 -0.45593999997E+02  0.45594000000E+02  0.51100000000E-03 0. -1.
    9900012    2    1    2    0    0  0.17813390823E+02 -0.60479395793E-01 -0.36549220414E+02  0.50528855109E+02  0.29999985589E+02 0.  0.
        -12    1    1    2    0    0 -0.17813390823E+02  0.60479395793E-01  0.36549220414E+02  0.40659144891E+02  0.00000000000E+00 0.  1.
         11    1    3    3    0    0  0.68108990378E+01 -0.29059173970E+01 -0.14288196830E+02  0.16093019311E+02  0.51100000000E-03 0. -1.
        -11    1    3    3    0    0  0.12519594656E+02 -0.61451346762E+00 -0.26159239742E+02  0.29007304275E+02  0.51100000000E-03 0.  1.
        -12    1    3    3    0    0 -0.15171028713E+01  0.34599514688E+01  0.38982161575E+01  0.54285315233E+01  0.00000000000E+00 0.  1.
</event>
<event>
 7    1  0.5441610E-013  0.5052884E+02  0.7816164E-02  0.1300439E+00
        -11   -1    0    0    0    0  0.00000000000E+00  0.00000000000E+00  0.45593999997E+02  0.45594000000E+02  0.51100000000E-03 0.  1.
         11   -1    0    0    0    0 -0.00000000000E+00 -0.00000000000E+00 -0.45593999997E+02  0.45594000000E+02  0.51100000000E-03 0. -1.
    9900012    2    1    2    0    0  0.18724412885E+01 -0.40554322716E+02  0.22378496023E+01  0.50528842383E+02  0.29999946906E+02 0.  0.
        -12    1    1    2    0    0 -0.18724412885E+01  0.40554322716E+02 -0.22378496023E+01  0.40659157617E+02  0.00000000000E+00 0.  1.
         11    1    3    3    0    0 -0.31415277294E+00 -0.14970842648E+02  0.14297317545E+01  0.15042239019E+02  0.51100000000E-03 0. -1.
        -11    1    3    3    0    0 -0.46698210339E+01 -0.26732596210E+02  0.46663796371E+01  0.27535686441E+02  0.51100000000E-03 0.  1.
        -12    1    3    3    0    0  0.68564150954E+01  0.11491161422E+01 -0.38582617893E+01  0.79509169222E+01  0.00000000000E+00 0.  1.
</event>
<event>
 7    1  0.5441610E-013  0.5052888E+02  0.7816164E-02  0.1300439E+00
        -11   -1    0    0    0    0  0.00000000000E+00  0.00000000000E+00  0.45593999997E+02  0.45594000000E+02  0.51100000000E-03 0.  1.
         11   -1    0    0    0    0 -0.00000000000E+00 -0.00000000000E+00 -0.45593999997E+02  0.45594000000E+02  0.51100000000E-03 0. -1.
    9900012    2    1    2    0    0  0.21566094445E+02  0.21039918878E+02 -0.27301826044E+02  0.50528876530E+02  0.30000050699E+02 0.  0.
        -12    1    1    2    0    0 -0.21566094445E+02 -0.21039918878E+02  0.27301826044E+02  0.40659123470E+02  0.00000000000E+00 0.  1.
         11    1    3    3    0    0 -0.32822061061E+01  0.47380126662E+01 -0.35252335383E+01  0.67563979093E+01  0.51100000000E-03 0. -1.
        -11    1    3    3    0    0  0.10258706972E+02 -0.45574426677E+01 -0.60386777891E+01  0.12746645916E+02  0.51100000000E-03 0.  1.
         12    1    3    3    0    0  0.14589593580E+02  0.20859348879E+02 -0.17737914717E+02  0.31025832704E+02  0.00000000000E+00 0. -1.
</event>
<event>
 7    1  0.5441610E-013  0.5052886E+02  0.7816164E-02  0.1300439E+00
        -11   -1    0    0    0    0  0.00000000000E+00  0.00000000000E+00  0.45593999997E+02  0.45594000000E+02  0.51100000000E-03 0.  1.
         11   -1    0    0    0    0 -0.00000000000E+00 -0.00000000000E+00 -0.45593999997E+02  0.45594000000E+02  0.51100000000E-03 0. -1.
    9900012    2    1    2    0    0 -0.39352781843E+02 -0.17128795247E+01 -0.10079198429E+02  0.50528860363E+02  0.30000001559E+02 0.  0.
        -12    1    1    2    0    0  0.39352781843E+02  0.17128795247E+01  0.10079198429E+02  0.40659139637E+02  0.00000000000E+00 0.  1.
         11    1    3    3    0    0 -0.99586032126E+01 -0.56560896283E+01 -0.47502019934E+00  0.11462581397E+02  0.51100000000E-03 0. -1.
        -11    1    3    3    0    0 -0.24244696894E+01  0.35792015121E+00  0.68469028371E+01  0.72722925431E+01  0.51100000000E-03 0.  1.
        -12    1    3    3    0    0 -0.26969708941E+02  0.35852899524E+01 -0.16451081067E+02  0.31793986423E+02  0.00000000000E+00 0.  1.
</event>
<event>
 7    1  0.5441610E-013  0.5052885E+02  0.7816164E-02  0.1300439E+00
        -11   -1    0    0    0    0  0.00000000000E+00  0.00000000000E+00  0.45593999997E+02  0.45594000000E+02  0.51100000000E-03 0.  1.
         11   -1    0    0    0    0 -0.00000000000E+00 -0.00000000000E+00 -0.45593999997E+02  0.45594000000E+02  0.51100000000E-03 0. -1.
    9900012    2    1    2    0    0 -0.33999184148E+02  0.18774281466E+01 -0.22219295702E+02  0.50528851452E+02  0.29999974472E+02 0.  0.
        -12    1    1    2    0    0  0.33999184148E+02 -0.18774281466E+01  0.22219295702E+02  0.40659148548E+02  0.00000000000E+00 0.  1.
         11    1    3    3    0    0 -0.17045593306E+02  0.71016181136E+01 -0.62249761283E+01  0.19486804741E+02  0.51100000000E-03 0. -1.
        -11    1    3    3    0    0 -0.38845537818E+00 -0.25492345864E+01  0.41120979600E+01  0.48537454045E+01  0.51100000000E-03 0.  1.
         12    1    3    3    0    0 -0.16565135465E+02 -0.26749553806E+01 -0.20106417533E+02  0.26188301306E+02  0.00000000000E+00 0. -1.
</event>
<event>
 7    1  0.5441610E-013  0.5052886E+02  0.7816164E-02  0.1300439E+00
        -11   -1    0    0    0    0  0.00000000000E+00  0.00000000000E+00  0.45593999997E+02  0.45594000000E+02  0.51100000000E-03 0.  1.
         11   -1    0    0    0    0 -0.00000000000E+00 -0.00000000000E+00 -0.45593999997E+02  0.45594000000E+02  0.51100000000E-03 0. -1.
    9900012    2    1    2    0    0 -0.17036797412E+02  0.36482532758E+02 -0.56513826347E+01  0.50528858491E+02  0.29999995870E+02 0.  0.
        -12    1    1    2    0    0  0.17036797412E+02 -0.36482532758E+02  0.56513826347E+01  0.40659141509E+02  0.00000000000E+00 0.  1.
         11    1    3    3    0    0 -0.29371686702E+01  0.99504363177E+01  0.78337100201E+01  0.13000198293E+02  0.51100000000E-03 0. -1.
        -11    1    3    3    0    0 -0.20496166706E+01  0.68907238651E+01  0.43385124574E+01  0.83967669068E+01  0.51100000000E-03 0.  1.
         12    1    3    3    0    0 -0.12050012071E+02  0.19641372576E+02 -0.17823605112E+02  0.29131893292E+02  0.00000000000E+00 0. -1.
</event>
<event>
 7    1  0.5441610E-013  0.5052890E+02  0.7816164E-02  0.1300439E+00
        -11   -1    0    0    0    0  0.00000000000E+00  0.00000000000E+00  0.45593999997E+02  0.45594000000E+02  0.51100000000E-03 0.  1.
         11   -1    0    0    0    0 -0.00000000000E+00 -0.00000000000E+00 -0.45593999997E+02  0.45594000000E+02  0.51100000000E-03 0. -1.
    9900012    2    1    2    0    0 -0.11456280408E+02  0.11521547052E+02 -0.37271573588E+02  0.50528897637E+02  0.30000114858E+02 0.  0.
        -12    1    1    2    0    0  0.11456280408E+02 -0.11521547052E+02  0.37271573588E+02  0.40659102363E+02  0.00000000000E+00 0.  1.
         11    1    3    3    0    0  0.89784754982E+00 -0.12145165953E+00 -0.18766079886E+02  0.18787938559E+02  0.51100000000E-03 0. -1.
        -11    1    3    3    0    0 -0.12230455409E+02 -0.15160795305E+01 -0.65258896045E+01  0.13945241914E+02  0.51100000000E-03 0.  1.
         12    1    3    3    0    0 -0.12367254859E+00  0.13159078242E+02 -0.11979604097E+02  0.17795717164E+02  0.00000000000E+00 0. -1.
</event>
<event>
 7    1  0.5441610E-013  0.5052886E+02  0.7816164E-02  0.1300439E+00
        -11   -1    0    0    0    0  0.00000000000E+00  0.00000000000E+00  0.45593999997E+02  0.45594000000E+02  0.51100000000E-03 0. -1.
         11   -1    0    0    0    0 -0.00000000000E+00 -0.00000000000E+00 -0.45593999997E+02  0.45594000000E+02  0.51100000000E-03 0.  1.
    9900012    2    1    2    0    0  0.32918612685E+01  0.16094641672E+01  0.40493694819E+02  0.50528855326E+02  0.29999986250E+02 0.  0.
        -12    1    1    2    0    0 -0.32918612685E+01 -0.16094641672E+01 -0.40493694819E+02  0.40659144674E+02  0.00000000000E+00 0.  1.
         11    1    3    3    0    0  0.10026726785E+02  0.17128301693E+01  0.14756367485E+02  0.17922595203E+02  0.51100000000E-03 0. -1.
        -11    1    3    3    0    0  0.12060246037E+01 -0.33345061540E+01 -0.16481539464E+01  0.39102222863E+01  0.51100000000E-03 0.  1.
        -12    1    3    3    0    0 -0.79408901198E+01  0.32311401518E+01  0.27385481281E+02  0.28696037837E+02  0.00000000000E+00 0.  1.
</event>
<event>
 7    1  0.5441610E-013  0.5052886E+02  0.7816164E-02  0.1300439E+00
        -11   -1    0    0    0    0  0.00000000000E+00  0.00000000000E+00  0.45593999997E+02  0.45594000000E+02  0.51100000000E-03 0.  1.
         11   -1    0    0    0    0 -0.00000000000E+00 -0.00000000000E+00 -0.45593999997E+02  0.45594000000E+02  0.51100000000E-03 0. -1.
    9900012    2    1    2    0    0  0.12768627802E+02 -0.22939022038E+02 -0.31047208396E+02  0.50528859119E+02  0.29999997777E+02 0.  0.
        -12    1    1    2    0    0 -0.12768627802E+02  0.22939022038E+02  0.31047208396E+02  0.40659140881E+02  0.00000000000E+00 0.  1.
         11    1    3    3    0    0  0.22811304344E+01 -0.12605506965E+02 -0.30030591018E+01  0.13157534957E+02  0.51100000000E-03 0. -1.
        -11    1    3    3    0    0 -0.57898226000E+01 -0.15329911934E+01 -0.90620271175E+01  0.10862432668E+02  0.51100000000E-03 0.  1.
         12    1    3    3    0    0  0.16277319968E+02 -0.88005238796E+01 -0.18982122177E+02  0.26508891494E+02  0.00000000000E+00 0. -1.
</event>
<event>
 7    1  0.5441610E-013  0.5052888E+02  0.7816164E-02  0.1300439E+00
        -11   -1    0    0    0    0  0.00000000000E+00  0.00000000000E+00  0.45593999997E+02  0.45594000000E+02  0.51100000000E-03 0. -1.
         11   -1    0    0    0    0 -0.00000000000E+00 -0.00000000000E+00 -0.45593999997E+02  0.45594000000E+02  0.51100000000E-03 0.  1.
    9900012    2    1    2    0    0 -0.34983776699E+02  0.17899231418E+02 -0.10436323113E+02  0.50528881003E+02  0.30000064296E+02 0.  0.
        -12    1    1    2    0    0  0.34983776699E+02 -0.17899231418E+02  0.10436323113E+02  0.40659118997E+02  0.00000000000E+00 0.  1.
         11    1    3    3    0    0 -0.22527799516E+02  0.69710179211E+01 -0.51040482357E+01  0.24127746487E+02  0.51100000000E-03 0. -1.
        -11    1    3    3    0    0 -0.24547315031E+01  0.28112601184E+01 -0.11521361048E+02  0.12110765908E+02  0.51100000000E-03 0.  1.
         12    1    3    3    0    0 -0.10001245680E+02  0.81169533786E+01  0.61890861714E+01  0.14290368608E+02  0.00000000000E+00 0. -1.
</event>
<event>
 7    1  0.5441610E-013  0.5052886E+02  0.7816164E-02  0.1300439E+00
        -11   -1    0    0    0    0  0.00000000000E+00  0.00000000000E+00  0.45593999997E+02  0.45594000000E+02  0.51100000000E-03 0. -1.
         11   -1    0    0    0    0 -0.00000000000E+00 -0.00000000000E+00 -0.45593999997E+02  0.45594000000E+02  0.51100000000E-03 0.  1.
    9900012    2    1    2    0    0  0.32357552648E+02 -0.24584245296E+02  0.13301782581E+01  0.50528859523E+02  0.29999999006E+02 0.  0.
        -12    1    1    2    0    0 -0.32357552648E+02  0.24584245296E+02 -0.13301782581E+01  0.40659140477E+02  0.00000000000E+00 0.  1.
         11    1    3    3    0    0  0.17467247298E+02 -0.17893497474E+02 -0.12374144778E+02  0.27899846582E+02  0.51100000000E-03 0. -1.
        -11    1    3    3    0    0  0.27584434823E+01 -0.47805374402E+01  0.27242558944E+01  0.61550076443E+01  0.51100000000E-03 0.  1.
        -12    1    3    3    0    0  0.12131861868E+02 -0.19102103809E+01  0.10980067142E+02  0.16474005297E+02  0.00000000000E+00 0.  1.
</event>
<event>
 7    1  0.5441610E-013  0.5052884E+02  0.7816164E-02  0.1300439E+00
        -11   -1    0    0    0    0  0.00000000000E+00  0.00000000000E+00  0.45593999997E+02  0.45594000000E+02  0.51100000000E-03 0.  1.
         11   -1    0    0    0    0 -0.00000000000E+00 -0.00000000000E+00 -0.45593999997E+02  0.45594000000E+02  0.51100000000E-03 0. -1.
    9900012    2    1    2    0    0  0.47458207284E+01  0.40362727026E+02  0.12224687638E+01  0.50528843870E+02  0.29999951426E+02 0.  0.
        -12    1    1    2    0    0 -0.47458207284E+01 -0.40362727026E+02 -0.12224687638E+01  0.40659156130E+02  0.00000000000E+00 0.  1.
         11    1    3    3    0    0  0.79933278906E+01  0.25795559102E+02  0.11717746621E+02  0.29438236127E+02  0.51100000000E-03 0.  1.
        -11    1    3    3    0    0  0.37589194369E+01  0.33539992013E+01 -0.34782349243E+01  0.61218383207E+01  0.51100000000E-03 0. -1.
        -12    1    3    3    0    0 -0.70064265991E+01  0.11213168723E+02 -0.70170429324E+01  0.14968769422E+02  0.00000000000E+00 0.  1.
</event>
<event>
 7    1  0.5441610E-013  0.5052888E+02  0.7816164E-02  0.1300439E+00
        -11   -1    0    0    0    0  0.00000000000E+00  0.00000000000E+00  0.45593999997E+02  0.45594000000E+02  0.51100000000E-03 0. -1.
         11   -1    0    0    0    0 -0.00000000000E+00 -0.00000000000E+00 -0.45593999997E+02  0.45594000000E+02  0.51100000000E-03 0.  1.
    9900012    2    1    2    0    0  0.14799384764E+02  0.11284214842E+02  0.36149809182E+02  0.50528880508E+02  0.30000062791E+02 0.  0.
        -12    1    1    2    0    0 -0.14799384764E+02 -0.11284214842E+02 -0.36149809182E+02  0.40659119492E+02  0.00000000000E+00 0.  1.
         11    1    3    3    0    0  0.21702258692E+00  0.34471226624E+01 -0.93150311840E+00  0.35773526208E+01  0.51100000000E-03 0.  1.
        -11    1    3    3    0    0  0.14653260240E+02  0.11785330743E+02  0.38425590953E+02  0.42780113333E+02  0.51100000000E-03 0. -1.
         12    1    3    3    0    0 -0.70898062722E-01 -0.39482385630E+01 -0.13442786530E+01  0.41714145541E+01  0.00000000000E+00 0. -1.
</event>
<event>
 7    1  0.5441610E-013  0.5052888E+02  0.7816164E-02  0.1300439E+00
        -11   -1    0    0    0    0  0.00000000000E+00  0.00000000000E+00  0.45593999997E+02  0.45594000000E+02  0.51100000000E-03 0.  1.
         11   -1    0    0    0    0 -0.00000000000E+00 -0.00000000000E+00 -0.45593999997E+02  0.45594000000E+02  0.51100000000E-03 0. -1.
    9900012    2    1    2    0    0  0.15280515286E+02  0.31027719265E+02 -0.21376399779E+02  0.50528880756E+02  0.30000063546E+02 0.  0.
        -12    1    1    2    0    0 -0.15280515286E+02 -0.31027719265E+02  0.21376399779E+02  0.40659119244E+02  0.00000000000E+00 0.  1.
         11    1    3    3    0    0 -0.46818657571E+01 -0.35945955223E+00 -0.35674259398E+00  0.47091765391E+01  0.51100000000E-03 0. -1.
        -11    1    3    3    0    0  0.55967456064E+01  0.85829630468E+01  0.19228008248E+01  0.10425352719E+02  0.51100000000E-03 0.  1.
         12    1    3    3    0    0  0.14365635436E+02  0.22804215770E+02 -0.22942458010E+02  0.35394351498E+02  0.00000000000E+00 0. -1.
</event>
<event>
 7    1  0.5441610E-013  0.5052886E+02  0.7816164E-02  0.1300439E+00
        -11   -1    0    0    0    0  0.00000000000E+00  0.00000000000E+00  0.45593999997E+02  0.45594000000E+02  0.51100000000E-03 0.  1.
         11   -1    0    0    0    0 -0.00000000000E+00 -0.00000000000E+00 -0.45593999997E+02  0.45594000000E+02  0.51100000000E-03 0. -1.
    9900012    2    1    2    0    0 -0.33067164894E+02  0.92106861121E+01 -0.21792012788E+02  0.50528856451E+02  0.29999989668E+02 0.  0.
        -12    1    1    2    0    0  0.33067164894E+02 -0.92106861121E+01  0.21792012788E+02  0.40659143549E+02  0.00000000000E+00 0.  1.
         11    1    3    3    0    0 -0.26849298127E+01 -0.45295003800E+01 -0.70790309702E-01  0.52659503721E+01  0.51100000000E-03 0. -1.
        -11    1    3    3    0    0 -0.67423862820E+01 -0.19031761566E+01 -0.14356574028E+02  0.15974763546E+02  0.51100000000E-03 0.  1.
        -12    1    3    3    0    0 -0.23639848800E+02  0.15643362649E+02 -0.73646484497E+01  0.29288142533E+02  0.00000000000E+00 0.  1.
</event>
<event>
 7    1  0.5441610E-013  0.5052886E+02  0.7816164E-02  0.1300439E+00
        -11   -1    0    0    0    0  0.00000000000E+00  0.00000000000E+00  0.45593999997E+02  0.45594000000E+02  0.51100000000E-03 0.  1.
         11   -1    0    0    0    0 -0.00000000000E+00 -0.00000000000E+00 -0.45593999997E+02  0.45594000000E+02  0.51100000000E-03 0. -1.
    9900012    2    1    2    0    0 -0.26411452167E+02 -0.13993110763E+02 -0.27564351487E+02  0.50528862929E+02  0.30000009360E+02 0.  0.
        -12    1    1    2    0    0  0.26411452167E+02  0.13993110763E+02  0.27564351487E+02  0.40659137071E+02  0.00000000000E+00 0.  1.
         11    1    3    3    0    0 -0.14450558075E+02 -0.82270722334E+01 -0.29755812820E+02  0.34086826532E+02  0.51100000000E-03 0. -1.
        -11    1    3    3    0    0 -0.11669254554E+02 -0.22975357131E+01 -0.70446511268E+00  0.11914127897E+02  0.51100000000E-03 0.  1.
        -12    1    3    3    0    0 -0.29163953858E+00 -0.34685028163E+01  0.28959264452E+01  0.45279084999E+01  0.00000000000E+00 0.  1.
</event>
<event>
 7    1  0.5441610E-013  0.5052885E+02  0.7816164E-02  0.1300439E+00
        -11   -1    0    0    0    0  0.00000000000E+00  0.00000000000E+00  0.45593999997E+02  0.45594000000E+02  0.51100000000E-03 0. -1.
         11   -1    0    0    0    0 -0.00000000000E+00 -0.00000000000E+00 -0.45593999997E+02  0.45594000000E+02  0.51100000000E-03 0.  1.
    9900012    2    1    2    0    0 -0.32531858651E+02 -0.23996587494E+02 -0.43599103989E+01  0.50528845344E+02  0.29999955908E+02 0.  0.
        -12    1    1    2    0    0  0.32531858651E+02  0.23996587494E+02  0.43599103989E+01  0.40659154656E+02  0.00000000000E+00 0.  1.
         11    1    3    3    0    0  0.37418313242E+01 -0.33942606857E+01 -0.21410774912E+00  0.50564957876E+01  0.51100000000E-03 0.  1.
        -11    1    3    3    0    0 -0.22371203272E+02 -0.15236451783E+02 -0.10812896803E+02  0.29146851224E+02  0.51100000000E-03 0. -1.
         12    1    3    3    0    0 -0.13902486704E+02 -0.53658750250E+01  0.66670941535E+01  0.16325498332E+02  0.00000000000E+00 0. -1.
</event>
<event>
 7    1  0.5441610E-013  0.5052893E+02  0.7816164E-02  0.1300439E+00
        -11   -1    0    0    0    0  0.00000000000E+00  0.00000000000E+00  0.45593999997E+02  0.45594000000E+02  0.51100000000E-03 0. -1.
         11   -1    0    0    0    0 -0.00000000000E+00 -0.00000000000E+00 -0.45593999997E+02  0.45594000000E+02  0.51100000000E-03 0.  1.
    9900012    2    1    2    0    0  0.86311947850E+01  0.25167566534E+02  0.30745015623E+02  0.50528930725E+02  0.30000215430E+02 0.  0.
        -12    1    1    2    0    0 -0.86311947850E+01 -0.25167566534E+02 -0.30745015623E+02  0.40659069275E+02  0.00000000000E+00 0.  1.
         11    1    3    3    0    0 -0.21946266952E+01  0.65592123584E+01 -0.19071839293E+01  0.71747476538E+01  0.51100000000E-03 0. -1.
        -11    1    3    3    0    0  0.41057380350E+01 -0.25362887872E+01  0.13957068819E+01  0.50237280564E+01  0.51100000000E-03 0.  1.
        -12    1    3    3    0    0  0.67200834453E+01  0.21144642963E+02  0.31256492670E+02  0.38330455014E+02  0.00000000000E+00 0.  1.
</event>
<event>
 7    1  0.5441610E-013  0.5052886E+02  0.7816164E-02  0.1300439E+00
        -11   -1    0    0    0    0  0.00000000000E+00  0.00000000000E+00  0.45593999997E+02  0.45594000000E+02  0.51100000000E-03 0.  1.
         11   -1    0    0    0    0 -0.00000000000E+00 -0.00000000000E+00 -0.45593999997E+02  0.45594000000E+02  0.51100000000E-03 0. -1.
    9900012    2    1    2    0    0 -0.30072262955E+02  0.25595729178E+02 -0.96790136429E+01  0.50528860111E+02  0.30000000794E+02 0.  0.
        -12    1    1    2    0    0  0.30072262955E+02 -0.25595729178E+02  0.96790136429E+01  0.40659139889E+02  0.00000000000E+00 0.  1.
         11    1    3    3    0    0  0.15807128993E+01  0.27910924646E+01 -0.91722976119E+01  0.97169899742E+01  0.51100000000E-03 0. -1.
        -11    1    3    3    0    0 -0.18230762947E+02  0.67793998490E+01 -0.32797577714E+01  0.19725054911E+02  0.51100000000E-03 0.  1.
        -12    1    3    3    0    0 -0.13422212908E+02  0.16025236864E+02  0.27730417404E+01  0.21086815226E+02  0.00000000000E+00 0.  1.
</event>
<event>
 7    1  0.5441610E-013  0.5052887E+02  0.7816164E-02  0.1300439E+00
        -11   -1    0    0    0    0  0.00000000000E+00  0.00000000000E+00  0.45593999997E+02  0.45594000000E+02  0.51100000000E-03 0.  1.
         11   -1    0    0    0    0 -0.00000000000E+00 -0.00000000000E+00 -0.45593999997E+02  0.45594000000E+02  0.51100000000E-03 0. -1.
    9900012    2    1    2    0    0 -0.38785505197E+02  0.77203108132E+01 -0.94470236061E+01  0.50528869814E+02  0.30000030287E+02 0.  0.
        -12    1    1    2    0    0  0.38785505197E+02 -0.77203108132E+01  0.94470236061E+01  0.40659130186E+02  0.00000000000E+00 0.  1.
         11    1    3    3    0    0 -0.25050063144E+02  0.20528572234E+01 -0.85610411486E+01  0.26552049113E+02  0.51100000000E-03 0. -1.
        -11    1    3    3    0    0  0.38927640112E+00  0.11038754545E+01 -0.75969606333E+01  0.76866044688E+01  0.51100000000E-03 0.  1.
        -12    1    3    3    0    0 -0.14124718454E+02  0.45635781353E+01  0.67109781758E+01  0.16290216232E+02  0.00000000000E+00 0.  1.
</event>
<event>
 7    1  0.5441610E-013  0.5052886E+02  0.7816164E-02  0.1300439E+00
        -11   -1    0    0    0    0  0.00000000000E+00  0.00000000000E+00  0.45593999997E+02  0.45594000000E+02  0.51100000000E-03 0. -1.
         11   -1    0    0    0    0 -0.00000000000E+00 -0.00000000000E+00 -0.45593999997E+02  0.45594000000E+02  0.51100000000E-03 0.  1.
    9900012    2    1    2    0    0  0.47787137579E+01  0.40377038279E+02  0.15685456328E+00  0.50528856764E+02  0.29999990619E+02 0.  0.
        -12    1    1    2    0    0 -0.47787137579E+01 -0.40377038279E+02 -0.15685456328E+00  0.40659143236E+02  0.00000000000E+00 0.  1.
         11    1    3    3    0    0  0.73364589380E+01  0.30421741930E+02 -0.17557982544E+01  0.31343082802E+02  0.51100000000E-03 0. -1.
        -11    1    3    3    0    0  0.59489846180E+01  0.58787343109E+01  0.43719858365E+01  0.94373828734E+01  0.51100000000E-03 0.  1.
         12    1    3    3    0    0 -0.85067297981E+01  0.40765620383E+01 -0.24593330189E+01  0.97483910882E+01  0.00000000000E+00 0. -1.
</event>
<event>
 7    1  0.5441610E-013  0.5052889E+02  0.7816164E-02  0.1300439E+00
        -11   -1    0    0    0    0  0.00000000000E+00  0.00000000000E+00  0.45593999997E+02  0.45594000000E+02  0.51100000000E-03 0.  1.
         11   -1    0    0    0    0 -0.00000000000E+00 -0.00000000000E+00 -0.45593999997E+02  0.45594000000E+02  0.51100000000E-03 0. -1.
    9900012    2    1    2    0    0 -0.13343405380E+02  0.24026722509E+02 -0.29963872533E+02  0.50528886399E+02  0.30000080697E+02 0.  0.
        -12    1    1    2    0    0  0.13343405380E+02 -0.24026722509E+02  0.29963872533E+02  0.40659113601E+02  0.00000000000E+00 0.  1.
         11    1    3    3    0    0 -0.94933947398E+01  0.89369527879E+01 -0.23102661242E+01  0.13241261218E+02  0.51100000000E-03 0. -1.
        -11    1    3    3    0    0 -0.69290793885E+01  0.18842076080E+02 -0.21007385576E+02  0.29057636193E+02  0.51100000000E-03 0.  1.
         12    1    3    3    0    0  0.30790687486E+01 -0.37523063583E+01 -0.66462208333E+01  0.82299889872E+01  0.00000000000E+00 0. -1.
</event>
<event>
 7    1  0.5441610E-013  0.5052885E+02  0.7816164E-02  0.1300439E+00
        -11   -1    0    0    0    0  0.00000000000E+00  0.00000000000E+00  0.45593999997E+02  0.45594000000E+02  0.51100000000E-03 0.  1.
         11   -1    0    0    0    0 -0.00000000000E+00 -0.00000000000E+00 -0.45593999997E+02  0.45594000000E+02  0.51100000000E-03 0. -1.
    9900012    2    1    2    0    0 -0.22603992984E+02  0.23118312555E+02  0.24652978357E+02  0.50528853229E+02  0.29999979876E+02 0.  0.
        -12    1    1    2    0    0  0.22603992984E+02 -0.23118312555E+02 -0.24652978357E+02  0.40659146771E+02  0.00000000000E+00 0.  1.
         11    1    3    3    0    0  0.59762350392E+01  0.70098788358E+01  0.75478014666E+01  0.11908950154E+02  0.51100000000E-03 0. -1.
        -11    1    3    3    0    0 -0.87122956094E+01 -0.40144455148E+00  0.54122133947E+01  0.10264370736E+02  0.51100000000E-03 0.  1.
        -12    1    3    3    0    0 -0.19867932414E+02  0.16509878271E+02  0.11692963496E+02  0.28355532339E+02  0.00000000000E+00 0.  1.
</event>
<event>
 7    1  0.5441610E-013  0.5052893E+02  0.7816164E-02  0.1300439E+00
        -11   -1    0    0    0    0  0.00000000000E+00  0.00000000000E+00  0.45593999997E+02  0.45594000000E+02  0.51100000000E-03 0.  1.
         11   -1    0    0    0    0 -0.00000000000E+00 -0.00000000000E+00 -0.45593999997E+02  0.45594000000E+02  0.51100000000E-03 0. -1.
    9900012    2    1    2    0    0 -0.19891938902E+02  0.12999014854E+02 -0.32992370595E+02  0.50528927975E+02  0.30000207071E+02 0.  0.
        -12    1    1    2    0    0  0.19891938902E+02 -0.12999014854E+02  0.32992370595E+02  0.40659072025E+02  0.00000000000E+00 0.  1.
         11    1    3    3    0    0 -0.20458455176E+02  0.83791792438E+01 -0.21299150623E+02  0.30698743468E+02  0.51100000000E-03 0. -1.
        -11    1    3    3    0    0 -0.36148439836E+00  0.25410840219E+01 -0.15327973584E+02  0.15541381966E+02  0.51100000000E-03 0.  1.
        -12    1    3    3    0    0  0.92800067186E+00  0.20787515888E+01  0.36347536117E+01  0.42888025407E+01  0.00000000000E+00 0.  1.
</event>
<event>
 7    1  0.5441610E-013  0.5052887E+02  0.7816164E-02  0.1300439E+00
        -11   -1    0    0    0    0  0.00000000000E+00  0.00000000000E+00  0.45593999997E+02  0.45594000000E+02  0.51100000000E-03 0.  1.
         11   -1    0    0    0    0 -0.00000000000E+00 -0.00000000000E+00 -0.45593999997E+02  0.45594000000E+02  0.51100000000E-03 0. -1.
    9900012    2    1    2    0    0 -0.10796541629E+01  0.14481224060E+02 -0.37977539379E+02  0.50528868176E+02  0.30000025308E+02 0.  0.
        -12    1    1    2    0    0  0.10796541629E+01 -0.14481224060E+02  0.37977539379E+02  0.40659131824E+02  0.00000000000E+00 0.  1.
         11    1    3    3    0    0 -0.11963239114E+02  0.82123727865E+01 -0.14946502063E+02  0.20831708549E+02  0.51100000000E-03 0. -1.
        -11    1    3    3    0    0  0.20484246871E+01  0.60861729855E+01 -0.18863710826E+02  0.19926794315E+02  0.51100000000E-03 0.  1.
        -12    1    3    3    0    0  0.88351602643E+01  0.18267828808E+00 -0.41673264907E+01  0.97703653121E+01  0.00000000000E+00 0.  1.
</event>
<event>
 7    1  0.5441610E-013  0.5052887E+02  0.7816164E-02  0.1300439E+00
        -11   -1    0    0    0    0  0.00000000000E+00  0.00000000000E+00  0.45593999997E+02  0.45594000000E+02  0.51100000000E-03 0.  1.
         11   -1    0    0    0    0 -0.00000000000E+00 -0.00000000000E+00 -0.45593999997E+02  0.45594000000E+02  0.51100000000E-03 0. -1.
    9900012    2    1    2    0    0  0.96762353595E+01  0.25691895801E+02 -0.29991023796E+02  0.50528873732E+02  0.30000042195E+02 0.  0.
        -12    1    1    2    0    0 -0.96762353595E+01 -0.25691895801E+02  0.29991023796E+02  0.40659126268E+02  0.00000000000E+00 0.  1.
         11    1    3    3    0    0  0.39853944423E+01  0.18400565376E+02 -0.13541586693E+02  0.23191350661E+02  0.51100000000E-03 0. -1.
        -11    1    3    3    0    0  0.34783788680E+01  0.12740165386E+02 -0.43839036900E+01  0.13915083379E+02  0.51100000000E-03 0.  1.
        -12    1    3    3    0    0  0.22124620493E+01 -0.54488349617E+01 -0.12065533413E+02  0.13422439692E+02  0.00000000000E+00 0.  1.
</event>
<event>
 7    1  0.5441610E-013  0.5052886E+02  0.7816164E-02  0.1300439E+00
        -11   -1    0    0    0    0  0.00000000000E+00  0.00000000000E+00  0.45593999997E+02  0.45594000000E+02  0.51100000000E-03 0.  1.
         11   -1    0    0    0    0 -0.00000000000E+00 -0.00000000000E+00 -0.45593999997E+02  0.45594000000E+02  0.51100000000E-03 0. -1.
    9900012    2    1    2    0    0  0.30028509309E+02 -0.41083249506E+00 -0.27409588156E+02  0.50528859852E+02  0.30000000007E+02 0.  0.
        -12    1    1    2    0    0 -0.30028509309E+02  0.41083249506E+00  0.27409588156E+02  0.40659140148E+02  0.00000000000E+00 0.  1.
         11    1    3    3    0    0  0.32429738620E+01  0.55168453200E+01 -0.13184094260E+02  0.14655128913E+02  0.51100000000E-03 0. -1.
        -11    1    3    3    0    0  0.30799145607E+01  0.18719803728E+01  0.36861412903E+01  0.51553682788E+01  0.51100000000E-03 0.  1.
        -12    1    3    3    0    0  0.23705620886E+02 -0.77996581879E+01 -0.17911635187E+02  0.30718362660E+02  0.00000000000E+00 0.  1.
</event>
<event>
 7    1  0.5441610E-013  0.5052886E+02  0.7816164E-02  0.1300439E+00
        -11   -1    0    0    0    0  0.00000000000E+00  0.00000000000E+00  0.45593999997E+02  0.45594000000E+02  0.51100000000E-03 0.  1.
         11   -1    0    0    0    0 -0.00000000000E+00 -0.00000000000E+00 -0.45593999997E+02  0.45594000000E+02  0.51100000000E-03 0. -1.
    9900012    2    1    2    0    0 -0.13765174825E+01 -0.26210519633E+02 -0.31052848633E+02  0.50528861445E+02  0.30000004847E+02 0.  0.
        -12    1    1    2    0    0  0.13765174825E+01  0.26210519633E+02  0.31052848633E+02  0.40659138555E+02  0.00000000000E+00 0.  1.
         11    1    3    3    0    0 -0.27678536843E+01 -0.24574738257E+02 -0.19658942674E+02  0.31591973692E+02  0.51100000000E-03 0. -1.
        -11    1    3    3    0    0 -0.64638075086E+00 -0.57870315076E+01  0.81662651869E+00  0.58800017753E+01  0.51100000000E-03 0.  1.
         12    1    3    3    0    0  0.20377169527E+01  0.41512501317E+01 -0.12210532478E+02  0.13056885978E+02  0.00000000000E+00 0. -1.
</event>
<event>
 7    1  0.5441610E-013  0.5052883E+02  0.7816164E-02  0.1300439E+00
        -11   -1    0    0    0    0  0.00000000000E+00  0.00000000000E+00  0.45593999997E+02  0.45594000000E+02  0.51100000000E-03 0. -1.
         11   -1    0    0    0    0 -0.00000000000E+00 -0.00000000000E+00 -0.45593999997E+02  0.45594000000E+02  0.51100000000E-03 0.  1.
    9900012    2    1    2    0    0  0.34257155102E+02  0.17735881685E+02  0.12847338580E+02  0.50528827807E+02  0.29999902601E+02 0.  0.
        -12    1    1    2    0    0 -0.34257155102E+02 -0.17735881685E+02 -0.12847338580E+02  0.40659172193E+02  0.00000000000E+00 0.  1.
         11    1    3    3    0    0  0.36393474649E+01  0.32526065487E+01  0.22346431789E+01  0.53682333900E+01  0.51100000000E-03 0. -1.
        -11    1    3    3    0    0  0.23823686772E+01 -0.97145742138E+00 -0.77063245278E+01  0.81244598605E+01  0.51100000000E-03 0.  1.
         12    1    3    3    0    0  0.28235438960E+02  0.15454732558E+02  0.18319019929E+02  0.37036134556E+02  0.00000000000E+00 0. -1.
</event>
<event>
 7    1  0.5441610E-013  0.5052886E+02  0.7816164E-02  0.1300439E+00
        -11   -1    0    0    0    0  0.00000000000E+00  0.00000000000E+00  0.45593999997E+02  0.45594000000E+02  0.51100000000E-03 0.  1.
         11   -1    0    0    0    0 -0.00000000000E+00 -0.00000000000E+00 -0.45593999997E+02  0.45594000000E+02  0.51100000000E-03 0. -1.
    9900012    2    1    2    0    0 -0.37114319895E+02  0.14210974440E+02  0.85872726173E+01  0.50528858509E+02  0.29999995923E+02 0.  0.
        -12    1    1    2    0    0  0.37114319895E+02 -0.14210974440E+02 -0.85872726173E+01  0.40659141491E+02  0.00000000000E+00 0.  1.
         11    1    3    3    0    0 -0.36768055689E+01 -0.34153139478E+01  0.47478475520E+00  0.50407032623E+01  0.51100000000E-03 0.  1.
        -11    1    3    3    0    0 -0.17045364374E+02  0.52991247173E+01  0.15547873722E+02  0.23671956973E+02  0.51100000000E-03 0. -1.
         12    1    3    3    0    0 -0.16392149953E+02  0.12327163670E+02 -0.74353858598E+01  0.21816198273E+02  0.00000000000E+00 0. -1.
</event>
<event>
 7    1  0.5441610E-013  0.5052896E+02  0.7816164E-02  0.1300438E+00
        -11   -1    0    0    0    0  0.00000000000E+00  0.00000000000E+00  0.45593999997E+02  0.45594000000E+02  0.51100000000E-03 0.  1.
         11   -1    0    0    0    0 -0.00000000000E+00 -0.00000000000E+00 -0.45593999997E+02  0.45594000000E+02  0.51100000000E-03 0. -1.
    9900012    2    1    2    0    0 -0.63548165534E+01 -0.10317474445E+02 -0.38811384317E+02  0.50528960108E+02  0.30000304742E+02 0.  0.
        -12    1    1    2    0    0  0.63548165534E+01  0.10317474445E+02  0.38811384317E+02  0.40659039892E+02  0.00000000000E+00 0.  1.
         11    1    3    3    0    0  0.27825837879E+00 -0.91999336326E-01  0.15598840794E+01  0.15871768035E+01  0.51100000000E-03 0. -1.
        -11    1    3    3    0    0  0.35301342882E+01  0.14466233191E-01  0.20858536786E+01  0.41003467164E+01  0.51100000000E-03 0.  1.
         12    1    3    3    0    0 -0.10163209220E+02 -0.10239941342E+02 -0.42457122075E+02  0.44841436588E+02  0.00000000000E+00 0. -1.
</event>
<event>
 7    1  0.5441610E-013  0.5052886E+02  0.7816164E-02  0.1300439E+00
        -11   -1    0    0    0    0  0.00000000000E+00  0.00000000000E+00  0.45593999997E+02  0.45594000000E+02  0.51100000000E-03 0. -1.
         11   -1    0    0    0    0 -0.00000000000E+00 -0.00000000000E+00 -0.45593999997E+02  0.45594000000E+02  0.51100000000E-03 0.  1.
    9900012    2    1    2    0    0  0.27170297857E+02  0.21286109090E+02 -0.21490504548E+02  0.50528864353E+02  0.30000013688E+02 0.  0.
        -12    1    1    2    0    0 -0.27170297857E+02 -0.21286109090E+02  0.21490504548E+02  0.40659135647E+02  0.00000000000E+00 0.  1.
         11    1    3    3    0    0  0.82457637308E+01  0.10691928216E+02 -0.16024851401E+02  0.20954851733E+02  0.51100000000E-03 0.  1.
        -11    1    3    3    0    0  0.51085607244E+01 -0.37453287559E+01  0.40358883391E+01  0.75108771200E+01  0.51100000000E-03 0. -1.
         12    1    3    3    0    0  0.13815973402E+02  0.14339509630E+02 -0.95015414857E+01  0.22063135500E+02  0.00000000000E+00 0. -1.
</event>
<event>
 7    1  0.5441610E-013  0.5052886E+02  0.7816164E-02  0.1300439E+00
        -11   -1    0    0    0    0  0.00000000000E+00  0.00000000000E+00  0.45593999997E+02  0.45594000000E+02  0.51100000000E-03 0. -1.
         11   -1    0    0    0    0 -0.00000000000E+00 -0.00000000000E+00 -0.45593999997E+02  0.45594000000E+02  0.51100000000E-03 0.  1.
    9900012    2    1    2    0    0  0.17569503487E+02 -0.36566030772E+02 -0.27209671788E+01  0.50528859310E+02  0.29999998360E+02 0.  0.
        -12    1    1    2    0    0 -0.17569503487E+02  0.36566030772E+02  0.27209671788E+01  0.40659140690E+02  0.00000000000E+00 0.  1.
         11    1    3    3    0    0  0.53035026927E+01 -0.25781087712E+02  0.87469601119E+01  0.27736274730E+02  0.51100000000E-03 0. -1.
        -11    1    3    3    0    0  0.80991551619E+01 -0.65875590114E+01 -0.64598524385E+00  0.10459901781E+02  0.51100000000E-03 0.  1.
         12    1    3    3    0    0  0.41668456326E+01 -0.41973840489E+01 -0.10821942047E+02  0.12332682800E+02  0.00000000000E+00 0. -1.
</event>
<event>
 7    1  0.5441610E-013  0.5052887E+02  0.7816164E-02  0.1300439E+00
        -11   -1    0    0    0    0  0.00000000000E+00  0.00000000000E+00  0.45593999997E+02  0.45594000000E+02  0.51100000000E-03 0.  1.
         11   -1    0    0    0    0 -0.00000000000E+00 -0.00000000000E+00 -0.45593999997E+02  0.45594000000E+02  0.51100000000E-03 0. -1.
    9900012    2    1    2    0    0  0.24808019283E+02  0.81597068628E+01  0.31163222317E+02  0.50528867422E+02  0.30000023017E+02 0.  0.
        -12    1    1    2    0    0 -0.24808019283E+02 -0.81597068628E+01 -0.31163222317E+02  0.40659132578E+02  0.00000000000E+00 0.  1.
         11    1    3    3    0    0  0.12188914696E+02  0.18438399294E+01  0.17929014773E+02  0.21758192897E+02  0.51100000000E-03 0. -1.
        -11    1    3    3    0    0  0.59532079156E+01 -0.78722182958E+01  0.51952680420E+01  0.11153623432E+02  0.51100000000E-03 0.  1.
        -12    1    3    3    0    0  0.66658966706E+01  0.14188085229E+02  0.80389395020E+01  0.17617051093E+02  0.00000000000E+00 0.  1.
</event>
<event>
 7    1  0.5441610E-013  0.5052886E+02  0.7816164E-02  0.1300439E+00
        -11   -1    0    0    0    0  0.00000000000E+00  0.00000000000E+00  0.45593999997E+02  0.45594000000E+02  0.51100000000E-03 0.  1.
         11   -1    0    0    0    0 -0.00000000000E+00 -0.00000000000E+00 -0.45593999997E+02  0.45594000000E+02  0.51100000000E-03 0. -1.
    9900012    2    1    2    0    0 -0.52403664305E+01 -0.34521979679E+02 -0.20831164432E+02  0.50528856712E+02  0.29999990462E+02 0.  0.
        -12    1    1    2    0    0  0.52403664305E+01  0.34521979679E+02  0.20831164432E+02  0.40659143288E+02  0.00000000000E+00 0.  1.
         11    1    3    3    0    0  0.83506765268E+01 -0.13778628136E+02 -0.78457108668E+00  0.16130714299E+02  0.51100000000E-03 0. -1.
        -11    1    3    3    0    0 -0.12855889886E+02 -0.20189425261E+02 -0.12895166273E+02  0.27187719849E+02  0.51100000000E-03 0.  1.
        -12    1    3    3    0    0 -0.73515307094E+00 -0.55392628271E+00 -0.71514270726E+01  0.72104225632E+01  0.00000000000E+00 0.  1.
</event>
<event>
 7    1  0.5441610E-013  0.5052886E+02  0.7816164E-02  0.1300439E+00
        -11   -1    0    0    0    0  0.00000000000E+00  0.00000000000E+00  0.45593999997E+02  0.45594000000E+02  0.51100000000E-03 0. -1.
         11   -1    0    0    0    0 -0.00000000000E+00 -0.00000000000E+00 -0.45593999997E+02  0.45594000000E+02  0.51100000000E-03 0.  1.
    9900012    2    1    2    0    0  0.39727335015E+02 -0.73189707856E+01  0.46192096141E+01  0.50528861074E+02  0.30000003719E+02 0.  0.
        -12    1    1    2    0    0 -0.39727335015E+02  0.73189707856E+01 -0.46192096141E+01  0.40659138926E+02  0.00000000000E+00 0.  1.
         11    1    3    3    0    0  0.93914717686E+01  0.14170229671E+01 -0.13302172709E+01  0.95904731019E+01  0.51100000000E-03 0. -1.
        -11    1    3    3    0    0  0.32631751449E+02 -0.67536917892E+01 -0.10184928874E+01  0.33338879457E+02  0.51100000000E-03 0.  1.
         12    1    3    3    0    0 -0.22958882024E+01 -0.19823019636E+01  0.69679197724E+01  0.75995085148E+01  0.00000000000E+00 0. -1.
</event>
<event>
 7    1  0.5441610E-013  0.5052884E+02  0.7816164E-02  0.1300439E+00
        -11   -1    0    0    0    0  0.00000000000E+00  0.00000000000E+00  0.45593999997E+02  0.45594000000E+02  0.51100000000E-03 0.  1.
         11   -1    0    0    0    0 -0.00000000000E+00 -0.00000000000E+00 -0.45593999997E+02  0.45594000000E+02  0.51100000000E-03 0. -1.
    9900012    2    1    2    0    0 -0.28422255466E+01 -0.40339200097E+02  0.42234755950E+01  0.50528842893E+02  0.29999948457E+02 0.  0.
        -12    1    1    2    0    0  0.28422255466E+01  0.40339200097E+02 -0.42234755950E+01  0.40659157107E+02  0.00000000000E+00 0.  1.
         11    1    3    3    0    0  0.21826543668E+01 -0.18031932644E+02 -0.64619148438E+01  0.19278768599E+02  0.51100000000E-03 0.  1.
        -11    1    3    3    0    0  0.41296673569E+01 -0.19232031106E+02  0.64072826436E+01  0.20687639886E+02  0.51100000000E-03 0. -1.
        -12    1    3    3    0    0 -0.91545472703E+01 -0.30752363478E+01  0.42781077952E+01  0.10562434408E+02  0.00000000000E+00 0.  1.
</event>
<event>
 7    1  0.5441610E-013  0.5052886E+02  0.7816164E-02  0.1300439E+00
        -11   -1    0    0    0    0  0.00000000000E+00  0.00000000000E+00  0.45593999997E+02  0.45594000000E+02  0.51100000000E-03 0.  1.
         11   -1    0    0    0    0 -0.00000000000E+00 -0.00000000000E+00 -0.45593999997E+02  0.45594000000E+02  0.51100000000E-03 0. -1.
    9900012    2    1    2    0    0  0.10444852347E+02 -0.25736135066E+02 -0.29693809472E+02  0.50528856998E+02  0.29999991332E+02 0.  0.
        -12    1    1    2    0    0 -0.10444852347E+02  0.25736135066E+02  0.29693809472E+02  0.40659143002E+02  0.00000000000E+00 0.  1.
         11    1    3    3    0    0  0.70455650315E+01 -0.46070949228E+01 -0.28508419165E+01  0.88877786952E+01  0.51100000000E-03 0. -1.
        -11    1    3    3    0    0  0.51648476383E+01 -0.16363753857E+02 -0.31964613315E+01  0.17454668622E+02  0.51100000000E-03 0.  1.
         12    1    3    3    0    0 -0.17655603233E+01 -0.47652862867E+01 -0.23646506224E+02  0.24186409681E+02  0.00000000000E+00 0. -1.
</event>
<event>
 7    1  0.5441610E-013  0.5052884E+02  0.7816164E-02  0.1300439E+00
        -11   -1    0    0    0    0  0.00000000000E+00  0.00000000000E+00  0.45593999997E+02  0.45594000000E+02  0.51100000000E-03 0.  1.
         11   -1    0    0    0    0 -0.00000000000E+00 -0.00000000000E+00 -0.45593999997E+02  0.45594000000E+02  0.51100000000E-03 0. -1.
    9900012    2    1    2    0    0 -0.36588732283E+02 -0.85781320395E+01  0.15519278553E+02  0.50528835151E+02  0.29999924926E+02 0.  0.
        -12    1    1    2    0    0  0.36588732283E+02  0.85781320395E+01 -0.15519278553E+02  0.40659164849E+02  0.00000000000E+00 0.  1.
         11    1    3    3    0    0  0.38061294657E+01 -0.32712528355E+01  0.27081735765E+01  0.57027994007E+01  0.51100000000E-03 0. -1.
        -11    1    3    3    0    0 -0.86534795486E+01  0.32335646678E+01  0.66521227125E+01  0.11383733377E+02  0.51100000000E-03 0.  1.
         12    1    3    3    0    0 -0.31741382200E+02 -0.85404438719E+01  0.61589822639E+01  0.33442302374E+02  0.00000000000E+00 0. -1.
</event>
<event>
 7    1  0.5441610E-013  0.5052886E+02  0.7816164E-02  0.1300439E+00
        -11   -1    0    0    0    0  0.00000000000E+00  0.00000000000E+00  0.45593999997E+02  0.45594000000E+02  0.51100000000E-03 0.  1.
         11   -1    0    0    0    0 -0.00000000000E+00 -0.00000000000E+00 -0.45593999997E+02  0.45594000000E+02  0.51100000000E-03 0. -1.
    9900012    2    1    2    0    0 -0.12211760610E+02 -0.25781688696E+02  0.28971425195E+02  0.50528855309E+02  0.29999986196E+02 0.  0.
        -12    1    1    2    0    0  0.12211760610E+02  0.25781688696E+02 -0.28971425195E+02  0.40659144691E+02  0.00000000000E+00 0.  1.
         11    1    3    3    0    0 -0.12737931844E+02 -0.21629682926E+02  0.20817801707E+02  0.32611025119E+02  0.51100000000E-03 0. -1.
        -11    1    3    3    0    0 -0.11249617782E+01 -0.93876269885E+01  0.80650446365E+01  0.12427309634E+02  0.51100000000E-03 0.  1.
        -12    1    3    3    0    0  0.16511330119E+01  0.52356212187E+01  0.88578851701E-01  0.54905205565E+01  0.00000000000E+00 0.  1.
</event>
<event>
 7    1  0.5441610E-013  0.5052886E+02  0.7816164E-02  0.1300439E+00
        -11   -1    0    0    0    0  0.00000000000E+00  0.00000000000E+00  0.45593999997E+02  0.45594000000E+02  0.51100000000E-03 0.  1.
         11   -1    0    0    0    0 -0.00000000000E+00 -0.00000000000E+00 -0.45593999997E+02  0.45594000000E+02  0.51100000000E-03 0. -1.
    9900012    2    1    2    0    0 -0.59220106867E+01  0.17419267921E+02 -0.36258300094E+02  0.50528862882E+02  0.30000009216E+02 0.  0.
        -12    1    1    2    0    0  0.59220106867E+01 -0.17419267921E+02  0.36258300094E+02  0.40659137118E+02  0.00000000000E+00 0.  1.
         11    1    3    3    0    0 -0.18409003271E+01  0.13892107223E+02 -0.30228410464E+02  0.33318708806E+02  0.51100000000E-03 0. -1.
        -11    1    3    3    0    0 -0.47869653812E+01  0.89090616399E+01 -0.60442119724E+01  0.11782143926E+02  0.51100000000E-03 0.  1.
         12    1    3    3    0    0  0.70585502166E+00 -0.53819009413E+01  0.14322342409E-01  0.54280101495E+01  0.00000000000E+00 0. -1.
</event>
<event>
 7    1  0.5441610E-013  0.5052886E+02  0.7816164E-02  0.1300439E+00
        -11   -1    0    0    0    0  0.00000000000E+00  0.00000000000E+00  0.45593999997E+02  0.45594000000E+02  0.51100000000E-03 0.  1.
         11   -1    0    0    0    0 -0.00000000000E+00 -0.00000000000E+00 -0.45593999997E+02  0.45594000000E+02  0.51100000000E-03 0. -1.
    9900012    2    1    2    0    0  0.48218449161E+00 -0.39595127785E+02 -0.92281459662E+01  0.50528864198E+02  0.30000013216E+02 0.  0.
        -12    1    1    2    0    0 -0.48218449161E+00  0.39595127785E+02  0.92281459662E+01  0.40659135802E+02  0.00000000000E+00 0.  1.
         11    1    3    3    0    0  0.62355358229E+01 -0.27062785154E+02 -0.11784360583E+02  0.30168649322E+02  0.51100000000E-03 0. -1.
        -11    1    3    3    0    0  0.33119533941E+01 -0.99013667954E+01 -0.45979880595E+00  0.10450718392E+02  0.51100000000E-03 0.  1.
        -12    1    3    3    0    0 -0.90653047253E+01 -0.26309758355E+01  0.30160134224E+01  0.99094964844E+01  0.00000000000E+00 0.  1.
</event>
<event>
 7    1  0.5441610E-013  0.5052886E+02  0.7816164E-02  0.1300439E+00
        -11   -1    0    0    0    0  0.00000000000E+00  0.00000000000E+00  0.45593999997E+02  0.45594000000E+02  0.51100000000E-03 0.  1.
         11   -1    0    0    0    0 -0.00000000000E+00 -0.00000000000E+00 -0.45593999997E+02  0.45594000000E+02  0.51100000000E-03 0. -1.
    9900012    2    1    2    0    0  0.71270253810E+01  0.89495428654E+01 -0.39016367188E+02  0.50528859370E+02  0.29999998540E+02 0.  0.
        -12    1    1    2    0    0 -0.71270253810E+01 -0.89495428654E+01  0.39016367188E+02  0.40659140630E+02  0.00000000000E+00 0.  1.
         11    1    3    3    0    0 -0.40299467241E+01  0.21320177895E+01 -0.19763249181E+02  0.20282307287E+02  0.51100000000E-03 0. -1.
        -11    1    3    3    0    0 -0.14130638973E+01 -0.42884429397E+01  0.25057472708E+00  0.45221986223E+01  0.51100000000E-03 0.  1.
        -12    1    3    3    0    0  0.12570036002E+02  0.11105968016E+02 -0.19503692734E+02  0.25724353460E+02  0.00000000000E+00 0.  1.
</event>
<event>
 7    1  0.5441610E-013  0.5052887E+02  0.7816164E-02  0.1300439E+00
        -11   -1    0    0    0    0  0.00000000000E+00  0.00000000000E+00  0.45593999997E+02  0.45594000000E+02  0.51100000000E-03 0.  1.
         11   -1    0    0    0    0 -0.00000000000E+00 -0.00000000000E+00 -0.45593999997E+02  0.45594000000E+02  0.51100000000E-03 0. -1.
    9900012    2    1    2    0    0 -0.18153061681E+02  0.33014947205E+02  0.15285428960E+02  0.50528871556E+02  0.30000035580E+02 0.  0.
        -12    1    1    2    0    0  0.18153061681E+02 -0.33014947205E+02 -0.15285428960E+02  0.40659128444E+02  0.00000000000E+00 0.  1.
         11    1    3    3    0    0  0.33045039959E+01  0.58413077785E+01  0.17893785034E+01  0.69456820336E+01  0.51100000000E-03 0. -1.
        -11    1    3    3    0    0 -0.42621792464E+01 -0.34141228018E+01  0.51679853553E+01  0.75186753705E+01  0.51100000000E-03 0.  1.
         12    1    3    3    0    0 -0.17195386430E+02  0.30587762229E+02  0.83280651015E+01  0.36064514152E+02  0.00000000000E+00 0. -1.
</event>
<event>
 7    1  0.6020025E-013  0.5052888E+02  0.7816164E-02  0.1300439E+00
        -11   -1    0    0    0    0  0.00000000000E+00  0.00000000000E+00  0.45593999997E+02  0.45594000000E+02  0.51100000000E-03 0. -1.
         11   -1    0    0    0    0 -0.00000000000E+00 -0.00000000000E+00 -0.45593999997E+02  0.45594000000E+02  0.51100000000E-03 0.  1.
    9900012    2    1    2    0    0 -0.73510348726E+01 -0.38769925632E+02  0.97989455885E+01  0.50528878246E+02  0.30000055916E+02 0.  0.
        -12    1    1    2    0    0  0.73510348726E+01  0.38769925632E+02 -0.97989455885E+01  0.40659121754E+02  0.00000000000E+00 0.  1.
         11    1    3    3    0    0 -0.67419958823E+01 -0.28898410594E+02  0.11796680348E+02  0.31933279049E+02  0.51100000000E-03 0. -1.
        -11    1    3    3    0    0  0.41867635539E+01 -0.10660471609E+02 -0.54005123845E+01  0.12662550227E+02  0.51100000000E-03 0.  1.
        -12    1    3    3    0    0 -0.47958025441E+01  0.78895657101E+00  0.34027776248E+01  0.59330489697E+01  0.00000000000E+00 0.  1.
</event>
<event>
 7    1  0.5441610E-013  0.5052890E+02  0.7816164E-02  0.1300439E+00
        -11   -1    0    0    0    0  0.00000000000E+00  0.00000000000E+00  0.45593999997E+02  0.45594000000E+02  0.51100000000E-03 0. -1.
         11   -1    0    0    0    0 -0.00000000000E+00 -0.00000000000E+00 -0.45593999997E+02  0.45594000000E+02  0.51100000000E-03 0.  1.
    9900012    2    1    2    0    0 -0.26727017942E+02  0.95681482579E+00  0.30625366449E+02  0.50528904427E+02  0.30000135495E+02 0.  0.
        -12    1    1    2    0    0  0.26727017942E+02 -0.95681482579E+00 -0.30625366449E+02  0.40659095573E+02  0.00000000000E+00 0.  1.
         11    1    3    3    0    0 -0.53970454836E+01 -0.17995288343E+01  0.40313029946E+01  0.69726471353E+01  0.51100000000E-03 0. -1.
        -11    1    3    3    0    0 -0.26025314128E+02  0.24048860480E+01  0.28323822799E+02  0.38540101071E+02  0.51100000000E-03 0.  1.
        -12    1    3    3    0    0  0.46953416692E+01  0.35145761202E+00 -0.17297593440E+01  0.50161562208E+01  0.00000000000E+00 0.  1.
</event>
<event>
 7    1  0.1109303E-012  0.5052886E+02  0.7816164E-02  0.1300439E+00
        -11   -1    0    0    0    0  0.00000000000E+00  0.00000000000E+00  0.45593999997E+02  0.45594000000E+02  0.51100000000E-03 0. -1.
         11   -1    0    0    0    0 -0.00000000000E+00 -0.00000000000E+00 -0.45593999997E+02  0.45594000000E+02  0.51100000000E-03 0.  1.
    9900012    2    1    2    0    0 -0.31486973914E+02  0.67694929137E+01  0.24817538809E+02  0.50528858431E+02  0.29999995687E+02 0.  0.
        -12    1    1    2    0    0  0.31486973914E+02 -0.67694929137E+01 -0.24817538809E+02  0.40659141569E+02  0.00000000000E+00 0.  1.
         11    1    3    3    0    0 -0.15900195706E+02  0.49174420408E+01  0.15282242815E+02  0.22595229706E+02  0.51100000000E-03 0. -1.
        -11    1    3    3    0    0 -0.19271563872E+02  0.24353316940E+01  0.20026882211E+01  0.19527794932E+02  0.51100000000E-03 0.  1.
        -12    1    3    3    0    0  0.36847856638E+01 -0.58328082109E+00  0.75326077728E+01  0.84058337934E+01  0.00000000000E+00 0.  1.
</event>
<event>
 7    1  0.5441610E-013  0.5052886E+02  0.7816164E-02  0.1300439E+00
        -11   -1    0    0    0    0  0.00000000000E+00  0.00000000000E+00  0.45593999997E+02  0.45594000000E+02  0.51100000000E-03 0.  1.
         11   -1    0    0    0    0 -0.00000000000E+00 -0.00000000000E+00 -0.45593999997E+02  0.45594000000E+02  0.51100000000E-03 0. -1.
    9900012    2    1    2    0    0  0.19879278265E+01  0.40069040221E+02 -0.66095004336E+01  0.50528864037E+02  0.30000012728E+02 0.  0.
        -12    1    1    2    0    0 -0.19879278265E+01 -0.40069040221E+02  0.66095004336E+01  0.40659135963E+02  0.00000000000E+00 0.  1.
         11    1    3    3    0    0 -0.11816181018E+02  0.19918787254E+02 -0.26927138693E+01  0.23315894316E+02  0.51100000000E-03 0. -1.
        -11    1    3    3    0    0  0.19211079094E+01  0.10234994774E+02  0.20727604504E+01  0.10618008748E+02  0.51100000000E-03 0.  1.
        -12    1    3    3    0    0  0.11883000935E+02  0.99152581925E+01 -0.59895470146E+01  0.16594960973E+02  0.00000000000E+00 0.  1.
</event>
<event>
 7    1  0.5441610E-013  0.5052892E+02  0.7816164E-02  0.1300439E+00
        -11   -1    0    0    0    0  0.00000000000E+00  0.00000000000E+00  0.45593999997E+02  0.45594000000E+02  0.51100000000E-03 0. -1.
         11   -1    0    0    0    0 -0.00000000000E+00 -0.00000000000E+00 -0.45593999997E+02  0.45594000000E+02  0.51100000000E-03 0.  1.
    9900012    2    1    2    0    0  0.36830726148E+02 -0.13097716973E+02  0.11185180082E+02  0.50528919440E+02  0.30000181130E+02 0.  0.
        -12    1    1    2    0    0 -0.36830726148E+02  0.13097716973E+02 -0.11185180082E+02  0.40659080560E+02  0.00000000000E+00 0.  1.
         11    1    3    3    0    0 -0.18151067154E+01  0.14614076594E+01  0.12891945970E+01  0.26631462043E+01  0.51100000000E-03 0. -1.
        -11    1    3    3    0    0  0.69254858114E+01 -0.11720463879E+02 -0.22167547902E+01  0.13792955786E+02  0.51100000000E-03 0.  1.
         12    1    3    3    0    0  0.31720347052E+02 -0.28386607528E+01  0.12112740275E+02  0.34072817450E+02  0.00000000000E+00 0. -1.
</event>
<event>
 7    1  0.5441610E-013  0.5052894E+02  0.7816164E-02  0.1300439E+00
        -11   -1    0    0    0    0  0.00000000000E+00  0.00000000000E+00  0.45593999997E+02  0.45594000000E+02  0.51100000000E-03 0. -1.
         11   -1    0    0    0    0 -0.00000000000E+00 -0.00000000000E+00 -0.45593999997E+02  0.45594000000E+02  0.51100000000E-03 0.  1.
    9900012    2    1    2    0    0 -0.19832062554E+02 -0.32566054449E+02  0.14117386884E+02  0.50528939264E+02  0.30000241385E+02 0.  0.
        -12    1    1    2    0    0  0.19832062554E+02  0.32566054449E+02 -0.14117386884E+02  0.40659060736E+02  0.00000000000E+00 0.  1.
         11    1    3    3    0    0 -0.12817567889E+02 -0.20137081024E+02  0.17329554915E+02  0.29497551637E+02  0.51100000000E-03 0. -1.
        -11    1    3    3    0    0 -0.17573386995E+01  0.21417701714E+01  0.32296977454E+01  0.42551576422E+01  0.51100000000E-03 0.  1.
         12    1    3    3    0    0 -0.52571559653E+01 -0.14570743597E+02 -0.64418657770E+01  0.16776229985E+02  0.00000000000E+00 0. -1.
</event>
<event>
 7    1  0.6705631E-013  0.5052886E+02  0.7816164E-02  0.1300439E+00
        -11   -1    0    0    0    0  0.00000000000E+00  0.00000000000E+00  0.45593999997E+02  0.45594000000E+02  0.51100000000E-03 0.  1.
         11   -1    0    0    0    0 -0.00000000000E+00 -0.00000000000E+00 -0.45593999997E+02  0.45594000000E+02  0.51100000000E-03 0. -1.
    9900012    2    1    2    0    0  0.77755477489E+01 -0.32087417438E+02 -0.23729818900E+02  0.50528858277E+02  0.29999995219E+02 0.  0.
        -12    1    1    2    0    0 -0.77755477489E+01  0.32087417438E+02  0.23729818900E+02  0.40659141723E+02  0.00000000000E+00 0.  1.
         11    1    3    3    0    0  0.36291633326E+01 -0.13964485627E+02 -0.51776999445E+01  0.15329261636E+02  0.51100000000E-03 0.  1.
        -11    1    3    3    0    0 -0.19124395086E+01 -0.19615744601E+02 -0.20717471974E+02  0.28594553789E+02  0.51100000000E-03 0. -1.
        -12    1    3    3    0    0  0.60588239249E+01  0.14928127898E+01  0.21653530194E+01  0.66050428520E+01  0.00000000000E+00 0.  1.
</event>
<event>
 7    1  0.5441610E-013  0.5052888E+02  0.7816164E-02  0.1300439E+00
        -11   -1    0    0    0    0  0.00000000000E+00  0.00000000000E+00  0.45593999997E+02  0.45594000000E+02  0.51100000000E-03 0. -1.
         11   -1    0    0    0    0 -0.00000000000E+00 -0.00000000000E+00 -0.45593999997E+02  0.45594000000E+02  0.51100000000E-03 0.  1.
    9900012    2    1    2    0    0 -0.20533835027E+02 -0.85770540856E+01  0.34028810803E+02  0.50528877993E+02  0.30000055147E+02 0.  0.
        -12    1    1    2    0    0  0.20533835027E+02  0.85770540856E+01 -0.34028810803E+02  0.40659122007E+02  0.00000000000E+00 0.  1.
         11    1    3    3    0    0 -0.93365427322E+00  0.25330632671E+01  0.31768926429E+01  0.41690246992E+01  0.51100000000E-03 0. -1.
        -11    1    3    3    0    0 -0.50973107396E+00 -0.81603475484E+01 -0.18461588415E+01  0.83820880816E+01  0.51100000000E-03 0.  1.
         12    1    3    3    0    0 -0.19090449680E+02 -0.29497698042E+01  0.32698077002E+02  0.37977765212E+02  0.00000000000E+00 0. -1.
</event>
<event>
 7    1  0.5441610E-013  0.5052887E+02  0.7816164E-02  0.1300439E+00
        -11   -1    0    0    0    0  0.00000000000E+00  0.00000000000E+00  0.45593999997E+02  0.45594000000E+02  0.51100000000E-03 0.  1.
         11   -1    0    0    0    0 -0.00000000000E+00 -0.00000000000E+00 -0.45593999997E+02  0.45594000000E+02  0.51100000000E-03 0. -1.
    9900012    2    1    2    0    0 -0.10673637350E+02 -0.24844123032E+01 -0.39154386081E+02  0.50528870789E+02  0.30000033251E+02 0.  0.
        -12    1    1    2    0    0  0.10673637350E+02  0.24844123032E+01  0.39154386081E+02  0.40659129211E+02  0.00000000000E+00 0.  1.
         11    1    3    3    0    0 -0.31280708434E+01 -0.10018940447E+02 -0.21142530141E+02  0.23604460933E+02  0.51100000000E-03 0. -1.
        -11    1    3    3    0    0  0.51995182557E+01  0.15716415999E+01 -0.24943702985E+01  0.59772009216E+01  0.51100000000E-03 0.  1.
         12    1    3    3    0    0 -0.12745084762E+02  0.59628865442E+01 -0.15517485641E+02  0.20947208935E+02  0.00000000000E+00 0. -1.
</event>
<event>
 7    1  0.5441610E-013  0.5052886E+02  0.7816164E-02  0.1300439E+00
        -11   -1    0    0    0    0  0.00000000000E+00  0.00000000000E+00  0.45593999997E+02  0.45594000000E+02  0.51100000000E-03 0.  1.
         11   -1    0    0    0    0 -0.00000000000E+00 -0.00000000000E+00 -0.45593999997E+02  0.45594000000E+02  0.51100000000E-03 0. -1.
    9900012    2    1    2    0    0 -0.64937813563E+01  0.32986225469E+02 -0.22867119085E+02  0.50528863238E+02  0.30000010298E+02 0.  0.
        -12    1    1    2    0    0  0.64937813563E+01 -0.32986225469E+02  0.22867119085E+02  0.40659136762E+02  0.00000000000E+00 0.  1.
         11    1    3    3    0    0 -0.61538544861E+00  0.12858868158E+02 -0.97614920666E+01  0.16155987039E+02  0.51100000000E-03 0. -1.
        -11    1    3    3    0    0 -0.13414828933E+02  0.10599042126E+02 -0.85219849242E+00  0.17117931295E+02  0.51100000000E-03 0.  1.
         12    1    3    3    0    0  0.75364330258E+01  0.95283151848E+01 -0.12253428526E+02  0.17254944904E+02  0.00000000000E+00 0. -1.
</event>
<event>
 7    1  0.5441610E-013  0.5052886E+02  0.7816164E-02  0.1300439E+00
        -11   -1    0    0    0    0  0.00000000000E+00  0.00000000000E+00  0.45593999997E+02  0.45594000000E+02  0.51100000000E-03 0.  1.
         11   -1    0    0    0    0 -0.00000000000E+00 -0.00000000000E+00 -0.45593999997E+02  0.45594000000E+02  0.51100000000E-03 0. -1.
    9900012    2    1    2    0    0 -0.25620420613E+02  0.30740034830E+02  0.71978894633E+01  0.50528864416E+02  0.30000013878E+02 0.  0.
        -12    1    1    2    0    0  0.25620420613E+02 -0.30740034830E+02 -0.71978894633E+01  0.40659135584E+02  0.00000000000E+00 0.  1.
         11    1    3    3    0    0 -0.47546735221E+00  0.82993108301E+00 -0.52110030161E+01  0.52980569552E+01  0.51100000000E-03 0. -1.
        -11    1    3    3    0    0 -0.14831201583E+02  0.15229719079E+02 -0.31407292531E+01  0.21488905605E+02  0.51100000000E-03 0.  1.
        -12    1    3    3    0    0 -0.10313751678E+02  0.14680384669E+02  0.15549621732E+02  0.23741901856E+02  0.00000000000E+00 0.  1.
</event>
<event>
 7    1  0.5441610E-013  0.5052886E+02  0.7816164E-02  0.1300439E+00
        -11   -1    0    0    0    0  0.00000000000E+00  0.00000000000E+00  0.45593999997E+02  0.45594000000E+02  0.51100000000E-03 0.  1.
         11   -1    0    0    0    0 -0.00000000000E+00 -0.00000000000E+00 -0.45593999997E+02  0.45594000000E+02  0.51100000000E-03 0. -1.
    9900012    2    1    2    0    0  0.84206180122E+01 -0.18822262998E+02 -0.35042568670E+02  0.50528855751E+02  0.29999987541E+02 0.  0.
        -12    1    1    2    0    0 -0.84206180122E+01  0.18822262998E+02  0.35042568670E+02  0.40659144249E+02  0.00000000000E+00 0.  1.
         11    1    3    3    0    0  0.11894117250E+01 -0.18267663189E+02 -0.89428139881E+01  0.20373908337E+02  0.51100000000E-03 0. -1.
        -11    1    3    3    0    0  0.72032119980E+01 -0.17737027346E+01 -0.48342414684E+01  0.88545002860E+01  0.51100000000E-03 0.  1.
        -12    1    3    3    0    0  0.27994289138E-01  0.12191029254E+01 -0.21265513213E+02  0.21300447128E+02  0.00000000000E+00 0.  1.
</event>
<event>
 7    1  0.5441610E-013  0.5052885E+02  0.7816164E-02  0.1300439E+00
        -11   -1    0    0    0    0  0.00000000000E+00  0.00000000000E+00  0.45593999997E+02  0.45594000000E+02  0.51100000000E-03 0. -1.
         11   -1    0    0    0    0 -0.00000000000E+00 -0.00000000000E+00 -0.45593999997E+02  0.45594000000E+02  0.51100000000E-03 0.  1.
    9900012    2    1    2    0    0 -0.12725973908E+02 -0.33843157763E+02  0.18597216079E+02  0.50528853609E+02  0.29999981031E+02 0.  0.
        -12    1    1    2    0    0  0.12725973908E+02  0.33843157763E+02 -0.18597216079E+02  0.40659146391E+02  0.00000000000E+00 0.  1.
         11    1    3    3    0    0 -0.56039371790E+01 -0.14672055614E+02  0.18825740436E+02  0.24516970267E+02  0.51100000000E-03 0. -1.
        -11    1    3    3    0    0 -0.15852869067E+01 -0.78219392359E+01  0.77094290839E+01  0.11096448308E+02  0.51100000000E-03 0.  1.
        -12    1    3    3    0    0 -0.55367498224E+01 -0.11349162913E+02 -0.79379534410E+01  0.14915435034E+02  0.00000000000E+00 0.  1.
</event>
<event>
 7    1  0.5441610E-013  0.5052882E+02  0.7816164E-02  0.1300439E+00
        -11   -1    0    0    0    0  0.00000000000E+00  0.00000000000E+00  0.45593999997E+02  0.45594000000E+02  0.51100000000E-03 0.  1.
         11   -1    0    0    0    0 -0.00000000000E+00 -0.00000000000E+00 -0.45593999997E+02  0.45594000000E+02  0.51100000000E-03 0. -1.
    9900012    2    1    2    0    0 -0.26974686190E+02  0.12308947717E+02 -0.27821300792E+02  0.50528823094E+02  0.29999888277E+02 0.  0.
        -12    1    1    2    0    0  0.26974686190E+02 -0.12308947717E+02  0.27821300792E+02  0.40659176906E+02  0.00000000000E+00 0.  1.
         11    1    3    3    0    0 -0.14539731404E+02  0.42055480470E+01 -0.27868265004E+02  0.31713256192E+02  0.51100000000E-03 0. -1.
        -11    1    3    3    0    0 -0.78070603432E+01  0.83917822087E+01 -0.45073226207E+01  0.12316174622E+02  0.51100000000E-03 0.  1.
        -12    1    3    3    0    0 -0.46278944426E+01 -0.28838253858E+00  0.45542868334E+01  0.64993922809E+01  0.00000000000E+00 0.  1.
</event>
<event>
 7    1  0.5441610E-013  0.5052886E+02  0.7816164E-02  0.1300439E+00
        -11   -1    0    0    0    0  0.00000000000E+00  0.00000000000E+00  0.45593999997E+02  0.45594000000E+02  0.51100000000E-03 0.  1.
         11   -1    0    0    0    0 -0.00000000000E+00 -0.00000000000E+00 -0.45593999997E+02  0.45594000000E+02  0.51100000000E-03 0. -1.
    9900012    2    1    2    0    0 -0.21136961066E+02 -0.19259833021E+02 -0.28904210017E+02  0.50528860218E+02  0.30000001119E+02 0.  0.
        -12    1    1    2    0    0  0.21136961066E+02  0.19259833021E+02  0.28904210017E+02  0.40659139782E+02  0.00000000000E+00 0.  1.
         11    1    3    3    0    0 -0.21453594405E+02 -0.11381590262E+02 -0.24676175733E+02  0.34622405446E+02  0.51100000000E-03 0. -1.
        -11    1    3    3    0    0 -0.65942983641E+00 -0.69033091304E+01 -0.87579978327E+01  0.11171081011E+02  0.51100000000E-03 0.  1.
        -12    1    3    3    0    0  0.97606317494E+00 -0.97493362876E+00  0.45299635492E+01  0.47353737613E+01  0.00000000000E+00 0.  1.
</event>
<event>
 7    1  0.5441610E-013  0.5052886E+02  0.7816164E-02  0.1300439E+00
        -11   -1    0    0    0    0  0.00000000000E+00  0.00000000000E+00  0.45593999997E+02  0.45594000000E+02  0.51100000000E-03 0.  1.
         11   -1    0    0    0    0 -0.00000000000E+00 -0.00000000000E+00 -0.45593999997E+02  0.45594000000E+02  0.51100000000E-03 0. -1.
    9900012    2    1    2    0    0  0.78670845435E+00  0.81932437771E+01 -0.39817306257E+02  0.50528855501E+02  0.29999986782E+02 0.  0.
        -12    1    1    2    0    0 -0.78670845435E+00 -0.81932437771E+01  0.39817306257E+02  0.40659144499E+02  0.00000000000E+00 0.  1.
         11    1    3    3    0    0 -0.38748086257E+01  0.97506777260E+01 -0.28524059834E+02  0.30392628180E+02  0.51100000000E-03 0. -1.
        -11    1    3    3    0    0 -0.55361879465E+01 -0.15067315522E+01 -0.70529485522E+01  0.90919580119E+01  0.51100000000E-03 0.  1.
         12    1    3    3    0    0  0.10197705027E+02 -0.50702396662E-01 -0.42402978708E+01  0.11044269309E+02  0.00000000000E+00 0. -1.
</event>
<event>
 7    1  0.5441610E-013  0.5052887E+02  0.7816164E-02  0.1300439E+00
        -11   -1    0    0    0    0  0.00000000000E+00  0.00000000000E+00  0.45593999997E+02  0.45594000000E+02  0.51100000000E-03 0. -1.
         11   -1    0    0    0    0 -0.00000000000E+00 -0.00000000000E+00 -0.45593999997E+02  0.45594000000E+02  0.51100000000E-03 0.  1.
    9900012    2    1    2    0    0  0.85209513387E+01 -0.20422163204E+02  0.34110024720E+02  0.50528866364E+02  0.30000019800E+02 0.  0.
        -12    1    1    2    0    0 -0.85209513387E+01  0.20422163204E+02 -0.34110024720E+02  0.40659133636E+02  0.00000000000E+00 0.  1.
         11    1    3    3    0    0  0.88394556561E+01 -0.25931631762E+02  0.20714656623E+02  0.34346506393E+02  0.51100000000E-03 0.  1.
        -11    1    3    3    0    0  0.12874149711E+01 -0.18064232605E+00  0.82280846632E+01  0.83301528463E+01  0.51100000000E-03 0. -1.
        -12    1    3    3    0    0 -0.16059192885E+01  0.56901108845E+01  0.51672834338E+01  0.78522071244E+01  0.00000000000E+00 0.  1.
</event>
<event>
 7    1  0.5441610E-013  0.5052886E+02  0.7816164E-02  0.1300439E+00
        -11   -1    0    0    0    0  0.00000000000E+00  0.00000000000E+00  0.45593999997E+02  0.45594000000E+02  0.51100000000E-03 0. -1.
         11   -1    0    0    0    0 -0.00000000000E+00 -0.00000000000E+00 -0.45593999997E+02  0.45594000000E+02  0.51100000000E-03 0.  1.
    9900012    2    1    2    0    0 -0.34074517028E+02  0.19433365782E+02  0.10697551771E+02  0.50528855516E+02  0.29999986826E+02 0.  0.
        -12    1    1    2    0    0  0.34074517028E+02 -0.19433365782E+02 -0.10697551771E+02  0.40659144484E+02  0.00000000000E+00 0.  1.
         11    1    3    3    0    0 -0.76379551079E+00 -0.52817553818E+00  0.17596768598E+01  0.19896773340E+01  0.51100000000E-03 0. -1.
        -11    1    3    3    0    0  0.17593054775E+01  0.21826272149E+01  0.87831685557E+01  0.92197108122E+01  0.51100000000E-03 0.  1.
         12    1    3    3    0    0 -0.35070026995E+02  0.17778914105E+02  0.15470635576E+00  0.39319467369E+02  0.00000000000E+00 0. -1.
</event>
<event>
 7    1  0.5441610E-013  0.5052884E+02  0.7816164E-02  0.1300439E+00
        -11   -1    0    0    0    0  0.00000000000E+00  0.00000000000E+00  0.45593999997E+02  0.45594000000E+02  0.51100000000E-03 0. -1.
         11   -1    0    0    0    0 -0.00000000000E+00 -0.00000000000E+00 -0.45593999997E+02  0.45594000000E+02  0.51100000000E-03 0.  1.
    9900012    2    1    2    0    0 -0.11552285363E+01 -0.39099522973E+02  0.11093246244E+02  0.50528839139E+02  0.29999937046E+02 0.  0.
        -12    1    1    2    0    0  0.11552285363E+01  0.39099522973E+02 -0.11093246244E+02  0.40659160861E+02  0.00000000000E+00 0.  1.
         11    1    3    3    0    0  0.55624700112E+01 -0.22191307755E+02  0.17531534638E+02  0.28822732687E+02  0.51100000000E-03 0.  1.
        -11    1    3    3    0    0 -0.44937443131E+01 -0.44034066177E+01  0.18282822521E+01  0.65518199034E+01  0.51100000000E-03 0. -1.
        -12    1    3    3    0    0 -0.22239542345E+01 -0.12504808600E+02 -0.82665706456E+01  0.15154286549E+02  0.00000000000E+00 0.  1.
</event>
<event>
 7    1  0.5441610E-013  0.5052885E+02  0.7816164E-02  0.1300439E+00
        -11   -1    0    0    0    0  0.00000000000E+00  0.00000000000E+00  0.45593999997E+02  0.45594000000E+02  0.51100000000E-03 0.  1.
         11   -1    0    0    0    0 -0.00000000000E+00 -0.00000000000E+00 -0.45593999997E+02  0.45594000000E+02  0.51100000000E-03 0. -1.
    9900012    2    1    2    0    0  0.10104372996E+02 -0.24971244032E+02 -0.30454962878E+02  0.50528854091E+02  0.29999982494E+02 0.  0.
        -12    1    1    2    0    0 -0.10104372996E+02  0.24971244032E+02  0.30454962878E+02  0.40659145909E+02  0.00000000000E+00 0.  1.
         11    1    3    3    0    0 -0.42664037600E+01 -0.27460613927E+01 -0.63015234716E+01  0.80902566425E+01  0.51100000000E-03 0. -1.
        -11    1    3    3    0    0  0.14498083068E+00  0.20921065408E+01  0.27668980861E+01  0.34718373377E+01  0.51100000000E-03 0.  1.
        -12    1    3    3    0    0  0.14225795926E+02 -0.24317289180E+02 -0.26920337493E+02  0.38966760111E+02  0.00000000000E+00 0.  1.
</event>
<event>
 7    1  0.5441610E-013  0.5052885E+02  0.7816164E-02  0.1300439E+00
        -11   -1    0    0    0    0  0.00000000000E+00  0.00000000000E+00  0.45593999997E+02  0.45594000000E+02  0.51100000000E-03 0.  1.
         11   -1    0    0    0    0 -0.00000000000E+00 -0.00000000000E+00 -0.45593999997E+02  0.45594000000E+02  0.51100000000E-03 0. -1.
    9900012    2    1    2    0    0 -0.11380485770E+02 -0.18148715143E+02 -0.34558290447E+02  0.50528846586E+02  0.29999959683E+02 0.  0.
        -12    1    1    2    0    0  0.11380485770E+02  0.18148715143E+02  0.34558290447E+02  0.40659153414E+02  0.00000000000E+00 0.  1.
         11    1    3    3    0    0 -0.10974722270E+02 -0.67002514648E+01 -0.15959221405E+02  0.20494746807E+02  0.51100000000E-03 0. -1.
        -11    1    3    3    0    0 -0.82281675767E+01 -0.11113634888E+02 -0.57254429470E+01  0.14966506583E+02  0.51100000000E-03 0.  1.
        -12    1    3    3    0    0  0.78224040762E+01 -0.33482878935E+00 -0.12873626096E+02  0.15067593195E+02  0.00000000000E+00 0.  1.
</event>
<event>
 7    1  0.5441610E-013  0.5052885E+02  0.7816164E-02  0.1300439E+00
        -11   -1    0    0    0    0  0.00000000000E+00  0.00000000000E+00  0.45593999997E+02  0.45594000000E+02  0.51100000000E-03 0. -1.
         11   -1    0    0    0    0 -0.00000000000E+00 -0.00000000000E+00 -0.45593999997E+02  0.45594000000E+02  0.51100000000E-03 0.  1.
    9900012    2    1    2    0    0 -0.36438332137E+02  0.14837631363E+02  0.10259582222E+02  0.50528851205E+02  0.29999973722E+02 0.  0.
        -12    1    1    2    0    0  0.36438332137E+02 -0.14837631363E+02 -0.10259582222E+02  0.40659148795E+02  0.00000000000E+00 0.  1.
         11    1    3    3    0    0 -0.20625602296E+01 -0.24510692947E+01  0.80383233783E+01  0.86531230422E+01  0.51100000000E-03 0. -1.
        -11    1    3    3    0    0 -0.56588784143E-01  0.34496154807E+01 -0.29148587746E+01  0.45165751618E+01  0.51100000000E-03 0.  1.
         12    1    3    3    0    0 -0.34319183123E+02  0.13839085177E+02  0.51361176186E+01  0.37359153001E+02  0.00000000000E+00 0. -1.
</event>
<event>
 7    1  0.5441610E-013  0.5052886E+02  0.7816164E-02  0.1300439E+00
        -11   -1    0    0    0    0  0.00000000000E+00  0.00000000000E+00  0.45593999997E+02  0.45594000000E+02  0.51100000000E-03 0. -1.
         11   -1    0    0    0    0 -0.00000000000E+00 -0.00000000000E+00 -0.45593999997E+02  0.45594000000E+02  0.51100000000E-03 0.  1.
    9900012    2    1    2    0    0 -0.30309756684E+02  0.26895323613E+02  0.33355479939E+01  0.50528860032E+02  0.30000000553E+02 0.  0.
        -12    1    1    2    0    0  0.30309756684E+02 -0.26895323613E+02 -0.33355479939E+01  0.40659139968E+02  0.00000000000E+00 0.  1.
         11    1    3    3    0    0 -0.17075749983E+02  0.26451822071E+02  0.16024854779E+01  0.31525356276E+02  0.51100000000E-03 0. -1.
        -11    1    3    3    0    0  0.16532728865E+01  0.33403857291E+01 -0.87220041863E-01  0.37281490922E+01  0.51100000000E-03 0.  1.
        -12    1    3    3    0    0 -0.14887279588E+02 -0.28968841867E+01  0.18202825579E+01  0.15275354664E+02  0.00000000000E+00 0.  1.
</event>
<event>
 7    1  0.5441610E-013  0.5052887E+02  0.7816164E-02  0.1300439E+00
        -11   -1    0    0    0    0  0.00000000000E+00  0.00000000000E+00  0.45593999997E+02  0.45594000000E+02  0.51100000000E-03 0.  1.
         11   -1    0    0    0    0 -0.00000000000E+00 -0.00000000000E+00 -0.45593999997E+02  0.45594000000E+02  0.51100000000E-03 0. -1.
    9900012    2    1    2    0    0  0.15794761401E+02  0.64550620263E+00 -0.37460300085E+02  0.50528865129E+02  0.30000016047E+02 0.  0.
        -12    1    1    2    0    0 -0.15794761401E+02 -0.64550620263E+00  0.37460300085E+02  0.40659134871E+02  0.00000000000E+00 0.  1.
         11    1    3    3    0    0  0.99334377011E+01  0.94133186237E+01 -0.32800782118E+02  0.35541174149E+02  0.51100000000E-03 0. -1.
        -11    1    3    3    0    0  0.22852063527E+01 -0.30223858440E+01 -0.68891462133E+01  0.78623991297E+01  0.51100000000E-03 0.  1.
        -12    1    3    3    0    0  0.35761173475E+01 -0.57454265771E+01  0.22296282465E+01  0.71252918504E+01  0.00000000000E+00 0.  1.
</event>
<event>
 7    1  0.5441610E-013  0.5052887E+02  0.7816164E-02  0.1300439E+00
        -11   -1    0    0    0    0  0.00000000000E+00  0.00000000000E+00  0.45593999997E+02  0.45594000000E+02  0.51100000000E-03 0.  1.
         11   -1    0    0    0    0 -0.00000000000E+00 -0.00000000000E+00 -0.45593999997E+02  0.45594000000E+02  0.51100000000E-03 0. -1.
    9900012    2    1    2    0    0 -0.53046155800E+01  0.20303805343E+02 -0.34825007170E+02  0.50528873321E+02  0.30000040947E+02 0.  0.
        -12    1    1    2    0    0  0.53046155800E+01 -0.20303805343E+02  0.34825007170E+02  0.40659126679E+02  0.00000000000E+00 0.  1.
         11    1    3    3    0    0 -0.50529952386E+01  0.18997766924E+02 -0.20051986138E+02  0.28080777363E+02  0.51100000000E-03 0. -1.
        -11    1    3    3    0    0  0.12245598611E+01  0.37366605134E+00 -0.18388548999E+02  0.18433065609E+02  0.51100000000E-03 0.  1.
         12    1    3    3    0    0 -0.14761802024E+01  0.93237236826E+00  0.36155279675E+01  0.40150303494E+01  0.00000000000E+00 0. -1.
</event>
<event>
 7    1  0.5441610E-013  0.5052889E+02  0.7816164E-02  0.1300439E+00
        -11   -1    0    0    0    0  0.00000000000E+00  0.00000000000E+00  0.45593999997E+02  0.45594000000E+02  0.51100000000E-03 0.  1.
         11   -1    0    0    0    0 -0.00000000000E+00 -0.00000000000E+00 -0.45593999997E+02  0.45594000000E+02  0.51100000000E-03 0. -1.
    9900012    2    1    2    0    0 -0.21029321686E+02  0.27095133960E+02 -0.21835396389E+02  0.50528890438E+02  0.30000092974E+02 0.  0.
        -12    1    1    2    0    0  0.21029321686E+02 -0.27095133960E+02  0.21835396389E+02  0.40659109562E+02  0.00000000000E+00 0.  1.
         11    1    3    3    0    0 -0.43619583429E+01  0.23467523889E+01  0.60457171559E+01  0.78156652660E+01  0.51100000000E-03 0. -1.
        -11    1    3    3    0    0 -0.99350337482E+01  0.11033637050E+02 -0.59726840870E+01  0.16003718242E+02  0.51100000000E-03 0.  1.
         12    1    3    3    0    0 -0.67323295952E+01  0.13714744522E+02 -0.21908429458E+02  0.26709506929E+02  0.00000000000E+00 0. -1.
</event>
<event>
 7    1  0.5441610E-013  0.5052885E+02  0.7816164E-02  0.1300439E+00
        -11   -1    0    0    0    0  0.00000000000E+00  0.00000000000E+00  0.45593999997E+02  0.45594000000E+02  0.51100000000E-03 0.  1.
         11   -1    0    0    0    0 -0.00000000000E+00 -0.00000000000E+00 -0.45593999997E+02  0.45594000000E+02  0.51100000000E-03 0. -1.
    9900012    2    1    2    0    0  0.35481603436E+02 -0.74997312752E+01 -0.18384131673E+02  0.50528850366E+02  0.29999971172E+02 0.  0.
        -12    1    1    2    0    0 -0.35481603436E+02  0.74997312752E+01  0.18384131673E+02  0.40659149634E+02  0.00000000000E+00 0.  1.
         11    1    3    3    0    0  0.64259111008E+00 -0.14864321403E+01 -0.94602394237E+01  0.95978400725E+01  0.51100000000E-03 0. -1.
        -11    1    3    3    0    0  0.55061788611E+01 -0.77831840223E+01  0.16981763977E+01  0.96839951732E+01  0.51100000000E-03 0.  1.
        -12    1    3    3    0    0  0.29332833465E+02  0.17698848873E+01 -0.10622068647E+02  0.31247015120E+02  0.00000000000E+00 0.  1.
</event>
<event>
 7    1  0.5441610E-013  0.5052886E+02  0.7816164E-02  0.1300439E+00
        -11   -1    0    0    0    0  0.00000000000E+00  0.00000000000E+00  0.45593999997E+02  0.45594000000E+02  0.51100000000E-03 0.  1.
         11   -1    0    0    0    0 -0.00000000000E+00 -0.00000000000E+00 -0.45593999997E+02  0.45594000000E+02  0.51100000000E-03 0. -1.
    9900012    2    1    2    0    0 -0.29677345933E+02  0.22466170278E+02 -0.16361286955E+02  0.50528863519E+02  0.30000011151E+02 0.  0.
        -12    1    1    2    0    0  0.29677345933E+02 -0.22466170278E+02  0.16361286955E+02  0.40659136481E+02  0.00000000000E+00 0.  1.
         11    1    3    3    0    0 -0.12403076480E+02  0.17293131805E+02 -0.17146620270E+00  0.21281872914E+02  0.51100000000E-03 0. -1.
        -11    1    3    3    0    0 -0.16538092684E+02  0.46425331253E+01 -0.48196956413E+01  0.17840714385E+02  0.51100000000E-03 0.  1.
        -12    1    3    3    0    0 -0.73617676851E+00  0.53050534775E+00 -0.11370125111E+02  0.11406276219E+02  0.00000000000E+00 0.  1.
</event>
<event>
 7    1  0.5441610E-013  0.5052887E+02  0.7816164E-02  0.1300439E+00
        -11   -1    0    0    0    0  0.00000000000E+00  0.00000000000E+00  0.45593999997E+02  0.45594000000E+02  0.51100000000E-03 0. -1.
         11   -1    0    0    0    0 -0.00000000000E+00 -0.00000000000E+00 -0.45593999997E+02  0.45594000000E+02  0.51100000000E-03 0.  1.
    9900012    2    1    2    0    0 -0.66383661588E+01 -0.44501179571E+01  0.39865946928E+02  0.50528865976E+02  0.30000018620E+02 0.  0.
        -12    1    1    2    0    0  0.66383661588E+01  0.44501179571E+01 -0.39865946928E+02  0.40659134024E+02  0.00000000000E+00 0.  1.
         11    1    3    3    0    0 -0.53689998088E+01  0.39859778256E+01  0.14213842297E+02  0.15708198218E+02  0.51100000000E-03 0. -1.
        -11    1    3    3    0    0 -0.11140934080E+02 -0.72613829463E+01  0.17404900161E+02  0.21903849989E+02  0.51100000000E-03 0.  1.
         12    1    3    3    0    0  0.98715677295E+01 -0.11747128364E+01  0.82472044704E+01  0.12916817768E+02  0.00000000000E+00 0. -1.
</event>
<event>
 7    1  0.5441610E-013  0.5052882E+02  0.7816164E-02  0.1300439E+00
        -11   -1    0    0    0    0  0.00000000000E+00  0.00000000000E+00  0.45593999997E+02  0.45594000000E+02  0.51100000000E-03 0.  1.
         11   -1    0    0    0    0 -0.00000000000E+00 -0.00000000000E+00 -0.45593999997E+02  0.45594000000E+02  0.51100000000E-03 0. -1.
    9900012    2    1    2    0    0  0.54461956656E+01  0.28337575353E+02 -0.28644186209E+02  0.50528823573E+02  0.29999889733E+02 0.  0.
        -12    1    1    2    0    0 -0.54461956656E+01 -0.28337575353E+02  0.28644186209E+02  0.40659176427E+02  0.00000000000E+00 0.  1.
         11    1    3    3    0    0 -0.34517288464E+01 -0.17039969438E+01 -0.28420288812E+01  0.47848893442E+01  0.51100000000E-03 0. -1.
        -11    1    3    3    0    0  0.52935918829E+01  0.17983907373E+02 -0.20432931521E+01  0.18857838863E+02  0.51100000000E-03 0.  1.
         12    1    3    3    0    0  0.36043326291E+01  0.12057664924E+02 -0.23758864176E+02  0.26886095366E+02  0.00000000000E+00 0. -1.
</event>
<event>
 7    1  0.5441610E-013  0.5052886E+02  0.7816164E-02  0.1300439E+00
        -11   -1    0    0    0    0  0.00000000000E+00  0.00000000000E+00  0.45593999997E+02  0.45594000000E+02  0.51100000000E-03 0. -1.
         11   -1    0    0    0    0 -0.00000000000E+00 -0.00000000000E+00 -0.45593999997E+02  0.45594000000E+02  0.51100000000E-03 0.  1.
    9900012    2    1    2    0    0 -0.26809185654E+02 -0.22338897243E+02  0.20866410637E+02  0.50528857629E+02  0.29999993249E+02 0.  0.
        -12    1    1    2    0    0  0.26809185654E+02  0.22338897243E+02 -0.20866410637E+02  0.40659142371E+02  0.00000000000E+00 0.  1.
         11    1    3    3    0    0 -0.23867826239E+02 -0.12857915182E+02  0.24657157951E+02  0.36646617179E+02  0.51100000000E-03 0. -1.
        -11    1    3    3    0    0 -0.45882739523E+01 -0.66598719269E+01  0.93081846449E+00  0.81407969646E+01  0.51100000000E-03 0.  1.
        -12    1    3    3    0    0  0.16469145367E+01 -0.28211101346E+01 -0.47215657793E+01  0.57414434849E+01  0.00000000000E+00 0.  1.
</event>
<event>
 7    1  0.5441610E-013  0.5052885E+02  0.7816164E-02  0.1300439E+00
        -11   -1    0    0    0    0  0.00000000000E+00  0.00000000000E+00  0.45593999997E+02  0.45594000000E+02  0.51100000000E-03 0.  1.
         11   -1    0    0    0    0 -0.00000000000E+00 -0.00000000000E+00 -0.45593999997E+02  0.45594000000E+02  0.51100000000E-03 0. -1.
    9900012    2    1    2    0    0 -0.10032790157E+00 -0.83352826414E+01 -0.39795466667E+02  0.50528853801E+02  0.29999981614E+02 0.  0.
        -12    1    1    2    0    0  0.10032790157E+00  0.83352826414E+01  0.39795466667E+02  0.40659146199E+02  0.00000000000E+00 0.  1.
         11    1    3    3    0    0 -0.32515321481E+01  0.10001381040E+02 -0.21694349697E+02  0.24109020989E+02  0.51100000000E-03 0.  1.
        -11    1    3    3    0    0 -0.10281388667E+01 -0.79709140240E+01 -0.68352036680E+01  0.10550476262E+02  0.51100000000E-03 0. -1.
        -12    1    3    3    0    0  0.41793431132E+01 -0.10365749657E+02 -0.11265913302E+02  0.15869356551E+02  0.00000000000E+00 0.  1.
</event>
<event>
 7    1  0.5441610E-013  0.5052887E+02  0.7816164E-02  0.1300439E+00
        -11   -1    0    0    0    0  0.00000000000E+00  0.00000000000E+00  0.45593999997E+02  0.45594000000E+02  0.51100000000E-03 0.  1.
         11   -1    0    0    0    0 -0.00000000000E+00 -0.00000000000E+00 -0.45593999997E+02  0.45594000000E+02  0.51100000000E-03 0. -1.
    9900012    2    1    2    0    0 -0.46430480902E+01  0.74098822030E+01 -0.39707691731E+02  0.50528867785E+02  0.30000024119E+02 0.  0.
        -12    1    1    2    0    0  0.46430480902E+01 -0.74098822030E+01  0.39707691731E+02  0.40659132215E+02  0.00000000000E+00 0.  1.
         11    1    3    3    0    0  0.10784988634E+01 -0.22181541752E+01 -0.18596484813E+02  0.18759334087E+02  0.51100000000E-03 0. -1.
        -11    1    3    3    0    0  0.44466972872E+01  0.93659830881E+01 -0.18596895610E+02  0.21291765604E+02  0.51100000000E-03 0.  1.
         12    1    3    3    0    0 -0.10168244241E+02  0.26205329012E+00 -0.25143113094E+01  0.10477768094E+02  0.00000000000E+00 0. -1.
</event>
<event>
 7    1  0.5441610E-013  0.5052885E+02  0.7816164E-02  0.1300439E+00
        -11   -1    0    0    0    0  0.00000000000E+00  0.00000000000E+00  0.45593999997E+02  0.45594000000E+02  0.51100000000E-03 0. -1.
         11   -1    0    0    0    0 -0.00000000000E+00 -0.00000000000E+00 -0.45593999997E+02  0.45594000000E+02  0.51100000000E-03 0.  1.
    9900012    2    1    2    0    0 -0.29487208676E+01 -0.36309137725E+02 -0.18058738074E+02  0.50528850256E+02  0.29999970837E+02 0.  0.
        -12    1    1    2    0    0  0.29487208676E+01  0.36309137725E+02  0.18058738074E+02  0.40659149744E+02  0.00000000000E+00 0.  1.
         11    1    3    3    0    0  0.23916577539E+01 -0.46902722665E+01  0.27395895328E+01  0.59349837250E+01  0.51100000000E-03 0. -1.
        -11    1    3    3    0    0  0.64414931984E+01 -0.14281210013E+02 -0.17304070173E+02  0.23342592805E+02  0.51100000000E-03 0.  1.
         12    1    3    3    0    0 -0.11781871820E+02 -0.17337655446E+02 -0.34942574334E+01  0.21251273725E+02  0.00000000000E+00 0. -1.
</event>
<event>
 7    1  0.5441610E-013  0.5052886E+02  0.7816164E-02  0.1300439E+00
        -11   -1    0    0    0    0  0.00000000000E+00  0.00000000000E+00  0.45593999997E+02  0.45594000000E+02  0.51100000000E-03 0.  1.
         11   -1    0    0    0    0 -0.00000000000E+00 -0.00000000000E+00 -0.45593999997E+02  0.45594000000E+02  0.51100000000E-03 0. -1.
    9900012    2    1    2    0    0 -0.20697454862E+02 -0.97578869382E+01 -0.33608997512E+02  0.50528859465E+02  0.29999998829E+02 0.  0.
        -12    1    1    2    0    0  0.20697454862E+02  0.97578869382E+01  0.33608997512E+02  0.40659140535E+02  0.00000000000E+00 0.  1.
         11    1    3    3    0    0 -0.46027133372E+01  0.68096189062E+01 -0.51263798564E+01  0.96868803237E+01  0.51100000000E-03 0. -1.
        -11    1    3    3    0    0  0.32295758631E+00  0.30745994538E+01 -0.60930783965E+01  0.68325008606E+01  0.51100000000E-03 0.  1.
         12    1    3    3    0    0 -0.16417699112E+02 -0.19642105298E+02 -0.22389539259E+02  0.34009478280E+02  0.00000000000E+00 0. -1.
</event>
<event>
 7    1  0.5441610E-013  0.5052886E+02  0.7816164E-02  0.1300439E+00
        -11   -1    0    0    0    0  0.00000000000E+00  0.00000000000E+00  0.45593999997E+02  0.45594000000E+02  0.51100000000E-03 0.  1.
         11   -1    0    0    0    0 -0.00000000000E+00 -0.00000000000E+00 -0.45593999997E+02  0.45594000000E+02  0.51100000000E-03 0. -1.
    9900012    2    1    2    0    0  0.11903290780E+02  0.21804504841E+02 -0.32187583023E+02  0.50528864943E+02  0.30000015480E+02 0.  0.
        -12    1    1    2    0    0 -0.11903290780E+02 -0.21804504841E+02  0.32187583023E+02  0.40659135057E+02  0.00000000000E+00 0.  1.
         11    1    3    3    0    0  0.90327335568E+01  0.82148852891E-01 -0.81022991302E+01  0.12134425219E+02  0.51100000000E-03 0. -1.
        -11    1    3    3    0    0 -0.42215508210E+01  0.36460944265E+01 -0.16721369418E+02  0.17627242875E+02  0.51100000000E-03 0.  1.
         12    1    3    3    0    0  0.70921080442E+01  0.18076261561E+02 -0.73639144746E+01  0.20767196848E+02  0.00000000000E+00 0. -1.
</event>
<event>
 7    1  0.5441610E-013  0.5052886E+02  0.7816164E-02  0.1300439E+00
        -11   -1    0    0    0    0  0.00000000000E+00  0.00000000000E+00  0.45593999997E+02  0.45594000000E+02  0.51100000000E-03 0.  1.
         11   -1    0    0    0    0 -0.00000000000E+00 -0.00000000000E+00 -0.45593999997E+02  0.45594000000E+02  0.51100000000E-03 0. -1.
    9900012    2    1    2    0    0  0.15581906522E+02  0.14192691101E+02 -0.34769781265E+02  0.50528856123E+02  0.29999988673E+02 0.  0.
        -12    1    1    2    0    0 -0.15581906522E+02 -0.14192691101E+02  0.34769781265E+02  0.40659143877E+02  0.00000000000E+00 0.  1.
         11    1    3    3    0    0 -0.11283355002E+00 -0.64426386907E+01 -0.91143268390E+01  0.11162046349E+02  0.51100000000E-03 0. -1.
        -11    1    3    3    0    0 -0.10987760231E+01  0.38598428846E+01  0.50226926969E+00  0.40444987975E+01  0.51100000000E-03 0.  1.
        -12    1    3    3    0    0  0.16793516095E+02  0.16775486907E+02 -0.26157723696E+02  0.35322310977E+02  0.00000000000E+00 0.  1.
</event>
<event>
 7    1  0.5441610E-013  0.5052887E+02  0.7816164E-02  0.1300439E+00
        -11   -1    0    0    0    0  0.00000000000E+00  0.00000000000E+00  0.45593999997E+02  0.45594000000E+02  0.51100000000E-03 0. -1.
         11   -1    0    0    0    0 -0.00000000000E+00 -0.00000000000E+00 -0.45593999997E+02  0.45594000000E+02  0.51100000000E-03 0.  1.
    9900012    2    1    2    0    0  0.13115406471E+02 -0.18391998734E+02  0.33806589585E+02  0.50528868139E+02  0.30000025195E+02 0.  0.
        -12    1    1    2    0    0 -0.13115406471E+02  0.18391998734E+02 -0.33806589585E+02  0.40659131861E+02  0.00000000000E+00 0.  1.
         11    1    3    3    0    0  0.25928223364E+01 -0.85871668116E+01  0.25696697256E+02  0.27217318230E+02  0.51100000000E-03 0. -1.
        -11    1    3    3    0    0  0.75748831788E+01 -0.11344979148E+02  0.12017755838E+02  0.18180040228E+02  0.51100000000E-03 0.  1.
        -12    1    3    3    0    0  0.29477009557E+01  0.15401472257E+01 -0.39078635087E+01  0.51315096808E+01  0.00000000000E+00 0.  1.
</event>
<event>
 7    1  0.5550244E-013  0.5052885E+02  0.7816164E-02  0.1300439E+00
        -11   -1    0    0    0    0  0.00000000000E+00  0.00000000000E+00  0.45593999997E+02  0.45594000000E+02  0.51100000000E-03 0.  1.
         11   -1    0    0    0    0 -0.00000000000E+00 -0.00000000000E+00 -0.45593999997E+02  0.45594000000E+02  0.51100000000E-03 0. -1.
    9900012    2    1    2    0    0 -0.33663905680E+02  0.21218274259E+02 -0.83482028670E+01  0.50528853437E+02  0.29999980506E+02 0.  0.
        -12    1    1    2    0    0  0.33663905680E+02 -0.21218274259E+02  0.83482028670E+01  0.40659146563E+02  0.00000000000E+00 0.  1.
         11    1    3    3    0    0 -0.23526114944E+02  0.18860102494E+02 -0.10051635279E+02  0.31783909805E+02  0.51100000000E-03 0. -1.
        -11    1    3    3    0    0 -0.18571907779E+00  0.48562602507E+01 -0.46090852452E+01  0.66978669931E+01  0.51100000000E-03 0.  1.
        -12    1    3    3    0    0 -0.99520716576E+01 -0.24980884860E+01  0.63125176569E+01  0.12047076638E+02  0.00000000000E+00 0.  1.
</event>
<event>
 7    1  0.5441610E-013  0.5052887E+02  0.7816164E-02  0.1300439E+00
        -11   -1    0    0    0    0  0.00000000000E+00  0.00000000000E+00  0.45593999997E+02  0.45594000000E+02  0.51100000000E-03 0.  1.
         11   -1    0    0    0    0 -0.00000000000E+00 -0.00000000000E+00 -0.45593999997E+02  0.45594000000E+02  0.51100000000E-03 0. -1.
    9900012    2    1    2    0    0 -0.23357678192E+02  0.11565998868E+02 -0.31205949900E+02  0.50528871019E+02  0.30000033951E+02 0.  0.
        -12    1    1    2    0    0  0.23357678192E+02 -0.11565998868E+02  0.31205949900E+02  0.40659128981E+02  0.00000000000E+00 0.  1.
         11    1    3    3    0    0 -0.10641126626E+02  0.16217118508E+02 -0.22153405463E+02  0.29444895695E+02  0.51100000000E-03 0. -1.
        -11    1    3    3    0    0 -0.10179672666E+02  0.28338140635E+01 -0.76791362305E+01  0.13062364688E+02  0.51100000000E-03 0.  1.
        -12    1    3    3    0    0 -0.25368788995E+01 -0.74849337041E+01 -0.13734082060E+01  0.80216106366E+01  0.00000000000E+00 0.  1.
</event>
<event>
 7    1  0.5441610E-013  0.5052886E+02  0.7816164E-02  0.1300439E+00
        -11   -1    0    0    0    0  0.00000000000E+00  0.00000000000E+00  0.45593999997E+02  0.45594000000E+02  0.51100000000E-03 0. -1.
         11   -1    0    0    0    0 -0.00000000000E+00 -0.00000000000E+00 -0.45593999997E+02  0.45594000000E+02  0.51100000000E-03 0.  1.
    9900012    2    1    2    0    0 -0.12378478794E+02 -0.12887457170E+02  0.36521946266E+02  0.50528857749E+02  0.29999993614E+02 0.  0.
        -12    1    1    2    0    0  0.12378478794E+02  0.12887457170E+02 -0.36521946266E+02  0.40659142251E+02  0.00000000000E+00 0.  1.
         11    1    3    3    0    0  0.48096163129E+01 -0.71329125052E+01  0.19372955896E+02  0.21197223174E+02  0.51100000000E-03 0. -1.
        -11    1    3    3    0    0 -0.54153663315E+01  0.53424336692E+01  0.50774774699E+01  0.91459590931E+01  0.51100000000E-03 0.  1.
         12    1    3    3    0    0 -0.11772728775E+02 -0.11096978334E+02  0.12071512899E+02  0.20185675481E+02  0.00000000000E+00 0. -1.
</event>
<event>
 7    1  0.5441610E-013  0.5052886E+02  0.7816164E-02  0.1300439E+00
        -11   -1    0    0    0    0  0.00000000000E+00  0.00000000000E+00  0.45593999997E+02  0.45594000000E+02  0.51100000000E-03 0.  1.
         11   -1    0    0    0    0 -0.00000000000E+00 -0.00000000000E+00 -0.45593999997E+02  0.45594000000E+02  0.51100000000E-03 0. -1.
    9900012    2    1    2    0    0 -0.21767149138E+02  0.32996580225E+02 -0.95174961903E+01  0.50528858077E+02  0.29999994612E+02 0.  0.
        -12    1    1    2    0    0  0.21767149138E+02 -0.32996580225E+02  0.95174961903E+01  0.40659141923E+02  0.00000000000E+00 0.  1.
         11    1    3    3    0    0 -0.16978700402E+02  0.16312442907E+02 -0.12760324747E+02  0.26780551690E+02  0.51100000000E-03 0. -1.
        -11    1    3    3    0    0 -0.91297991886E+01  0.80495024294E+01  0.61754390502E+01  0.13648581256E+02  0.51100000000E-03 0.  1.
        -12    1    3    3    0    0  0.43413504523E+01  0.86346348889E+01 -0.29326104935E+01  0.10099725131E+02  0.00000000000E+00 0.  1.
</event>
<event>
 7    1  0.5441610E-013  0.5052886E+02  0.7816164E-02  0.1300439E+00
        -11   -1    0    0    0    0  0.00000000000E+00  0.00000000000E+00  0.45593999997E+02  0.45594000000E+02  0.51100000000E-03 0.  1.
         11   -1    0    0    0    0 -0.00000000000E+00 -0.00000000000E+00 -0.45593999997E+02  0.45594000000E+02  0.51100000000E-03 0. -1.
    9900012    2    1    2    0    0  0.33112510046E+02 -0.14612456552E+02  0.18525759261E+02  0.50528856327E+02  0.29999989292E+02 0.  0.
        -12    1    1    2    0    0 -0.33112510046E+02  0.14612456552E+02 -0.18525759261E+02  0.40659143673E+02  0.00000000000E+00 0.  1.
         11    1    3    3    0    0  0.14814548977E+02 -0.23583663908E+01 -0.38054187148E+01  0.15476238732E+02  0.51100000000E-03 0. -1.
        -11    1    3    3    0    0 -0.19853107297E+01 -0.51561062912E+01  0.43222673089E+01  0.70149045418E+01  0.51100000000E-03 0.  1.
         12    1    3    3    0    0  0.20283271798E+02 -0.70979838699E+01  0.18008910667E+02  0.28037713054E+02  0.00000000000E+00 0. -1.
</event>
<event>
 7    1  0.5441610E-013  0.5052886E+02  0.7816164E-02  0.1300439E+00
        -11   -1    0    0    0    0  0.00000000000E+00  0.00000000000E+00  0.45593999997E+02  0.45594000000E+02  0.51100000000E-03 0.  1.
         11   -1    0    0    0    0 -0.00000000000E+00 -0.00000000000E+00 -0.45593999997E+02  0.45594000000E+02  0.51100000000E-03 0. -1.
    9900012    2    1    2    0    0  0.99299923578E+01  0.23591046327E+02 -0.31591508696E+02  0.50528860354E+02  0.30000001532E+02 0.  0.
        -12    1    1    2    0    0 -0.99299923578E+01 -0.23591046327E+02  0.31591508696E+02  0.40659139646E+02  0.00000000000E+00 0.  1.
         11    1    3    3    0    0  0.13118076801E+02  0.12897122266E+02 -0.10854801028E+02  0.21359925265E+02  0.51100000000E-03 0. -1.
        -11    1    3    3    0    0  0.18605146538E+01  0.19043705211E+01  0.26028589769E+01  0.37233072628E+01  0.51100000000E-03 0.  1.
         12    1    3    3    0    0 -0.50485990972E+01  0.87895535395E+01 -0.23339566646E+02  0.25445627826E+02  0.00000000000E+00 0. -1.
</event>
<event>
 7    1  0.5441610E-013  0.5052888E+02  0.7816164E-02  0.1300439E+00
        -11   -1    0    0    0    0  0.00000000000E+00  0.00000000000E+00  0.45593999997E+02  0.45594000000E+02  0.51100000000E-03 0.  1.
         11   -1    0    0    0    0 -0.00000000000E+00 -0.00000000000E+00 -0.45593999997E+02  0.45594000000E+02  0.51100000000E-03 0. -1.
    9900012    2    1    2    0    0 -0.67320303744E+01  0.97991839499E+01 -0.38882125600E+02  0.50528881340E+02  0.30000065320E+02 0.  0.
        -12    1    1    2    0    0  0.67320303744E+01 -0.97991839499E+01  0.38882125600E+02  0.40659118660E+02  0.00000000000E+00 0.  1.
         11    1    3    3    0    0  0.26172879874E+01 -0.16000513837E+01 -0.53517020418E+00  0.31139634307E+01  0.51100000000E-03 0. -1.
        -11    1    3    3    0    0 -0.70219167669E+01  0.17203283518E+02 -0.17047960992E+02  0.25216923943E+02  0.51100000000E-03 0.  1.
         12    1    3    3    0    0 -0.23274015950E+01 -0.58040481845E+01 -0.21298994404E+02  0.22197993966E+02  0.00000000000E+00 0. -1.
</event>
<event>
 7    1  0.5441610E-013  0.5052887E+02  0.7816164E-02  0.1300439E+00
        -11   -1    0    0    0    0  0.00000000000E+00  0.00000000000E+00  0.45593999997E+02  0.45594000000E+02  0.51100000000E-03 0.  1.
         11   -1    0    0    0    0 -0.00000000000E+00 -0.00000000000E+00 -0.45593999997E+02  0.45594000000E+02  0.51100000000E-03 0. -1.
    9900012    2    1    2    0    0 -0.38768777040E+02 -0.71788686874E+01  0.99303052643E+01  0.50528865830E+02  0.30000018177E+02 0.  0.
        -12    1    1    2    0    0  0.38768777040E+02  0.71788686874E+01 -0.99303052643E+01  0.40659134170E+02  0.00000000000E+00 0.  1.
         11    1    3    3    0    0 -0.63559358494E+00  0.57151385414E+01  0.12962823691E+01  0.58946701344E+01  0.51100000000E-03 0. -1.
        -11    1    3    3    0    0 -0.86021700373E+01 -0.34890535214E+01 -0.52603615776E+01  0.10669687344E+02  0.51100000000E-03 0.  1.
        -12    1    3    3    0    0 -0.29531013418E+02 -0.94049537073E+01  0.13894384473E+02  0.33964508352E+02  0.00000000000E+00 0.  1.
</event>
<event>
 7    1  0.5441610E-013  0.5052886E+02  0.7816164E-02  0.1300439E+00
        -11   -1    0    0    0    0  0.00000000000E+00  0.00000000000E+00  0.45593999997E+02  0.45594000000E+02  0.51100000000E-03 0.  1.
         11   -1    0    0    0    0 -0.00000000000E+00 -0.00000000000E+00 -0.45593999997E+02  0.45594000000E+02  0.51100000000E-03 0. -1.
    9900012    2    1    2    0    0  0.40485464942E+02  0.85356891426E+00 -0.36556856721E+01  0.50528862169E+02  0.30000007048E+02 0.  0.
        -12    1    1    2    0    0 -0.40485464942E+02 -0.85356891426E+00  0.36556856721E+01  0.40659137831E+02  0.00000000000E+00 0.  1.
         11    1    3    3    0    0  0.18331271092E+02 -0.87361105542E+01  0.12729811955E-01  0.20306533179E+02  0.51100000000E-03 0. -1.
        -11    1    3    3    0    0  0.54770674866E+01  0.35694951125E+01  0.69611478774E+01  0.95497195584E+01  0.51100000000E-03 0.  1.
         12    1    3    3    0    0  0.16677126364E+02  0.60201843559E+01 -0.10629563361E+02  0.20672609431E+02  0.00000000000E+00 0. -1.
</event>
<event>
 7    1  0.5441610E-013  0.5052887E+02  0.7816164E-02  0.1300439E+00
        -11   -1    0    0    0    0  0.00000000000E+00  0.00000000000E+00  0.45593999997E+02  0.45594000000E+02  0.51100000000E-03 0. -1.
         11   -1    0    0    0    0 -0.00000000000E+00 -0.00000000000E+00 -0.45593999997E+02  0.45594000000E+02  0.51100000000E-03 0.  1.
    9900012    2    1    2    0    0 -0.16853186700E+02 -0.28207803066E+02  0.23946924583E+02  0.50528865076E+02  0.30000015885E+02 0.  0.
        -12    1    1    2    0    0  0.16853186700E+02  0.28207803066E+02 -0.23946924583E+02  0.40659134924E+02  0.00000000000E+00 0.  1.
         11    1    3    3    0    0 -0.12261764528E+02 -0.68084182241E+01  0.20097779772E+02  0.24507675942E+02  0.51100000000E-03 0. -1.
        -11    1    3    3    0    0  0.35900578521E+01 -0.66852289214E+01  0.50940133128E+01  0.91394624025E+01  0.51100000000E-03 0.  1.
        -12    1    3    3    0    0 -0.81814800244E+01 -0.14714155921E+02 -0.12448685019E+01  0.16881726731E+02  0.00000000000E+00 0.  1.
</event>
<event>
 7    1  0.7317510E-013  0.5052886E+02  0.7816164E-02  0.1300439E+00
        -11   -1    0    0    0    0  0.00000000000E+00  0.00000000000E+00  0.45593999997E+02  0.45594000000E+02  0.51100000000E-03 0. -1.
         11   -1    0    0    0    0 -0.00000000000E+00 -0.00000000000E+00 -0.45593999997E+02  0.45594000000E+02  0.51100000000E-03 0.  1.
    9900012    2    1    2    0    0  0.31144945503E+02  0.16237339059E+02  0.20481868740E+02  0.50528858873E+02  0.29999997031E+02 0.  0.
        -12    1    1    2    0    0 -0.31144945503E+02 -0.16237339059E+02 -0.20481868740E+02  0.40659141127E+02  0.00000000000E+00 0.  1.
         11    1    3    3    0    0  0.16960787592E+02  0.14872131229E+02  0.56088383601E+01  0.23244519161E+02  0.51100000000E-03 0.  1.
        -11    1    3    3    0    0 -0.88276252898E+00  0.46334577615E+01 -0.13477948275E+01  0.49055837235E+01  0.51100000000E-03 0. -1.
        -12    1    3    3    0    0  0.15066920440E+02 -0.32682499323E+01  0.16220825207E+02  0.22378755988E+02  0.00000000000E+00 0.  1.
</event>
<event>
 7    1  0.7518506E-013  0.5052885E+02  0.7816164E-02  0.1300439E+00
        -11   -1    0    0    0    0  0.00000000000E+00  0.00000000000E+00  0.45593999997E+02  0.45594000000E+02  0.51100000000E-03 0.  1.
         11   -1    0    0    0    0 -0.00000000000E+00 -0.00000000000E+00 -0.45593999997E+02  0.45594000000E+02  0.51100000000E-03 0. -1.
    9900012    2    1    2    0    0  0.32035899689E+02  0.42660845136E+01 -0.24671202801E+02  0.50528848587E+02  0.29999965766E+02 0.  0.
        -12    1    1    2    0    0 -0.32035899689E+02 -0.42660845136E+01  0.24671202801E+02  0.40659151413E+02  0.00000000000E+00 0.  1.
         11    1    3    3    0    0  0.15205240414E+02  0.10092798606E+02 -0.18962979759E+02  0.26318406513E+02  0.51100000000E-03 0. -1.
        -11    1    3    3    0    0  0.19155506743E+02 -0.23004856758E+01 -0.43958594695E+01  0.19787603535E+02  0.51100000000E-03 0.  1.
        -12    1    3    3    0    0 -0.23248474691E+01 -0.35262284163E+01 -0.13123635724E+01  0.44228385392E+01  0.00000000000E+00 0.  1.
</event>
<event>
 7    1  0.5441610E-013  0.5052886E+02  0.7816164E-02  0.1300439E+00
        -11   -1    0    0    0    0  0.00000000000E+00  0.00000000000E+00  0.45593999997E+02  0.45594000000E+02  0.51100000000E-03 0.  1.
         11   -1    0    0    0    0 -0.00000000000E+00 -0.00000000000E+00 -0.45593999997E+02  0.45594000000E+02  0.51100000000E-03 0. -1.
    9900012    2    1    2    0    0 -0.24589695085E+02  0.17143135579E+02 -0.27470453957E+02  0.50528855365E+02  0.29999986366E+02 0.  0.
        -12    1    1    2    0    0  0.24589695085E+02 -0.17143135579E+02  0.27470453957E+02  0.40659144635E+02  0.00000000000E+00 0.  1.
         11    1    3    3    0    0 -0.89429120494E+01 -0.21627481437E+01 -0.50046216001E+01  0.10473747805E+02  0.51100000000E-03 0. -1.
        -11    1    3    3    0    0 -0.91973359633E+01  0.76824067704E+01  0.20590886479E+01  0.12159367127E+02  0.51100000000E-03 0.  1.
         12    1    3    3    0    0 -0.64494470727E+01  0.11623476952E+02 -0.24524921005E+02  0.27895740433E+02  0.00000000000E+00 0. -1.
</event>
<event>
 7    1  0.5441610E-013  0.5052883E+02  0.7816164E-02  0.1300439E+00
        -11   -1    0    0    0    0  0.00000000000E+00  0.00000000000E+00  0.45593999997E+02  0.45594000000E+02  0.51100000000E-03 0.  1.
         11   -1    0    0    0    0 -0.00000000000E+00 -0.00000000000E+00 -0.45593999997E+02  0.45594000000E+02  0.51100000000E-03 0. -1.
    9900012    2    1    2    0    0 -0.34261172852E+02  0.65346332678E+00 -0.21884075938E+02  0.50528834253E+02  0.29999922197E+02 0.  0.
        -12    1    1    2    0    0  0.34261172852E+02 -0.65346332678E+00  0.21884075938E+02  0.40659165747E+02  0.00000000000E+00 0.  1.
         11    1    3    3    0    0 -0.23758317162E+02  0.45525866831E+01 -0.14201867551E+02  0.28051323001E+02  0.51100000000E-03 0. -1.
        -11    1    3    3    0    0 -0.16264366057E+01  0.62564151299E+01 -0.61156926133E+01  0.88988607535E+01  0.51100000000E-03 0.  1.
         12    1    3    3    0    0 -0.88764190845E+01 -0.10155538486E+02 -0.15665157736E+01  0.13578650499E+02  0.00000000000E+00 0. -1.
</event>
<event>
 7    1  0.5441610E-013  0.5052886E+02  0.7816164E-02  0.1300439E+00
        -11   -1    0    0    0    0  0.00000000000E+00  0.00000000000E+00  0.45593999997E+02  0.45594000000E+02  0.51100000000E-03 0.  1.
         11   -1    0    0    0    0 -0.00000000000E+00 -0.00000000000E+00 -0.45593999997E+02  0.45594000000E+02  0.51100000000E-03 0. -1.
    9900012    2    1    2    0    0  0.91797178871E+01  0.31784308943E+00 -0.39608050215E+02  0.50528857283E+02  0.29999992196E+02 0.  0.
        -12    1    1    2    0    0 -0.91797178871E+01 -0.31784308943E+00  0.39608050215E+02  0.40659142717E+02  0.00000000000E+00 0.  1.
         11    1    3    3    0    0  0.55804735369E+01  0.56734014507E+01 -0.21989004946E+02  0.23384728087E+02  0.51100000000E-03 0. -1.
        -11    1    3    3    0    0  0.66739844869E+01 -0.58641697953E+01 -0.20844595799E+02  0.22658943722E+02  0.51100000000E-03 0.  1.
        -12    1    3    3    0    0 -0.30747401368E+01  0.50861143409E+00  0.32255505310E+01  0.44851854730E+01  0.00000000000E+00 0.  1.
</event>
<event>
 7    1  0.5441610E-013  0.5052886E+02  0.7816164E-02  0.1300439E+00
        -11   -1    0    0    0    0  0.00000000000E+00  0.00000000000E+00  0.45593999997E+02  0.45594000000E+02  0.51100000000E-03 0. -1.
         11   -1    0    0    0    0 -0.00000000000E+00 -0.00000000000E+00 -0.45593999997E+02  0.45594000000E+02  0.51100000000E-03 0.  1.
    9900012    2    1    2    0    0 -0.28113192072E+01  0.36864391614E+02  0.16919769524E+02  0.50528862214E+02  0.30000007187E+02 0.  0.
        -12    1    1    2    0    0  0.28113192072E+01 -0.36864391614E+02 -0.16919769524E+02  0.40659137786E+02  0.00000000000E+00 0.  1.
         11    1    3    3    0    0 -0.11503683096E+02  0.16652049172E+02  0.78244962962E+01  0.21699037051E+02  0.51100000000E-03 0. -1.
        -11    1    3    3    0    0  0.19870454009E+01  0.16056873050E+02 -0.77088748132E+00  0.16197709385E+02  0.51100000000E-03 0.  1.
        -12    1    3    3    0    0  0.67053184880E+01  0.41554693919E+01  0.98661607090E+01  0.12632115778E+02  0.00000000000E+00 0.  1.
</event>
<event>
 7    1  0.5441610E-013  0.5052886E+02  0.7816164E-02  0.1300439E+00
        -11   -1    0    0    0    0  0.00000000000E+00  0.00000000000E+00  0.45593999997E+02  0.45594000000E+02  0.51100000000E-03 0.  1.
         11   -1    0    0    0    0 -0.00000000000E+00 -0.00000000000E+00 -0.45593999997E+02  0.45594000000E+02  0.51100000000E-03 0. -1.
    9900012    2    1    2    0    0 -0.14287685249E+01  0.26631582278E+00 -0.40633155815E+02  0.50528860128E+02  0.30000000845E+02 0.  0.
        -12    1    1    2    0    0  0.14287685249E+01 -0.26631582278E+00  0.40633155815E+02  0.40659139872E+02  0.00000000000E+00 0.  1.
         11    1    3    3    0    0  0.89652455313E+01  0.31141303989E+01 -0.47801254414E+01  0.10626525071E+02  0.51100000000E-03 0.  1.
        -11    1    3    3    0    0  0.13969630380E+01 -0.21568126444E+01 -0.19833735788E+02  0.19999510546E+02  0.51100000000E-03 0. -1.
        -12    1    3    3    0    0 -0.11790977094E+02 -0.69100193174E+00 -0.16019294586E+02  0.19902824511E+02  0.00000000000E+00 0.  1.
</event>
<event>
 7    1  0.5441610E-013  0.5052886E+02  0.7816164E-02  0.1300439E+00
        -11   -1    0    0    0    0  0.00000000000E+00  0.00000000000E+00  0.45593999997E+02  0.45594000000E+02  0.51100000000E-03 0.  1.
         11   -1    0    0    0    0 -0.00000000000E+00 -0.00000000000E+00 -0.45593999997E+02  0.45594000000E+02  0.51100000000E-03 0. -1.
    9900012    2    1    2    0    0  0.40613625850E+01  0.24129894338E+02 -0.32471826767E+02  0.50528855883E+02  0.29999987941E+02 0.  0.
        -12    1    1    2    0    0 -0.40613625850E+01 -0.24129894338E+02  0.32471826767E+02  0.40659144117E+02  0.00000000000E+00 0.  1.
         11    1    3    3    0    0  0.13536628836E+01  0.22262269102E+02 -0.25004358530E+02  0.33506103541E+02  0.51100000000E-03 0. -1.
        -11    1    3    3    0    0 -0.32601695498E+01  0.64290420601E+01 -0.13463697399E+01  0.73330756877E+01  0.51100000000E-03 0.  1.
        -12    1    3    3    0    0  0.59678692512E+01 -0.45614168245E+01 -0.61210984970E+01  0.96896766538E+01  0.00000000000E+00 0.  1.
</event>
<event>
 7    1  0.5441610E-013  0.5052886E+02  0.7816164E-02  0.1300439E+00
        -11   -1    0    0    0    0  0.00000000000E+00  0.00000000000E+00  0.45593999997E+02  0.45594000000E+02  0.51100000000E-03 0. -1.
         11   -1    0    0    0    0 -0.00000000000E+00 -0.00000000000E+00 -0.45593999997E+02  0.45594000000E+02  0.51100000000E-03 0.  1.
    9900012    2    1    2    0    0 -0.29398701546E+02 -0.28021436706E+02  0.19187100943E+01  0.50528855689E+02  0.29999987353E+02 0.  0.
        -12    1    1    2    0    0  0.29398701546E+02  0.28021436706E+02 -0.19187100943E+01  0.40659144311E+02  0.00000000000E+00 0.  1.
         11    1    3    3    0    0 -0.56669272077E+01 -0.75759378768E+01  0.74653444374E+00  0.94903220508E+01  0.51100000000E-03 0. -1.
        -11    1    3    3    0    0 -0.11702975462E+02 -0.29421306794E+01  0.12155774229E+02  0.17128298660E+02  0.51100000000E-03 0.  1.
        -12    1    3    3    0    0 -0.12028798877E+02 -0.17503368149E+02 -0.10983598579E+02  0.23910234979E+02  0.00000000000E+00 0.  1.
</event>
<event>
 7    1  0.5441610E-013  0.5052886E+02  0.7816164E-02  0.1300439E+00
        -11   -1    0    0    0    0  0.00000000000E+00  0.00000000000E+00  0.45593999997E+02  0.45594000000E+02  0.51100000000E-03 0.  1.
         11   -1    0    0    0    0 -0.00000000000E+00 -0.00000000000E+00 -0.45593999997E+02  0.45594000000E+02  0.51100000000E-03 0. -1.
    9900012    2    1    2    0    0 -0.15998441498E+02 -0.28402360423E+02 -0.24300641953E+02  0.50528863176E+02  0.30000010110E+02 0.  0.
        -12    1    1    2    0    0  0.15998441498E+02  0.28402360423E+02  0.24300641953E+02  0.40659136824E+02  0.00000000000E+00 0.  1.
         11    1    3    3    0    0 -0.10617097243E+02 -0.21412239813E+02 -0.14524723827E+02  0.27967380467E+02  0.51100000000E-03 0. -1.
        -11    1    3    3    0    0 -0.39753947299E+01 -0.12939373452E+02 -0.39111322672E+01  0.14090000158E+02  0.51100000000E-03 0.  1.
        -12    1    3    3    0    0 -0.14059495248E+01  0.59492528420E+01 -0.58647858586E+01  0.84714825510E+01  0.00000000000E+00 0.  1.
</event>
<event>
 7    1  0.5441610E-013  0.5052879E+02  0.7816164E-02  0.1300439E+00
        -11   -1    0    0    0    0  0.00000000000E+00  0.00000000000E+00  0.45593999997E+02  0.45594000000E+02  0.51100000000E-03 0. -1.
         11   -1    0    0    0    0 -0.00000000000E+00 -0.00000000000E+00 -0.45593999997E+02  0.45594000000E+02  0.51100000000E-03 0.  1.
    9900012    2    1    2    0    0 -0.29508867918E+02  0.21691003966E+02  0.17660640808E+02  0.50528792278E+02  0.29999794608E+02 0.  0.
        -12    1    1    2    0    0  0.29508867918E+02 -0.21691003966E+02 -0.17660640808E+02  0.40659207722E+02  0.00000000000E+00 0.  1.
         11    1    3    3    0    0 -0.10435424771E+02  0.36334987200E+01  0.96187178572E+01  0.14649919337E+02  0.51100000000E-03 0. -1.
        -11    1    3    3    0    0 -0.22137860146E+02  0.12675021113E+02  0.12342395556E+02  0.28338591009E+02  0.51100000000E-03 0.  1.
        -12    1    3    3    0    0  0.30644169990E+01  0.53824841322E+01 -0.43004726059E+01  0.75402819318E+01  0.00000000000E+00 0.  1.
</event>
<event>
 7    1  0.5441610E-013  0.5052886E+02  0.7816164E-02  0.1300439E+00
        -11   -1    0    0    0    0  0.00000000000E+00  0.00000000000E+00  0.45593999997E+02  0.45594000000E+02  0.51100000000E-03 0.  1.
         11   -1    0    0    0    0 -0.00000000000E+00 -0.00000000000E+00 -0.45593999997E+02  0.45594000000E+02  0.51100000000E-03 0. -1.
    9900012    2    1    2    0    0 -0.22032641615E+01  0.20202604819E+02 -0.35215994626E+02  0.50528857216E+02  0.29999991993E+02 0.  0.
        -12    1    1    2    0    0  0.22032641615E+01 -0.20202604819E+02  0.35215994626E+02  0.40659142784E+02  0.00000000000E+00 0.  1.
         11    1    3    3    0    0  0.11368691865E+01  0.15374945297E+02 -0.37485819657E+02  0.40532309212E+02  0.51100000000E-03 0. -1.
        -11    1    3    3    0    0 -0.13651010108E+01  0.64615696203E+01  0.48009450118E-01  0.66043688491E+01  0.51100000000E-03 0.  1.
        -12    1    3    3    0    0 -0.19750323372E+01 -0.16339100981E+01  0.22218155807E+01  0.33921791545E+01  0.00000000000E+00 0.  1.
</event>
<event>
 7    1  0.5441610E-013  0.5052886E+02  0.7816164E-02  0.1300439E+00
        -11   -1    0    0    0    0  0.00000000000E+00  0.00000000000E+00  0.45593999997E+02  0.45594000000E+02  0.51100000000E-03 0. -1.
         11   -1    0    0    0    0 -0.00000000000E+00 -0.00000000000E+00 -0.45593999997E+02  0.45594000000E+02  0.51100000000E-03 0.  1.
    9900012    2    1    2    0    0 -0.33372879815E+02  0.61214925789E+01  0.22404103810E+02  0.50528860240E+02  0.30000001184E+02 0.  0.
        -12    1    1    2    0    0  0.33372879815E+02 -0.61214925789E+01 -0.22404103810E+02  0.40659139760E+02  0.00000000000E+00 0.  1.
         11    1    3    3    0    0 -0.16334018267E+02  0.10525729262E+02  0.60860306782E+01  0.20362487543E+02  0.51100000000E-03 0. -1.
        -11    1    3    3    0    0  0.38032904870E+01 -0.18681992184E+01  0.16171534385E+01  0.45354572375E+01  0.51100000000E-03 0.  1.
         12    1    3    3    0    0 -0.20842152035E+02 -0.25360374649E+01  0.14700919693E+02  0.25630915459E+02  0.00000000000E+00 0. -1.
</event>
<event>
 7    1  0.5441610E-013  0.5052891E+02  0.7816164E-02  0.1300439E+00
        -11   -1    0    0    0    0  0.00000000000E+00  0.00000000000E+00  0.45593999997E+02  0.45594000000E+02  0.51100000000E-03 0.  1.
         11   -1    0    0    0    0 -0.00000000000E+00 -0.00000000000E+00 -0.45593999997E+02  0.45594000000E+02  0.51100000000E-03 0. -1.
    9900012    2    1    2    0    0  0.11952650505E+02  0.14336709591E+02 -0.36121387658E+02  0.50528908245E+02  0.30000147101E+02 0.  0.
        -12    1    1    2    0    0 -0.11952650505E+02 -0.14336709591E+02  0.36121387658E+02  0.40659091755E+02  0.00000000000E+00 0.  1.
         11    1    3    3    0    0  0.17210326754E+01  0.15944497334E+01 -0.19039467250E+02  0.19183470407E+02  0.51100000000E-03 0. -1.
        -11    1    3    3    0    0  0.98409119458E+01 -0.30542574251E+01 -0.85406114736E+01  0.13383350886E+02  0.51100000000E-03 0.  1.
         12    1    3    3    0    0  0.39070588398E+00  0.15796517283E+02 -0.85413089340E+01  0.17962086952E+02  0.00000000000E+00 0. -1.
</event>
<event>
 7    1  0.5441610E-013  0.5052886E+02  0.7816164E-02  0.1300439E+00
        -11   -1    0    0    0    0  0.00000000000E+00  0.00000000000E+00  0.45593999997E+02  0.45594000000E+02  0.51100000000E-03 0.  1.
         11   -1    0    0    0    0 -0.00000000000E+00 -0.00000000000E+00 -0.45593999997E+02  0.45594000000E+02  0.51100000000E-03 0. -1.
    9900012    2    1    2    0    0 -0.32167996282E+02 -0.28913002041E+01 -0.24698705401E+02  0.50528860189E+02  0.30000001030E+02 0.  0.
        -12    1    1    2    0    0  0.32167996282E+02  0.28913002041E+01  0.24698705401E+02  0.40659139811E+02  0.00000000000E+00 0.  1.
         11    1    3    3    0    0 -0.21455294226E+02 -0.93991587722E+01 -0.11133378359E+02  0.25935033254E+02  0.51100000000E-03 0. -1.
        -11    1    3    3    0    0 -0.96651900946E+01  0.35874966944E+01  0.37114022291E+00  0.10316190063E+02  0.51100000000E-03 0.  1.
        -12    1    3    3    0    0 -0.10475119615E+01  0.29203618737E+01 -0.13936467266E+02  0.14277636871E+02  0.00000000000E+00 0.  1.
</event>
<event>
 7    1  0.5441610E-013  0.5052882E+02  0.7816164E-02  0.1300439E+00
        -11   -1    0    0    0    0  0.00000000000E+00  0.00000000000E+00  0.45593999997E+02  0.45594000000E+02  0.51100000000E-03 0.  1.
         11   -1    0    0    0    0 -0.00000000000E+00 -0.00000000000E+00 -0.45593999997E+02  0.45594000000E+02  0.51100000000E-03 0. -1.
    9900012    2    1    2    0    0  0.38038688144E+02 -0.14342438833E+02  0.72205915827E+00  0.50528822477E+02  0.29999886402E+02 0.  0.
        -12    1    1    2    0    0 -0.38038688144E+02  0.14342438833E+02 -0.72205915827E+00  0.40659177523E+02  0.00000000000E+00 0.  1.
         11    1    3    3    0    0  0.30229303048E+01 -0.44828888823E+01  0.36813675868E+01  0.65411671687E+01  0.51100000000E-03 0. -1.
        -11    1    3    3    0    0  0.18618535654E+02 -0.10333060206E+02  0.95706367415E+01  0.23345643941E+02  0.51100000000E-03 0.  1.
         12    1    3    3    0    0  0.16397222185E+02  0.47351025519E+00 -0.12529945170E+02  0.20642011368E+02  0.00000000000E+00 0. -1.
</event>
<event>
 7    1  0.5441610E-013  0.5052888E+02  0.7816164E-02  0.1300439E+00
        -11   -1    0    0    0    0  0.00000000000E+00  0.00000000000E+00  0.45593999997E+02  0.45594000000E+02  0.51100000000E-03 0.  1.
         11   -1    0    0    0    0 -0.00000000000E+00 -0.00000000000E+00 -0.45593999997E+02  0.45594000000E+02  0.51100000000E-03 0. -1.
    9900012    2    1    2    0    0 -0.51138013221E+01  0.32216084695E+02 -0.24272137312E+02  0.50528883842E+02  0.30000072926E+02 0.  0.
        -12    1    1    2    0    0  0.51138013221E+01 -0.32216084695E+02  0.24272137312E+02  0.40659116158E+02  0.00000000000E+00 0.  1.
         11    1    3    3    0    0  0.58147060660E+01  0.18231781438E+02 -0.16019015068E+02  0.24956311928E+02  0.51100000000E-03 0. -1.
        -11    1    3    3    0    0 -0.65986518899E+01  0.11862151251E+02 -0.13008008486E+02  0.18800561803E+02  0.51100000000E-03 0.  1.
        -12    1    3    3    0    0 -0.43298554983E+01  0.21221520066E+01  0.47548862422E+01  0.67720101116E+01  0.00000000000E+00 0.  1.
</event>
<event>
 7    1  0.5441610E-013  0.5052887E+02  0.7816164E-02  0.1300439E+00
        -11   -1    0    0    0    0  0.00000000000E+00  0.00000000000E+00  0.45593999997E+02  0.45594000000E+02  0.51100000000E-03 0. -1.
         11   -1    0    0    0    0 -0.00000000000E+00 -0.00000000000E+00 -0.45593999997E+02  0.45594000000E+02  0.51100000000E-03 0.  1.
    9900012    2    1    2    0    0 -0.48017340346E+01  0.39522697053E+02  0.82501302780E+01  0.50528869639E+02  0.30000029756E+02 0.  0.
        -12    1    1    2    0    0  0.48017340346E+01 -0.39522697053E+02 -0.82501302780E+01  0.40659130361E+02  0.00000000000E+00 0.  1.
         11    1    3    3    0    0  0.69299084255E+01  0.17598779020E+01  0.85298167442E+00  0.72005818524E+01  0.51100000000E-03 0. -1.
        -11    1    3    3    0    0  0.31297341083E+01  0.16227217804E+02  0.27939295308E+01  0.16760783864E+02  0.51100000000E-03 0.  1.
         12    1    3    3    0    0 -0.14861376568E+02  0.21535601347E+02  0.46032190727E+01  0.26567503923E+02  0.00000000000E+00 0. -1.
</event>
<event>
 7    1  0.5441610E-013  0.5052887E+02  0.7816164E-02  0.1300439E+00
        -11   -1    0    0    0    0  0.00000000000E+00  0.00000000000E+00  0.45593999997E+02  0.45594000000E+02  0.51100000000E-03 0.  1.
         11   -1    0    0    0    0 -0.00000000000E+00 -0.00000000000E+00 -0.45593999997E+02  0.45594000000E+02  0.51100000000E-03 0. -1.
    9900012    2    1    2    0    0  0.21672426669E+02 -0.24554685935E+02  0.24094367577E+02  0.50528865380E+02  0.30000016810E+02 0.  0.
        -12    1    1    2    0    0 -0.21672426669E+02  0.24554685935E+02 -0.24094367577E+02  0.40659134620E+02  0.00000000000E+00 0.  1.
         11    1    3    3    0    0  0.41521080304E+00  0.14684066443E+01 -0.14046551037E+01  0.20740478069E+01  0.51100000000E-03 0. -1.
        -11    1    3    3    0    0  0.95226469003E+01 -0.23096996770E+02  0.63015684885E+01  0.25765516285E+02  0.51100000000E-03 0.  1.
        -12    1    3    3    0    0  0.11734568966E+02 -0.29260958100E+01  0.19197454192E+02  0.22689301288E+02  0.00000000000E+00 0.  1.
</event>
<event>
 7    1  0.5441610E-013  0.5052890E+02  0.7816164E-02  0.1300439E+00
        -11   -1    0    0    0    0  0.00000000000E+00  0.00000000000E+00  0.45593999997E+02  0.45594000000E+02  0.51100000000E-03 0.  1.
         11   -1    0    0    0    0 -0.00000000000E+00 -0.00000000000E+00 -0.45593999997E+02  0.45594000000E+02  0.51100000000E-03 0. -1.
    9900012    2    1    2    0    0 -0.14750756610E+02 -0.21465518790E+02 -0.31221938353E+02  0.50528895829E+02  0.30000109360E+02 0.  0.
        -12    1    1    2    0    0  0.14750756610E+02  0.21465518790E+02  0.31221938353E+02  0.40659104171E+02  0.00000000000E+00 0.  1.
         11    1    3    3    0    0 -0.85388033825E+01  0.80481822623E+00 -0.90593476135E+01  0.12475202404E+02  0.51100000000E-03 0. -1.
        -11    1    3    3    0    0  0.41576719769E+01 -0.37260681739E+01 -0.14381329679E+02  0.15427004372E+02  0.51100000000E-03 0.  1.
        -12    1    3    3    0    0 -0.10369625205E+02 -0.18544268842E+02 -0.77812610609E+01  0.22626689052E+02  0.00000000000E+00 0.  1.
</event>
<event>
 7    1  0.5441610E-013  0.5052886E+02  0.7816164E-02  0.1300439E+00
        -11   -1    0    0    0    0  0.00000000000E+00  0.00000000000E+00  0.45593999997E+02  0.45594000000E+02  0.51100000000E-03 0.  1.
         11   -1    0    0    0    0 -0.00000000000E+00 -0.00000000000E+00 -0.45593999997E+02  0.45594000000E+02  0.51100000000E-03 0. -1.
    9900012    2    1    2    0    0  0.57718854360E+01  0.33772668697E+02 -0.21891965514E+02  0.50528856299E+02  0.29999989207E+02 0.  0.
        -12    1    1    2    0    0 -0.57718854360E+01 -0.33772668697E+02  0.21891965514E+02  0.40659143701E+02  0.00000000000E+00 0.  1.
         11    1    3    3    0    0 -0.55771518242E+01  0.10883070601E+02 -0.10400484055E+01  0.12273041560E+02  0.51100000000E-03 0. -1.
        -11    1    3    3    0    0  0.68063343708E+01  0.11191030830E+01  0.11258660784E+01  0.69890023583E+01  0.51100000000E-03 0.  1.
         12    1    3    3    0    0  0.45427028894E+01  0.21770495013E+02 -0.21977783187E+02  0.31266812381E+02  0.00000000000E+00 0. -1.
</event>
<event>
 7    1  0.5441610E-013  0.5052886E+02  0.7816164E-02  0.1300439E+00
        -11   -1    0    0    0    0  0.00000000000E+00  0.00000000000E+00  0.45593999997E+02  0.45594000000E+02  0.51100000000E-03 0.  1.
         11   -1    0    0    0    0 -0.00000000000E+00 -0.00000000000E+00 -0.45593999997E+02  0.45594000000E+02  0.51100000000E-03 0. -1.
    9900012    2    1    2    0    0 -0.89224864538E+01  0.12602229724E+02 -0.37613008083E+02  0.50528864058E+02  0.30000012790E+02 0.  0.
        -12    1    1    2    0    0  0.89224864538E+01 -0.12602229724E+02  0.37613008083E+02  0.40659135942E+02  0.00000000000E+00 0.  1.
         11    1    3    3    0    0 -0.11287437097E+02 -0.24399902490E+01 -0.70825038267E+01  0.13547016253E+02  0.51100000000E-03 0. -1.
        -11    1    3    3    0    0 -0.11686297944E+01  0.13445033043E+02 -0.12029468818E+02  0.18078792256E+02  0.51100000000E-03 0.  1.
         12    1    3    3    0    0  0.35335804378E+01  0.15971869292E+01 -0.18501035438E+02  0.18903055549E+02  0.00000000000E+00 0. -1.
</event>
<event>
 7    1  0.5441610E-013  0.5052886E+02  0.7816164E-02  0.1300439E+00
        -11   -1    0    0    0    0  0.00000000000E+00  0.00000000000E+00  0.45593999997E+02  0.45594000000E+02  0.51100000000E-03 0. -1.
         11   -1    0    0    0    0 -0.00000000000E+00 -0.00000000000E+00 -0.45593999997E+02  0.45594000000E+02  0.51100000000E-03 0.  1.
    9900012    2    1    2    0    0 -0.18225342276E+02  0.13004318141E+02  0.33939507599E+02  0.50528861206E+02  0.30000004123E+02 0.  0.
        -12    1    1    2    0    0  0.18225342276E+02 -0.13004318141E+02 -0.33939507599E+02  0.40659138794E+02  0.00000000000E+00 0.  1.
         11    1    3    3    0    0 -0.36575241028E+01  0.30322136050E+01  0.43999435192E+01  0.64754386062E+01  0.51100000000E-03 0. -1.
        -11    1    3    3    0    0 -0.31777791450E+01 -0.82282873131E+01  0.18459588461E+01  0.90116900037E+01  0.51100000000E-03 0.  1.
        -12    1    3    3    0    0 -0.11390039029E+02  0.18200391849E+02  0.27693605233E+02  0.35041732596E+02  0.00000000000E+00 0.  1.
</event>
<event>
 7    1  0.5441610E-013  0.5052886E+02  0.7816164E-02  0.1300439E+00
        -11   -1    0    0    0    0  0.00000000000E+00  0.00000000000E+00  0.45593999997E+02  0.45594000000E+02  0.51100000000E-03 0. -1.
         11   -1    0    0    0    0 -0.00000000000E+00 -0.00000000000E+00 -0.45593999997E+02  0.45594000000E+02  0.51100000000E-03 0.  1.
    9900012    2    1    2    0    0  0.12423837756E+02  0.38633157170E+02 -0.25085986957E+01  0.50528860253E+02  0.30000001226E+02 0.  0.
        -12    1    1    2    0    0 -0.12423837756E+02 -0.38633157170E+02  0.25085986957E+01  0.40659139747E+02  0.00000000000E+00 0.  1.
         11    1    3    3    0    0 -0.69232214827E+01  0.19251282288E+02  0.25884571473E+00  0.20459957644E+02  0.51100000000E-03 0.  1.
        -11    1    3    3    0    0  0.46640727567E+00 -0.12819424042E+01  0.11770419442E+01  0.18017602709E+01  0.51100000000E-03 0. -1.
        -12    1    3    3    0    0  0.18880651963E+02  0.20663817286E+02 -0.39444863546E+01  0.28267142338E+02  0.00000000000E+00 0.  1.
</event>
<event>
 7    1  0.5441610E-013  0.5052886E+02  0.7816164E-02  0.1300439E+00
        -11   -1    0    0    0    0  0.00000000000E+00  0.00000000000E+00  0.45593999997E+02  0.45594000000E+02  0.51100000000E-03 0.  1.
         11   -1    0    0    0    0 -0.00000000000E+00 -0.00000000000E+00 -0.45593999997E+02  0.45594000000E+02  0.51100000000E-03 0. -1.
    9900012    2    1    2    0    0  0.14319677431E+02  0.34372560002E+02 -0.16329098768E+02  0.50528861920E+02  0.30000006292E+02 0.  0.
        -12    1    1    2    0    0 -0.14319677431E+02 -0.34372560002E+02  0.16329098768E+02  0.40659138080E+02  0.00000000000E+00 0.  1.
         11    1    3    3    0    0  0.60578521767E+01  0.14032676160E+02  0.32809680001E+01  0.15632604533E+02  0.51100000000E-03 0. -1.
        -11    1    3    3    0    0  0.65168563381E+01  0.23938356933E+02 -0.16105380025E+02  0.29578668245E+02  0.51100000000E-03 0.  1.
        -12    1    3    3    0    0  0.17449689164E+01 -0.35984730910E+01 -0.35046867436E+01  0.53175891414E+01  0.00000000000E+00 0.  1.
</event>
<event>
 7    1  0.5441610E-013  0.5052887E+02  0.7816164E-02  0.1300439E+00
        -11   -1    0    0    0    0  0.00000000000E+00  0.00000000000E+00  0.45593999997E+02  0.45594000000E+02  0.51100000000E-03 0. -1.
         11   -1    0    0    0    0 -0.00000000000E+00 -0.00000000000E+00 -0.45593999997E+02  0.45594000000E+02  0.51100000000E-03 0.  1.
    9900012    2    1    2    0    0  0.31898593274E+02  0.24171959627E+02  0.71666414734E+01  0.50528872672E+02  0.30000038975E+02 0.  0.
        -12    1    1    2    0    0 -0.31898593274E+02 -0.24171959627E+02 -0.71666414734E+01  0.40659127328E+02  0.00000000000E+00 0.  1.
         11    1    3    3    0    0  0.14564160138E+02  0.92333187916E+01  0.20624106618E+00  0.17245621823E+02  0.51100000000E-03 0. -1.
        -11    1    3    3    0    0  0.15610211225E+02  0.38599954603E+01  0.12881607362E+02  0.20603739173E+02  0.51100000000E-03 0.  1.
        -12    1    3    3    0    0  0.17242219109E+01  0.11078645375E+02 -0.59212069543E+01  0.12679511676E+02  0.00000000000E+00 0.  1.
</event>
<event>
 7    1  0.5441610E-013  0.5052886E+02  0.7816164E-02  0.1300439E+00
        -11   -1    0    0    0    0  0.00000000000E+00  0.00000000000E+00  0.45593999997E+02  0.45594000000E+02  0.51100000000E-03 0.  1.
         11   -1    0    0    0    0 -0.00000000000E+00 -0.00000000000E+00 -0.45593999997E+02  0.45594000000E+02  0.51100000000E-03 0. -1.
    9900012    2    1    2    0    0 -0.25142629994E+02 -0.31517975203E+02 -0.52565521074E+01  0.50528856576E+02  0.29999990048E+02 0.  0.
        -12    1    1    2    0    0  0.25142629994E+02  0.31517975203E+02  0.52565521074E+01  0.40659143424E+02  0.00000000000E+00 0.  1.
         11    1    3    3    0    0 -0.14177259266E+01 -0.11437016020E+02 -0.50473405172E+01  0.12581372294E+02  0.51100000000E-03 0. -1.
        -11    1    3    3    0    0 -0.19610416390E+02 -0.19192040690E+02 -0.84357572466E+01  0.28706529874E+02  0.51100000000E-03 0.  1.
        -12    1    3    3    0    0 -0.41144876778E+01 -0.88891849370E+00  0.82265456564E+01  0.92409544083E+01  0.00000000000E+00 0.  1.
</event>
<event>
 7    1  0.5441610E-013  0.5052886E+02  0.7816164E-02  0.1300439E+00
        -11   -1    0    0    0    0  0.00000000000E+00  0.00000000000E+00  0.45593999997E+02  0.45594000000E+02  0.51100000000E-03 0.  1.
         11   -1    0    0    0    0 -0.00000000000E+00 -0.00000000000E+00 -0.45593999997E+02  0.45594000000E+02  0.51100000000E-03 0. -1.
    9900012    2    1    2    0    0  0.46336131934E+01 -0.28805928848E+02 -0.28318080344E+02  0.50528861022E+02  0.30000003563E+02 0.  0.
        -12    1    1    2    0    0 -0.46336131934E+01  0.28805928848E+02  0.28318080344E+02  0.40659138978E+02  0.00000000000E+00 0.  1.
         11    1    3    3    0    0  0.10618341400E+02 -0.10844247299E+02 -0.21952589302E+02  0.26688256798E+02  0.51100000000E-03 0. -1.
        -11    1    3    3    0    0 -0.52825681940E+01 -0.17666411784E+01  0.15770742099E+01  0.57891027891E+01  0.51100000000E-03 0.  1.
        -12    1    3    3    0    0 -0.70216001222E+00 -0.16195040371E+02 -0.79425652519E+01  0.18051501435E+02  0.00000000000E+00 0.  1.
</event>
<event>
 7    1  0.5441610E-013  0.5052890E+02  0.7816164E-02  0.1300439E+00
        -11   -1    0    0    0    0  0.00000000000E+00  0.00000000000E+00  0.45593999997E+02  0.45594000000E+02  0.51100000000E-03 0.  1.
         11   -1    0    0    0    0 -0.00000000000E+00 -0.00000000000E+00 -0.45593999997E+02  0.45594000000E+02  0.51100000000E-03 0. -1.
    9900012    2    1    2    0    0  0.16810918255E+02  0.23171145951E+01 -0.36948432015E+02  0.50528897440E+02  0.30000114259E+02 0.  0.
        -12    1    1    2    0    0 -0.16810918255E+02 -0.23171145951E+01  0.36948432015E+02  0.40659102560E+02  0.00000000000E+00 0.  1.
         11    1    3    3    0    0  0.96174809944E+01 -0.11702659949E+01 -0.10212376570E+02  0.14076863949E+02  0.51100000000E-03 0. -1.
        -11    1    3    3    0    0  0.37490454559E+01  0.17428539418E+01  0.38343851015E+01  0.56387402016E+01  0.51100000000E-03 0.  1.
         12    1    3    3    0    0  0.34443918042E+01  0.17445266482E+01 -0.30570440547E+02  0.30813293290E+02  0.00000000000E+00 0. -1.
</event>
<event>
 7    1  0.5441610E-013  0.5052886E+02  0.7816164E-02  0.1300439E+00
        -11   -1    0    0    0    0  0.00000000000E+00  0.00000000000E+00  0.45593999997E+02  0.45594000000E+02  0.51100000000E-03 0.  1.
         11   -1    0    0    0    0 -0.00000000000E+00 -0.00000000000E+00 -0.45593999997E+02  0.45594000000E+02  0.51100000000E-03 0. -1.
    9900012    2    1    2    0    0  0.67956836588E+01 -0.27531889999E+02 -0.29137254422E+02  0.50528857381E+02  0.29999992495E+02 0.  0.
        -12    1    1    2    0    0 -0.67956836588E+01  0.27531889999E+02  0.29137254422E+02  0.40659142619E+02  0.00000000000E+00 0.  1.
         11    1    3    3    0    0  0.52603958120E+01 -0.13569119860E+01 -0.29189799620E+01  0.61671240069E+01  0.51100000000E-03 0. -1.
        -11    1    3    3    0    0 -0.72918960670E+01 -0.74437544535E+00 -0.86079422224E+00  0.73801632780E+01  0.51100000000E-03 0.  1.
         12    1    3    3    0    0  0.88271839138E+01 -0.25430602567E+02 -0.25357480237E+02  0.36981570096E+02  0.00000000000E+00 0. -1.
</event>
<event>
 7    1  0.5441610E-013  0.5052887E+02  0.7816164E-02  0.1300439E+00
        -11   -1    0    0    0    0  0.00000000000E+00  0.00000000000E+00  0.45593999997E+02  0.45594000000E+02  0.51100000000E-03 0.  1.
         11   -1    0    0    0    0 -0.00000000000E+00 -0.00000000000E+00 -0.45593999997E+02  0.45594000000E+02  0.51100000000E-03 0. -1.
    9900012    2    1    2    0    0  0.26054827720E+02 -0.22641444154E+02 -0.21486635574E+02  0.50528873728E+02  0.30000042184E+02 0.  0.
        -12    1    1    2    0    0 -0.26054827720E+02  0.22641444154E+02  0.21486635574E+02  0.40659126272E+02  0.00000000000E+00 0.  1.
         11    1    3    3    0    0  0.98327610421E+01 -0.48693633083E+01 -0.45732364208E+01  0.11887320151E+02  0.51100000000E-03 0. -1.
        -11    1    3    3    0    0  0.49949218849E+01  0.35392651973E+01 -0.12822445454E+02  0.14208826498E+02  0.51100000000E-03 0.  1.
        -12    1    3    3    0    0  0.11227144793E+02 -0.21311346043E+02 -0.40909536993E+01  0.24432727079E+02  0.00000000000E+00 0.  1.
</event>
<event>
 7    1  0.5441610E-013  0.5052885E+02  0.7816164E-02  0.1300439E+00
        -11   -1    0    0    0    0  0.00000000000E+00  0.00000000000E+00  0.45593999997E+02  0.45594000000E+02  0.51100000000E-03 0. -1.
         11   -1    0    0    0    0 -0.00000000000E+00 -0.00000000000E+00 -0.45593999997E+02  0.45594000000E+02  0.51100000000E-03 0.  1.
    9900012    2    1    2    0    0 -0.20619233195E+02 -0.34210149184E+02  0.75946684591E+01  0.50528854980E+02  0.29999985198E+02 0.  0.
        -12    1    1    2    0    0  0.20619233195E+02  0.34210149184E+02 -0.75946684591E+01  0.40659145020E+02  0.00000000000E+00 0.  1.
         11    1    3    3    0    0 -0.40668218194E+01 -0.17343156112E+02  0.80092145599E+01  0.19531298517E+02  0.51100000000E-03 0. -1.
        -11    1    3    3    0    0 -0.11591008196E+02 -0.20992845081E+02 -0.27450842520E+01  0.24136828777E+02  0.51100000000E-03 0.  1.
         12    1    3    3    0    0 -0.49614031792E+01  0.41258520092E+01  0.23305381512E+01  0.68607276861E+01  0.00000000000E+00 0. -1.
</event>
<event>
 7    1  0.5441610E-013  0.5052886E+02  0.7816164E-02  0.1300439E+00
        -11   -1    0    0    0    0  0.00000000000E+00  0.00000000000E+00  0.45593999997E+02  0.45594000000E+02  0.51100000000E-03 0.  1.
         11   -1    0    0    0    0 -0.00000000000E+00 -0.00000000000E+00 -0.45593999997E+02  0.45594000000E+02  0.51100000000E-03 0. -1.
    9900012    2    1    2    0    0  0.27758565259E+02  0.28612190526E+02 -0.79981271982E+01  0.50528862889E+02  0.30000009238E+02 0.  0.
        -12    1    1    2    0    0 -0.27758565259E+02 -0.28612190526E+02  0.79981271982E+01  0.40659137111E+02  0.00000000000E+00 0.  1.
         11    1    3    3    0    0 -0.25768641436E+01 -0.16909771192E+01 -0.47431378701E+01  0.56565881544E+01  0.51100000000E-03 0. -1.
        -11    1    3    3    0    0  0.20822734808E+02  0.17017624866E+02 -0.76358041363E+01  0.27955166714E+02  0.51100000000E-03 0.  1.
        -12    1    3    3    0    0  0.95126945942E+01  0.13285542780E+02  0.43808148083E+01  0.16917108020E+02  0.00000000000E+00 0.  1.
</event>
<event>
 7    1  0.5441610E-013  0.5052886E+02  0.7816164E-02  0.1300439E+00
        -11   -1    0    0    0    0  0.00000000000E+00  0.00000000000E+00  0.45593999997E+02  0.45594000000E+02  0.51100000000E-03 0.  1.
         11   -1    0    0    0    0 -0.00000000000E+00 -0.00000000000E+00 -0.45593999997E+02  0.45594000000E+02  0.51100000000E-03 0. -1.
    9900012    2    1    2    0    0 -0.69246059980E+01  0.31318903638E+02 -0.24986823863E+02  0.50528864986E+02  0.30000015612E+02 0.  0.
        -12    1    1    2    0    0  0.69246059980E+01 -0.31318903638E+02  0.24986823863E+02  0.40659135014E+02  0.00000000000E+00 0.  1.
         11    1    3    3    0    0  0.15964021282E+01  0.27379762054E+02 -0.24537352533E+02  0.36800564391E+02  0.51100000000E-03 0. -1.
        -11    1    3    3    0    0 -0.48388454079E+01  0.64663217061E+01 -0.29640045618E+01  0.86030845975E+01  0.51100000000E-03 0.  1.
        -12    1    3    3    0    0 -0.36821627183E+01 -0.25271801217E+01  0.25145332323E+01  0.51252159982E+01  0.00000000000E+00 0.  1.
</event>
<event>
 7    1  0.5441610E-013  0.5052885E+02  0.7816164E-02  0.1300439E+00
        -11   -1    0    0    0    0  0.00000000000E+00  0.00000000000E+00  0.45593999997E+02  0.45594000000E+02  0.51100000000E-03 0.  1.
         11   -1    0    0    0    0 -0.00000000000E+00 -0.00000000000E+00 -0.45593999997E+02  0.45594000000E+02  0.51100000000E-03 0. -1.
    9900012    2    1    2    0    0 -0.51989213239E+01  0.11813201867E+02 -0.38556274869E+02  0.50528845396E+02  0.29999956067E+02 0.  0.
        -12    1    1    2    0    0  0.51989213239E+01 -0.11813201867E+02  0.38556274869E+02  0.40659154604E+02  0.00000000000E+00 0.  1.
         11    1    3    3    0    0  0.22075523526E+01  0.11878501185E+02 -0.29094099623E+02  0.31502995269E+02  0.51100000000E-03 0. -1.
        -11    1    3    3    0    0  0.21219803430E+01  0.51316548369E+01 -0.22336252012E+01  0.59854627007E+01  0.51100000000E-03 0.  1.
         12    1    3    3    0    0 -0.95284540195E+01 -0.51969541542E+01 -0.72285500451E+01  0.13040387427E+02  0.00000000000E+00 0. -1.
</event>
<event>
 7    1  0.5441610E-013  0.5052885E+02  0.7816164E-02  0.1300439E+00
        -11   -1    0    0    0    0  0.00000000000E+00  0.00000000000E+00  0.45593999997E+02  0.45594000000E+02  0.51100000000E-03 0. -1.
         11   -1    0    0    0    0 -0.00000000000E+00 -0.00000000000E+00 -0.45593999997E+02  0.45594000000E+02  0.51100000000E-03 0.  1.
    9900012    2    1    2    0    0 -0.10929236353E+02 -0.27492330373E+02  0.27890683183E+02  0.50528847955E+02  0.29999963843E+02 0.  0.
        -12    1    1    2    0    0  0.10929236353E+02  0.27492330373E+02 -0.27890683183E+02  0.40659152045E+02  0.00000000000E+00 0.  1.
         11    1    3    3    0    0 -0.28655466147E+01 -0.24018812956E+02  0.75394626862E+01  0.25336894662E+02  0.51100000000E-03 0. -1.
        -11    1    3    3    0    0  0.79831149668E+00 -0.27815921607E+01  0.13927115118E+02  0.14224594615E+02  0.51100000000E-03 0.  1.
         12    1    3    3    0    0 -0.88620012354E+01 -0.69192525600E+00  0.64241053792E+01  0.10967358678E+02  0.00000000000E+00 0. -1.
</event>
<event>
 7    1  0.5441610E-013  0.5052886E+02  0.7816164E-02  0.1300439E+00
        -11   -1    0    0    0    0  0.00000000000E+00  0.00000000000E+00  0.45593999997E+02  0.45594000000E+02  0.51100000000E-03 0.  1.
         11   -1    0    0    0    0 -0.00000000000E+00 -0.00000000000E+00 -0.45593999997E+02  0.45594000000E+02  0.51100000000E-03 0. -1.
    9900012    2    1    2    0    0  0.22869577926E+02  0.26057405648E+02 -0.21240519070E+02  0.50528860388E+02  0.30000001636E+02 0.  0.
        -12    1    1    2    0    0 -0.22869577926E+02 -0.26057405648E+02  0.21240519070E+02  0.40659139612E+02  0.00000000000E+00 0.  1.
         11    1    3    3    0    0  0.14151044830E+02  0.11653463412E+02 -0.46312228756E+01  0.18907763085E+02  0.51100000000E-03 0. -1.
        -11    1    3    3    0    0 -0.36398025223E+00  0.13466579870E+02 -0.96355577419E+00  0.13505913335E+02  0.51100000000E-03 0.  1.
         12    1    3    3    0    0  0.90825133480E+01  0.93736236570E+00 -0.15645740420E+02  0.18115183968E+02  0.00000000000E+00 0. -1.
</event>
<event>
 7    1  0.5441610E-013  0.5052887E+02  0.7816164E-02  0.1300439E+00
        -11   -1    0    0    0    0  0.00000000000E+00  0.00000000000E+00  0.45593999997E+02  0.45594000000E+02  0.51100000000E-03 0.  1.
         11   -1    0    0    0    0 -0.00000000000E+00 -0.00000000000E+00 -0.45593999997E+02  0.45594000000E+02  0.51100000000E-03 0. -1.
    9900012    2    1    2    0    0  0.36096692532E+02 -0.14779206485E+02  0.11479037207E+02  0.50528874932E+02  0.30000045844E+02 0.  0.
        -12    1    1    2    0    0 -0.36096692532E+02  0.14779206485E+02 -0.11479037207E+02  0.40659125068E+02  0.00000000000E+00 0.  1.
         11    1    3    3    0    0  0.21067899148E+02 -0.18360448274E+02  0.53929049525E+01  0.28461304598E+02  0.51100000000E-03 0. -1.
        -11    1    3    3    0    0  0.15654628825E+02 -0.36848858075E+00  0.80559986399E+01  0.17609721798E+02  0.51100000000E-03 0.  1.
         12    1    3    3    0    0 -0.62583544041E+00  0.39497303697E+01 -0.19698663858E+01  0.44578485360E+01  0.00000000000E+00 0. -1.
</event>
<event>
 7    1  0.5441610E-013  0.5052886E+02  0.7816164E-02  0.1300439E+00
        -11   -1    0    0    0    0  0.00000000000E+00  0.00000000000E+00  0.45593999997E+02  0.45594000000E+02  0.51100000000E-03 0.  1.
         11   -1    0    0    0    0 -0.00000000000E+00 -0.00000000000E+00 -0.45593999997E+02  0.45594000000E+02  0.51100000000E-03 0. -1.
    9900012    2    1    2    0    0  0.12139625402E+02 -0.23616477921E+02 -0.30790537293E+02  0.50528859317E+02  0.29999998380E+02 0.  0.
        -12    1    1    2    0    0 -0.12139625402E+02  0.23616477921E+02  0.30790537293E+02  0.40659140683E+02  0.00000000000E+00 0.  1.
         11    1    3    3    0    0  0.32506367592E+01 -0.18644289044E+01  0.14481389183E+01  0.40174421051E+01  0.51100000000E-03 0. -1.
        -11    1    3    3    0    0  0.35165341742E+00 -0.18980437135E+02 -0.78847144244E+01  0.20556005833E+02  0.51100000000E-03 0.  1.
         12    1    3    3    0    0  0.85373352254E+01 -0.27716118816E+01 -0.24353961786E+02  0.25955411379E+02  0.00000000000E+00 0. -1.
</event>
<event>
 7    1  0.5441610E-013  0.5052886E+02  0.7816164E-02  0.1300439E+00
        -11   -1    0    0    0    0  0.00000000000E+00  0.00000000000E+00  0.45593999997E+02  0.45594000000E+02  0.51100000000E-03 0.  1.
         11   -1    0    0    0    0 -0.00000000000E+00 -0.00000000000E+00 -0.45593999997E+02  0.45594000000E+02  0.51100000000E-03 0. -1.
    9900012    2    1    2    0    0 -0.30667284704E+02  0.17894227895E+01 -0.26636092825E+02  0.50528858026E+02  0.29999994457E+02 0.  0.
        -12    1    1    2    0    0  0.30667284704E+02 -0.17894227895E+01  0.26636092825E+02  0.40659141974E+02  0.00000000000E+00 0.  1.
         11    1    3    3    0    0 -0.63178253478E+01 -0.51079674785E+01 -0.14529997909E+02  0.16647134540E+02  0.51100000000E-03 0. -1.
        -11    1    3    3    0    0  0.23828458289E+01 -0.17648023174E+01  0.62698579091E+00  0.30307743082E+01  0.51100000000E-03 0.  1.
        -12    1    3    3    0    0 -0.26732305185E+02  0.86621925854E+01 -0.12733080707E+02  0.30850949178E+02  0.00000000000E+00 0.  1.
</event>
<event>
 7    1  0.5441610E-013  0.5052886E+02  0.7816164E-02  0.1300439E+00
        -11   -1    0    0    0    0  0.00000000000E+00  0.00000000000E+00  0.45593999997E+02  0.45594000000E+02  0.51100000000E-03 0.  1.
         11   -1    0    0    0    0 -0.00000000000E+00 -0.00000000000E+00 -0.45593999997E+02  0.45594000000E+02  0.51100000000E-03 0. -1.
    9900012    2    1    2    0    0  0.49741294278E+01  0.39242299587E+02 -0.94056375592E+01  0.50528855170E+02  0.29999985775E+02 0.  0.
        -12    1    1    2    0    0 -0.49741294278E+01 -0.39242299587E+02  0.94056375592E+01  0.40659144830E+02  0.00000000000E+00 0.  1.
         11    1    3    3    0    0 -0.59541909358E+01  0.26329818384E+01  0.36458995612E+01  0.74617402080E+01  0.51100000000E-03 0. -1.
        -11    1    3    3    0    0 -0.15553658769E+01  0.53319041740E+01  0.23560350823E+01  0.60331804798E+01  0.51100000000E-03 0.  1.
         12    1    3    3    0    0  0.12483686240E+02  0.31277413574E+02 -0.15407572203E+02  0.37033934482E+02  0.00000000000E+00 0. -1.
</event>
<event>
 7    1  0.5441610E-013  0.5052886E+02  0.7816164E-02  0.1300439E+00
        -11   -1    0    0    0    0  0.00000000000E+00  0.00000000000E+00  0.45593999997E+02  0.45594000000E+02  0.51100000000E-03 0. -1.
         11   -1    0    0    0    0 -0.00000000000E+00 -0.00000000000E+00 -0.45593999997E+02  0.45594000000E+02  0.51100000000E-03 0.  1.
    9900012    2    1    2    0    0  0.62943564678E+01  0.37045438244E+02  0.15530055533E+02  0.50528855359E+02  0.29999986350E+02 0.  0.
        -12    1    1    2    0    0 -0.62943564678E+01 -0.37045438244E+02 -0.15530055533E+02  0.40659144641E+02  0.00000000000E+00 0.  1.
         11    1    3    3    0    0 -0.61360748092E+01  0.12505047276E+02  0.11758146758E+02  0.18228593936E+02  0.51100000000E-03 0. -1.
        -11    1    3    3    0    0  0.85281866028E+01  0.25412871683E+02  0.33835840517E-02  0.26805671520E+02  0.51100000000E-03 0.  1.
         12    1    3    3    0    0  0.39022446742E+01 -0.87248071455E+00  0.37685251908E+01  0.54945899036E+01  0.00000000000E+00 0. -1.
</event>
<event>
 7    1  0.5441610E-013  0.5052885E+02  0.7816164E-02  0.1300439E+00
        -11   -1    0    0    0    0  0.00000000000E+00  0.00000000000E+00  0.45593999997E+02  0.45594000000E+02  0.51100000000E-03 0. -1.
         11   -1    0    0    0    0 -0.00000000000E+00 -0.00000000000E+00 -0.45593999997E+02  0.45594000000E+02  0.51100000000E-03 0.  1.
    9900012    2    1    2    0    0  0.81094094082E+01 -0.30459986095E+02 -0.25682541827E+02  0.50528853076E+02  0.29999979410E+02 0.  0.
        -12    1    1    2    0    0 -0.81094094082E+01  0.30459986095E+02  0.25682541827E+02  0.40659146924E+02  0.00000000000E+00 0.  1.
         11    1    3    3    0    0  0.32294000904E+01 -0.12917669766E+02 -0.72899274503E+01  0.15180193003E+02  0.51100000000E-03 0. -1.
        -11    1    3    3    0    0 -0.35392280729E+01 -0.15017741599E+02 -0.21111008430E+02  0.26148295839E+02  0.51100000000E-03 0.  1.
         12    1    3    3    0    0  0.84192373907E+01 -0.25245747304E+01  0.27183940528E+01  0.92003642339E+01  0.00000000000E+00 0. -1.
</event>
<event>
 7    1  0.5441610E-013  0.5052886E+02  0.7816164E-02  0.1300439E+00
        -11   -1    0    0    0    0  0.00000000000E+00  0.00000000000E+00  0.45593999997E+02  0.45594000000E+02  0.51100000000E-03 0. -1.
         11   -1    0    0    0    0 -0.00000000000E+00 -0.00000000000E+00 -0.45593999997E+02  0.45594000000E+02  0.51100000000E-03 0.  1.
    9900012    2    1    2    0    0 -0.26799288682E+02 -0.16229485219E+02  0.25914615463E+02  0.50528863771E+02  0.30000011917E+02 0.  0.
        -12    1    1    2    0    0  0.26799288682E+02  0.16229485219E+02 -0.25914615463E+02  0.40659136229E+02  0.00000000000E+00 0.  1.
         11    1    3    3    0    0  0.32756884470E+01 -0.86840532256E+01  0.74607907772E+01  0.11908245652E+02  0.51100000000E-03 0. -1.
        -11    1    3    3    0    0 -0.53659234703E+01 -0.36787274983E+01  0.10544430852E+02  0.12389963396E+02  0.51100000000E-03 0.  1.
        -12    1    3    3    0    0 -0.24709053659E+02 -0.38667044947E+01  0.79093938337E+01  0.26230654722E+02  0.00000000000E+00 0.  1.
</event>
<event>
 7    1  0.5441610E-013  0.5052886E+02  0.7816164E-02  0.1300439E+00
        -11   -1    0    0    0    0  0.00000000000E+00  0.00000000000E+00  0.45593999997E+02  0.45594000000E+02  0.51100000000E-03 0. -1.
         11   -1    0    0    0    0 -0.00000000000E+00 -0.00000000000E+00 -0.45593999997E+02  0.45594000000E+02  0.51100000000E-03 0.  1.
    9900012    2    1    2    0    0  0.22896241736E+02  0.32419998362E+02 -0.88244694883E+01  0.50528862759E+02  0.30000008841E+02 0.  0.
        -12    1    1    2    0    0 -0.22896241736E+02 -0.32419998362E+02  0.88244694883E+01  0.40659137241E+02  0.00000000000E+00 0.  1.
         11    1    3    3    0    0  0.57338635596E+01  0.11272527830E+02 -0.55666015466E+01  0.13817891591E+02  0.51100000000E-03 0. -1.
        -11    1    3    3    0    0  0.56104328770E+01  0.46079926901E+00 -0.10518280570E+02  0.11929942139E+02  0.51100000000E-03 0.  1.
         12    1    3    3    0    0  0.11551945299E+02  0.20686671264E+02  0.72604126280E+01  0.24781029028E+02  0.00000000000E+00 0. -1.
</event>
<event>
 7    1  0.5441610E-013  0.5052886E+02  0.7816164E-02  0.1300439E+00
        -11   -1    0    0    0    0  0.00000000000E+00  0.00000000000E+00  0.45593999997E+02  0.45594000000E+02  0.51100000000E-03 0.  1.
         11   -1    0    0    0    0 -0.00000000000E+00 -0.00000000000E+00 -0.45593999997E+02  0.45594000000E+02  0.51100000000E-03 0. -1.
    9900012    2    1    2    0    0  0.21967481756E+02  0.20041693632E+02  0.27729517903E+02  0.50528857099E+02  0.29999991637E+02 0.  0.
        -12    1    1    2    0    0 -0.21967481756E+02 -0.20041693632E+02 -0.27729517903E+02  0.40659142901E+02  0.00000000000E+00 0.  1.
         11    1    3    3    0    0  0.21215179619E+02  0.11615151321E+02  0.10657279650E+02  0.26430535301E+02  0.51100000000E-03 0. -1.
        -11    1    3    3    0    0  0.59765661030E+01  0.89083449438E+01  0.15036212433E+02  0.18470669631E+02  0.51100000000E-03 0.  1.
        -12    1    3    3    0    0 -0.52242639669E+01 -0.48180263303E+00  0.20360258211E+01  0.56276521674E+01  0.00000000000E+00 0.  1.
</event>
<event>
 7    1  0.5441610E-013  0.5052886E+02  0.7816164E-02  0.1300439E+00
        -11   -1    0    0    0    0  0.00000000000E+00  0.00000000000E+00  0.45593999997E+02  0.45594000000E+02  0.51100000000E-03 0.  1.
         11   -1    0    0    0    0 -0.00000000000E+00 -0.00000000000E+00 -0.45593999997E+02  0.45594000000E+02  0.51100000000E-03 0. -1.
    9900012    2    1    2    0    0  0.15394450957E+02 -0.24191972015E+02 -0.28825771353E+02  0.50528859277E+02  0.29999998258E+02 0.  0.
        -12    1    1    2    0    0 -0.15394450957E+02  0.24191972015E+02  0.28825771353E+02  0.40659140723E+02  0.00000000000E+00 0.  1.
         11    1    3    3    0    0  0.26869443153E+01 -0.10314559194E+02 -0.24116934659E+02  0.26367334691E+02  0.51100000000E-03 0. -1.
        -11    1    3    3    0    0  0.10758558828E+00 -0.98958304606E+00 -0.60090855798E+01  0.60909735700E+01  0.51100000000E-03 0.  1.
        -12    1    3    3    0    0  0.12599921053E+02 -0.12887829774E+02  0.13002488851E+01  0.18070551016E+02  0.00000000000E+00 0.  1.
</event>
<event>
 7    1  0.5441610E-013  0.5052886E+02  0.7816164E-02  0.1300439E+00
        -11   -1    0    0    0    0  0.00000000000E+00  0.00000000000E+00  0.45593999997E+02  0.45594000000E+02  0.51100000000E-03 0. -1.
         11   -1    0    0    0    0 -0.00000000000E+00 -0.00000000000E+00 -0.45593999997E+02  0.45594000000E+02  0.51100000000E-03 0.  1.
    9900012    2    1    2    0    0 -0.29152520682E+02  0.16259670453E+02  0.23214636056E+02  0.50528859913E+02  0.30000000191E+02 0.  0.
        -12    1    1    2    0    0  0.29152520682E+02 -0.16259670453E+02 -0.23214636056E+02  0.40659140087E+02  0.00000000000E+00 0.  1.
         11    1    3    3    0    0 -0.17640914245E+02  0.26089887916E+01  0.10935278989E+02  0.20918628175E+02  0.51100000000E-03 0. -1.
        -11    1    3    3    0    0 -0.26061210339E+01 -0.40681990251E+01  0.79644481122E+01  0.93152855106E+01  0.51100000000E-03 0.  1.
         12    1    3    3    0    0 -0.89054854038E+01  0.17718880687E+02  0.43149089549E+01  0.20294946227E+02  0.00000000000E+00 0. -1.
</event>
<event>
 7    1  0.5441610E-013  0.5052886E+02  0.7816164E-02  0.1300439E+00
        -11   -1    0    0    0    0  0.00000000000E+00  0.00000000000E+00  0.45593999997E+02  0.45594000000E+02  0.51100000000E-03 0.  1.
         11   -1    0    0    0    0 -0.00000000000E+00 -0.00000000000E+00 -0.45593999997E+02  0.45594000000E+02  0.51100000000E-03 0. -1.
    9900012    2    1    2    0    0 -0.14605781581E+02 -0.11708797941E+02 -0.36093499383E+02  0.50528862005E+02  0.30000006550E+02 0.  0.
        -12    1    1    2    0    0  0.14605781581E+02  0.11708797941E+02  0.36093499383E+02  0.40659137995E+02  0.00000000000E+00 0.  1.
         11    1    3    3    0    0 -0.41031224218E+01 -0.98089671746E+01 -0.23324689677E+02  0.25633817497E+02  0.51100000000E-03 0. -1.
        -11    1    3    3    0    0 -0.12989801020E+02  0.32591787934E+01 -0.13624125021E+02  0.19104291659E+02  0.51100000000E-03 0.  1.
        -12    1    3    3    0    0  0.24871418606E+01 -0.51590095598E+01  0.85531531572E+00  0.57907528493E+01  0.00000000000E+00 0.  1.
</event>
<event>
 7    1  0.5441610E-013  0.5052897E+02  0.7816164E-02  0.1300438E+00
        -11   -1    0    0    0    0  0.00000000000E+00  0.00000000000E+00  0.45593999997E+02  0.45594000000E+02  0.51100000000E-03 0.  1.
         11   -1    0    0    0    0 -0.00000000000E+00 -0.00000000000E+00 -0.45593999997E+02  0.45594000000E+02  0.51100000000E-03 0. -1.
    9900012    2    1    2    0    0 -0.16227340182E+02  0.34656940151E+02 -0.13737780555E+02  0.50528970442E+02  0.30000336154E+02 0.  0.
        -12    1    1    2    0    0  0.16227340182E+02 -0.34656940151E+02  0.13737780555E+02  0.40659029558E+02  0.00000000000E+00 0.  1.
         11    1    3    3    0    0 -0.17320897618E+02  0.17941624095E+02 -0.86870760743E+00  0.24953356941E+02  0.51100000000E-03 0. -1.
        -11    1    3    3    0    0 -0.59715784733E+01  0.46384727844E+01 -0.18992047097E+01  0.77962912994E+01  0.51100000000E-03 0.  1.
         12    1    3    3    0    0  0.70651359089E+01  0.12076843272E+02 -0.10969868237E+02  0.17779322202E+02  0.00000000000E+00 0. -1.
</event>
<event>
 7    1  0.5441610E-013  0.5052885E+02  0.7816164E-02  0.1300439E+00
        -11   -1    0    0    0    0  0.00000000000E+00  0.00000000000E+00  0.45593999997E+02  0.45594000000E+02  0.51100000000E-03 0.  1.
         11   -1    0    0    0    0 -0.00000000000E+00 -0.00000000000E+00 -0.45593999997E+02  0.45594000000E+02  0.51100000000E-03 0. -1.
    9900012    2    1    2    0    0 -0.28029567213E+02 -0.42194614300E+01 -0.29149718007E+02  0.50528849089E+02  0.29999967292E+02 0.  0.
        -12    1    1    2    0    0  0.28029567213E+02  0.42194614300E+01  0.29149718007E+02  0.40659150911E+02  0.00000000000E+00 0.  1.
         11    1    3    3    0    0 -0.18484993483E+02  0.78456355402E+00 -0.18561683557E+02  0.26207758789E+02  0.51100000000E-03 0. -1.
        -11    1    3    3    0    0 -0.43150478203E+01  0.72685507223E+01 -0.52617567104E+01  0.99567841814E+01  0.51100000000E-03 0.  1.
         12    1    3    3    0    0 -0.52295259097E+01 -0.12272575706E+02 -0.53262777401E+01  0.14364306119E+02  0.00000000000E+00 0. -1.
</event>
<event>
 7    1  0.5441610E-013  0.5052888E+02  0.7816164E-02  0.1300439E+00
        -11   -1    0    0    0    0  0.00000000000E+00  0.00000000000E+00  0.45593999997E+02  0.45594000000E+02  0.51100000000E-03 0.  1.
         11   -1    0    0    0    0 -0.00000000000E+00 -0.00000000000E+00 -0.45593999997E+02  0.45594000000E+02  0.51100000000E-03 0. -1.
    9900012    2    1    2    0    0 -0.59684431072E+01 -0.27926551608E+02 -0.28942175179E+02  0.50528879228E+02  0.30000058902E+02 0.  0.
        -12    1    1    2    0    0  0.59684431072E+01  0.27926551608E+02  0.28942175179E+02  0.40659120772E+02  0.00000000000E+00 0.  1.
         11    1    3    3    0    0 -0.60388796883E+01 -0.17988752831E+02 -0.30175980975E+02  0.35646221740E+02  0.51100000000E-03 0. -1.
        -11    1    3    3    0    0  0.29509837059E+01 -0.82962144028E+00 -0.31293597614E+01  0.43805786540E+01  0.51100000000E-03 0.  1.
         12    1    3    3    0    0 -0.28805471248E+01 -0.91081773376E+01  0.43631655576E+01  0.10502078834E+02  0.00000000000E+00 0. -1.
</event>
<event>
 7    1  0.5441610E-013  0.5052886E+02  0.7816164E-02  0.1300439E+00
        -11   -1    0    0    0    0  0.00000000000E+00  0.00000000000E+00  0.45593999997E+02  0.45594000000E+02  0.51100000000E-03 0. -1.
         11   -1    0    0    0    0 -0.00000000000E+00 -0.00000000000E+00 -0.45593999997E+02  0.45594000000E+02  0.51100000000E-03 0.  1.
    9900012    2    1    2    0    0 -0.15755814795E+02  0.41718939469E+01  0.37249363947E+02  0.50528861871E+02  0.30000006143E+02 0.  0.
        -12    1    1    2    0    0  0.15755814795E+02 -0.41718939469E+01 -0.37249363947E+02  0.40659138129E+02  0.00000000000E+00 0.  1.
         11    1    3    3    0    0 -0.32770058759E+01  0.91668972338E+01  0.16363118425E+02  0.19040021462E+02  0.51100000000E-03 0.  1.
        -11    1    3    3    0    0 -0.70439223603E+01 -0.10041370369E+02  0.37652749091E+01  0.12830559477E+02  0.51100000000E-03 0. -1.
         12    1    3    3    0    0 -0.54348865586E+01  0.50463670818E+01  0.17120970612E+02  0.18658280932E+02  0.00000000000E+00 0. -1.
</event>
<event>
 7    1  0.5441610E-013  0.5052886E+02  0.7816164E-02  0.1300439E+00
        -11   -1    0    0    0    0  0.00000000000E+00  0.00000000000E+00  0.45593999997E+02  0.45594000000E+02  0.51100000000E-03 0. -1.
         11   -1    0    0    0    0 -0.00000000000E+00 -0.00000000000E+00 -0.45593999997E+02  0.45594000000E+02  0.51100000000E-03 0.  1.
    9900012    2    1    2    0    0 -0.35873191751E+02  0.19100079875E+02 -0.12109659978E+01  0.50528863557E+02  0.30000011268E+02 0.  0.
        -12    1    1    2    0    0  0.35873191751E+02 -0.19100079875E+02  0.12109659978E+01  0.40659136443E+02  0.00000000000E+00 0.  1.
         11    1    3    3    0    0 -0.83338715259E+01  0.72066878807E+01  0.77370628310E+01  0.13462982817E+02  0.51100000000E-03 0. -1.
        -11    1    3    3    0    0 -0.51615703248E+01 -0.46148720971E+01  0.19585913570E+01  0.71954800435E+01  0.51100000000E-03 0.  1.
        -12    1    3    3    0    0 -0.22377749900E+02  0.16508264091E+02 -0.10906620186E+02  0.29870400697E+02  0.00000000000E+00 0.  1.
</event>
<event>
 7    1  0.5441610E-013  0.5052886E+02  0.7816164E-02  0.1300439E+00
        -11   -1    0    0    0    0  0.00000000000E+00  0.00000000000E+00  0.45593999997E+02  0.45594000000E+02  0.51100000000E-03 0.  1.
         11   -1    0    0    0    0 -0.00000000000E+00 -0.00000000000E+00 -0.45593999997E+02  0.45594000000E+02  0.51100000000E-03 0. -1.
    9900012    2    1    2    0    0 -0.38565155681E+02  0.12038597200E+02 -0.45789553600E+01  0.50528857271E+02  0.29999992162E+02 0.  0.
        -12    1    1    2    0    0  0.38565155681E+02 -0.12038597200E+02  0.45789553600E+01  0.40659142729E+02  0.00000000000E+00 0.  1.
         11    1    3    3    0    0 -0.13633826161E+02  0.10373022593E+02 -0.21913242684E+01  0.17270863204E+02  0.51100000000E-03 0. -1.
        -11    1    3    3    0    0 -0.64590831245E+01  0.10460460519E+02 -0.34577604876E+01  0.12770947378E+02  0.51100000000E-03 0.  1.
        -12    1    3    3    0    0 -0.18472246395E+02 -0.87948859125E+01  0.10701293961E+01  0.20487046689E+02  0.00000000000E+00 0.  1.
</event>
<event>
 7    1  0.5441610E-013  0.5052885E+02  0.7816164E-02  0.1300439E+00
        -11   -1    0    0    0    0  0.00000000000E+00  0.00000000000E+00  0.45593999997E+02  0.45594000000E+02  0.51100000000E-03 0.  1.
         11   -1    0    0    0    0 -0.00000000000E+00 -0.00000000000E+00 -0.45593999997E+02  0.45594000000E+02  0.51100000000E-03 0. -1.
    9900012    2    1    2    0    0 -0.16113729436E+02 -0.13093403033E+02 -0.34958220578E+02  0.50528847705E+02  0.29999963085E+02 0.  0.
        -12    1    1    2    0    0  0.16113729436E+02  0.13093403033E+02  0.34958220578E+02  0.40659152295E+02  0.00000000000E+00 0.  1.
         11    1    3    3    0    0 -0.54434257582E+01  0.26106614379E+01 -0.10814390688E+02  0.12385373766E+02  0.51100000000E-03 0. -1.
        -11    1    3    3    0    0  0.80953803277E+00 -0.71308249356E+01 -0.22624308737E+02  0.23735276745E+02  0.51100000000E-03 0.  1.
         12    1    3    3    0    0 -0.11479841711E+02 -0.85732395357E+01 -0.15195211536E+01  0.14408197194E+02  0.00000000000E+00 0. -1.
</event>
<event>
 7    1  0.5441610E-013  0.5052887E+02  0.7816164E-02  0.1300439E+00
        -11   -1    0    0    0    0  0.00000000000E+00  0.00000000000E+00  0.45593999997E+02  0.45594000000E+02  0.51100000000E-03 0. -1.
         11   -1    0    0    0    0 -0.00000000000E+00 -0.00000000000E+00 -0.45593999997E+02  0.45594000000E+02  0.51100000000E-03 0.  1.
    9900012    2    1    2    0    0  0.37729498667E+02 -0.51624908035E+01  0.14247750295E+02  0.50528871020E+02  0.30000033953E+02 0.  0.
        -12    1    1    2    0    0 -0.37729498667E+02  0.51624908035E+01 -0.14247750295E+02  0.40659128980E+02  0.00000000000E+00 0.  1.
         11    1    3    3    0    0  0.21883184324E+02  0.45159141390E+01 -0.25980030337E+01  0.22494818441E+02  0.51100000000E-03 0. -1.
        -11    1    3    3    0    0  0.13089096096E+02 -0.57476902606E+01  0.48215257375E+01  0.15086665988E+02  0.51100000000E-03 0.  1.
         12    1    3    3    0    0  0.27572182465E+01 -0.39307146819E+01  0.12024227591E+02  0.12947386591E+02  0.00000000000E+00 0. -1.
</event>
<event>
 7    1  0.5441610E-013  0.5052887E+02  0.7816164E-02  0.1300439E+00
        -11   -1    0    0    0    0  0.00000000000E+00  0.00000000000E+00  0.45593999997E+02  0.45594000000E+02  0.51100000000E-03 0. -1.
         11   -1    0    0    0    0 -0.00000000000E+00 -0.00000000000E+00 -0.45593999997E+02  0.45594000000E+02  0.51100000000E-03 0.  1.
    9900012    2    1    2    0    0  0.33870152105E+02  0.75589758403E+01 -0.21185825676E+02  0.50528873977E+02  0.30000042942E+02 0.  0.
        -12    1    1    2    0    0 -0.33870152105E+02 -0.75589758403E+01  0.21185825676E+02  0.40659126023E+02  0.00000000000E+00 0.  1.
         11    1    3    3    0    0 -0.15390097293E+01 -0.13888769797E+00 -0.69500496255E+00  0.16943650429E+01  0.51100000000E-03 0. -1.
        -11    1    3    3    0    0  0.14470239721E+02  0.50359417518E+01 -0.22939321683E+02  0.27585522045E+02  0.51100000000E-03 0.  1.
         12    1    3    3    0    0  0.20938922113E+02  0.26619217864E+01  0.24485009703E+01  0.21248986890E+02  0.00000000000E+00 0. -1.
</event>
<event>
 7    1  0.5441610E-013  0.5052885E+02  0.7816164E-02  0.1300439E+00
        -11   -1    0    0    0    0  0.00000000000E+00  0.00000000000E+00  0.45593999997E+02  0.45594000000E+02  0.51100000000E-03 0. -1.
         11   -1    0    0    0    0 -0.00000000000E+00 -0.00000000000E+00 -0.45593999997E+02  0.45594000000E+02  0.51100000000E-03 0.  1.
    9900012    2    1    2    0    0  0.35362190619E+02 -0.16228469092E+02  0.11803330416E+02  0.50528851665E+02  0.29999975120E+02 0.  0.
        -12    1    1    2    0    0 -0.35362190619E+02  0.16228469092E+02 -0.11803330416E+02  0.40659148335E+02  0.00000000000E+00 0.  1.
         11    1    3    3    0    0  0.79150850472E+01 -0.10591365690E+02  0.60235777730E+01  0.14529593523E+02  0.51100000000E-03 0. -1.
        -11    1    3    3    0    0  0.71881487240E+01  0.72758828394E+01  0.62203814793E+01  0.11970843712E+02  0.51100000000E-03 0.  1.
         12    1    3    3    0    0  0.20258956848E+02 -0.12912986241E+02 -0.44062883636E+00  0.24028414430E+02  0.00000000000E+00 0. -1.
</event>
<event>
 7    1  0.5441610E-013  0.5052888E+02  0.7816164E-02  0.1300439E+00
        -11   -1    0    0    0    0  0.00000000000E+00  0.00000000000E+00  0.45593999997E+02  0.45594000000E+02  0.51100000000E-03 0.  1.
         11   -1    0    0    0    0 -0.00000000000E+00 -0.00000000000E+00 -0.45593999997E+02  0.45594000000E+02  0.51100000000E-03 0. -1.
    9900012    2    1    2    0    0 -0.10262866084E+02 -0.38631301741E+01 -0.39152443174E+02  0.50528880464E+02  0.30000062658E+02 0.  0.
        -12    1    1    2    0    0  0.10262866084E+02  0.38631301741E+01  0.39152443174E+02  0.40659119536E+02  0.00000000000E+00 0.  1.
         11    1    3    3    0    0  0.51412031644E+01 -0.63673264418E+00 -0.43243608330E+01  0.67481475468E+01  0.51100000000E-03 0. -1.
        -11    1    3    3    0    0 -0.11656185611E+02 -0.23119893982E+01 -0.37453629289E+01  0.12459522532E+02  0.51100000000E-03 0.  1.
         12    1    3    3    0    0 -0.37478836366E+01 -0.91440813176E+00 -0.31082719412E+02  0.31321210385E+02  0.00000000000E+00 0. -1.
</event>
<event>
 7    1  0.5441610E-013  0.5052885E+02  0.7816164E-02  0.1300439E+00
        -11   -1    0    0    0    0  0.00000000000E+00  0.00000000000E+00  0.45593999997E+02  0.45594000000E+02  0.51100000000E-03 0. -1.
         11   -1    0    0    0    0 -0.00000000000E+00 -0.00000000000E+00 -0.45593999997E+02  0.45594000000E+02  0.51100000000E-03 0.  1.
    9900012    2    1    2    0    0 -0.39617236083E+02 -0.85274557218E+01 -0.33050722756E+01  0.50528850984E+02  0.29999973051E+02 0.  0.
        -12    1    1    2    0    0  0.39617236083E+02  0.85274557218E+01  0.33050722756E+01  0.40659149016E+02  0.00000000000E+00 0.  1.
         11    1    3    3    0    0 -0.22887398500E+02 -0.87572575806E+01 -0.10598915273E+02  0.26699430249E+02  0.51100000000E-03 0. -1.
        -11    1    3    3    0    0 -0.17073584110E+02 -0.25861202207E+00  0.57618102721E+00  0.17085260881E+02  0.51100000000E-03 0.  1.
        -12    1    3    3    0    0  0.34374652637E+00  0.48841388085E+00  0.67176619699E+01  0.67441598539E+01  0.00000000000E+00 0.  1.
</event>
<event>
 7    1  0.5441610E-013  0.5052888E+02  0.7816164E-02  0.1300439E+00
        -11   -1    0    0    0    0  0.00000000000E+00  0.00000000000E+00  0.45593999997E+02  0.45594000000E+02  0.51100000000E-03 0.  1.
         11   -1    0    0    0    0 -0.00000000000E+00 -0.00000000000E+00 -0.45593999997E+02  0.45594000000E+02  0.51100000000E-03 0. -1.
    9900012    2    1    2    0    0  0.34393632542E+02 -0.19681470547E+02 -0.91039578653E+01  0.50528876902E+02  0.30000051830E+02 0.  0.
        -12    1    1    2    0    0 -0.34393632542E+02  0.19681470547E+02  0.91039578653E+01  0.40659123098E+02  0.00000000000E+00 0.  1.
         11    1    3    3    0    0  0.12002263715E+02  0.21532278338E-01  0.39837521689E+01  0.12646148802E+02  0.51100000000E-03 0. -1.
        -11    1    3    3    0    0  0.21400157816E+02 -0.12919404069E+02 -0.23029427819E+01  0.25103412154E+02  0.51100000000E-03 0.  1.
        -12    1    3    3    0    0  0.99121101112E+00 -0.67835987560E+01 -0.10784767252E+02  0.12779315946E+02  0.00000000000E+00 0.  1.
</event>
<event>
 7    1  0.5441610E-013  0.5052887E+02  0.7816164E-02  0.1300439E+00
        -11   -1    0    0    0    0  0.00000000000E+00  0.00000000000E+00  0.45593999997E+02  0.45594000000E+02  0.51100000000E-03 0.  1.
         11   -1    0    0    0    0 -0.00000000000E+00 -0.00000000000E+00 -0.45593999997E+02  0.45594000000E+02  0.51100000000E-03 0. -1.
    9900012    2    1    2    0    0 -0.25067311394E+02  0.21097516512E+01 -0.31942823235E+02  0.50528866847E+02  0.30000021268E+02 0.  0.
        -12    1    1    2    0    0  0.25067311394E+02 -0.21097516512E+01  0.31942823235E+02  0.40659133153E+02  0.00000000000E+00 0.  1.
         11    1    3    3    0    0 -0.81444904705E+01  0.73015528572E+01 -0.20689158238E+02  0.23402706425E+02  0.51100000000E-03 0. -1.
        -11    1    3    3    0    0 -0.72343404411E+01  0.31135903020E+01  0.25969815065E+01  0.82930355958E+01  0.51100000000E-03 0.  1.
         12    1    3    3    0    0 -0.96884804824E+01 -0.83053915080E+01 -0.13850646503E+02  0.18833124826E+02  0.00000000000E+00 0. -1.
</event>
<event>
 7    1  0.5441610E-013  0.5052887E+02  0.7816164E-02  0.1300439E+00
        -11   -1    0    0    0    0  0.00000000000E+00  0.00000000000E+00  0.45593999997E+02  0.45594000000E+02  0.51100000000E-03 0. -1.
         11   -1    0    0    0    0 -0.00000000000E+00 -0.00000000000E+00 -0.45593999997E+02  0.45594000000E+02  0.51100000000E-03 0.  1.
    9900012    2    1    2    0    0  0.20465382847E+01  0.25316978023E+02  0.31749442964E+02  0.50528870352E+02  0.30000031923E+02 0.  0.
        -12    1    1    2    0    0 -0.20465382847E+01 -0.25316978023E+02 -0.31749442964E+02  0.40659129648E+02  0.00000000000E+00 0.  1.
         11    1    3    3    0    0 -0.51683292931E+00 -0.20606410068E+01  0.68986138224E+01  0.72183260225E+01  0.51100000000E-03 0. -1.
        -11    1    3    3    0    0 -0.58642191121E+01  0.36222167197E+01 -0.12727509339E+01  0.70092378302E+01  0.51100000000E-03 0.  1.
         12    1    3    3    0    0  0.84275903261E+01  0.23755402310E+02  0.26123580076E+02  0.36301306500E+02  0.00000000000E+00 0. -1.
</event>
<event>
 7    1  0.5441610E-013  0.5052892E+02  0.7816164E-02  0.1300439E+00
        -11   -1    0    0    0    0  0.00000000000E+00  0.00000000000E+00  0.45593999997E+02  0.45594000000E+02  0.51100000000E-03 0.  1.
         11   -1    0    0    0    0 -0.00000000000E+00 -0.00000000000E+00 -0.45593999997E+02  0.45594000000E+02  0.51100000000E-03 0. -1.
    9900012    2    1    2    0    0  0.17830907679E+02 -0.51815470078E+01 -0.36171407845E+02  0.50528924217E+02  0.30000195648E+02 0.  0.
        -12    1    1    2    0    0 -0.17830907679E+02  0.51815470078E+01  0.36171407845E+02  0.40659075783E+02  0.00000000000E+00 0.  1.
         11    1    3    3    0    0 -0.62148573362E+00 -0.62064698189E+01 -0.11003529461E+02  0.12648485007E+02  0.51100000000E-03 0. -1.
        -11    1    3    3    0    0  0.11375016542E+02 -0.97396244950E+01 -0.10133195692E+02  0.18081287062E+02  0.51100000000E-03 0.  1.
        -12    1    3    3    0    0  0.70773768706E+01  0.10764547306E+02 -0.15034682692E+02  0.19799152147E+02  0.00000000000E+00 0.  1.
</event>
<event>
 7    1  0.5441610E-013  0.5052884E+02  0.7816164E-02  0.1300439E+00
        -11   -1    0    0    0    0  0.00000000000E+00  0.00000000000E+00  0.45593999997E+02  0.45594000000E+02  0.51100000000E-03 0.  1.
         11   -1    0    0    0    0 -0.00000000000E+00 -0.00000000000E+00 -0.45593999997E+02  0.45594000000E+02  0.51100000000E-03 0. -1.
    9900012    2    1    2    0    0 -0.52845094602E+01  0.14360382568E+02 -0.37669888928E+02  0.50528841627E+02  0.29999944609E+02 0.  0.
        -12    1    1    2    0    0  0.52845094602E+01 -0.14360382568E+02  0.37669888928E+02  0.40659158373E+02  0.00000000000E+00 0.  1.
         11    1    3    3    0    0 -0.14473840484E+02  0.32541592186E+01 -0.20011360470E+02  0.24910563195E+02  0.51100000000E-03 0. -1.
        -11    1    3    3    0    0  0.59425676881E+01  0.10219784623E+01 -0.13632609420E+01  0.61819925075E+01  0.51100000000E-03 0.  1.
        -12    1    3    3    0    0  0.32467633352E+01  0.10084244887E+02 -0.16295267516E+02  0.19436285924E+02  0.00000000000E+00 0.  1.
</event>
<event>
 7    1  0.5441610E-013  0.5052885E+02  0.7816164E-02  0.1300439E+00
        -11   -1    0    0    0    0  0.00000000000E+00  0.00000000000E+00  0.45593999997E+02  0.45594000000E+02  0.51100000000E-03 0.  1.
         11   -1    0    0    0    0 -0.00000000000E+00 -0.00000000000E+00 -0.45593999997E+02  0.45594000000E+02  0.51100000000E-03 0. -1.
    9900012    2    1    2    0    0 -0.11155818044E+02  0.36181637243E+02 -0.14819006496E+02  0.50528854616E+02  0.29999984091E+02 0.  0.
        -12    1    1    2    0    0  0.11155818044E+02 -0.36181637243E+02  0.14819006496E+02  0.40659145384E+02  0.00000000000E+00 0.  1.
         11    1    3    3    0    0 -0.12610664761E+02  0.81478073987E+01 -0.93696565493E+01  0.17697629650E+02  0.51100000000E-03 0. -1.
        -11    1    3    3    0    0  0.50819025827E+01  0.26395739953E+01 -0.42861112681E+01  0.71528899614E+01  0.51100000000E-03 0.  1.
         12    1    3    3    0    0 -0.36270558652E+01  0.25394255849E+02 -0.11632386788E+01  0.25678335004E+02  0.00000000000E+00 0. -1.
</event>
<event>
 7    1  0.5441610E-013  0.5052886E+02  0.7816164E-02  0.1300439E+00
        -11   -1    0    0    0    0  0.00000000000E+00  0.00000000000E+00  0.45593999997E+02  0.45594000000E+02  0.51100000000E-03 0. -1.
         11   -1    0    0    0    0 -0.00000000000E+00 -0.00000000000E+00 -0.45593999997E+02  0.45594000000E+02  0.51100000000E-03 0.  1.
    9900012    2    1    2    0    0 -0.15043265877E+02 -0.37132613270E+02  0.69307218287E+01  0.50528859312E+02  0.29999998363E+02 0.  0.
        -12    1    1    2    0    0  0.15043265877E+02  0.37132613270E+02 -0.69307218287E+01  0.40659140688E+02  0.00000000000E+00 0.  1.
         11    1    3    3    0    0  0.76228127743E+01 -0.69677819697E+01  0.13621652808E+01  0.10416945554E+02  0.51100000000E-03 0. -1.
        -11    1    3    3    0    0 -0.40949665685E+01 -0.62051585555E+01  0.63652946266E+01  0.97872222740E+01  0.51100000000E-03 0.  1.
         12    1    3    3    0    0 -0.18571112082E+02 -0.23959672744E+02 -0.79673807871E+00  0.30324691483E+02  0.00000000000E+00 0. -1.
</event>
<event>
 7    1  0.5441610E-013  0.5052886E+02  0.7816164E-02  0.1300439E+00
        -11   -1    0    0    0    0  0.00000000000E+00  0.00000000000E+00  0.45593999997E+02  0.45594000000E+02  0.51100000000E-03 0. -1.
         11   -1    0    0    0    0 -0.00000000000E+00 -0.00000000000E+00 -0.45593999997E+02  0.45594000000E+02  0.51100000000E-03 0.  1.
    9900012    2    1    2    0    0 -0.12537275109E+02 -0.41819875669E+01  0.38451182147E+02  0.50528859630E+02  0.29999999330E+02 0.  0.
        -12    1    1    2    0    0  0.12537275109E+02  0.41819875669E+01 -0.38451182147E+02  0.40659140370E+02  0.00000000000E+00 0.  1.
         11    1    3    3    0    0 -0.14384469777E+01 -0.40270606261E+01 -0.74479582796E+00  0.43406299175E+01  0.51100000000E-03 0. -1.
        -11    1    3    3    0    0 -0.85556697671E+01  0.77321885169E+01  0.83213580217E+01  0.14220802509E+02  0.51100000000E-03 0.  1.
         12    1    3    3    0    0 -0.25431583639E+01 -0.78871154577E+01  0.30874619953E+02  0.31967427203E+02  0.00000000000E+00 0. -1.
</event>
<event>
 7    1  0.5441610E-013  0.5052885E+02  0.7816164E-02  0.1300439E+00
        -11   -1    0    0    0    0  0.00000000000E+00  0.00000000000E+00  0.45593999997E+02  0.45594000000E+02  0.51100000000E-03 0.  1.
         11   -1    0    0    0    0 -0.00000000000E+00 -0.00000000000E+00 -0.45593999997E+02  0.45594000000E+02  0.51100000000E-03 0. -1.
    9900012    2    1    2    0    0  0.11520196781E+02  0.29239767583E+01 -0.38883186571E+02  0.50528846396E+02  0.29999959104E+02 0.  0.
        -12    1    1    2    0    0 -0.11520196781E+02 -0.29239767583E+01  0.38883186571E+02  0.40659153604E+02  0.00000000000E+00 0.  1.
         11    1    3    3    0    0  0.25110775446E+01  0.84349192943E+01 -0.24013520716E+02  0.25575428665E+02  0.51100000000E-03 0. -1.
        -11    1    3    3    0    0 -0.46227935636E+01 -0.42247217595E+01 -0.36287264333E+01  0.72378277173E+01  0.51100000000E-03 0.  1.
        -12    1    3    3    0    0  0.13631912800E+02 -0.12862207766E+01 -0.11240939421E+02  0.17715590014E+02  0.00000000000E+00 0.  1.
</event>
<event>
 7    1  0.5441610E-013  0.5052886E+02  0.7816164E-02  0.1300439E+00
        -11   -1    0    0    0    0  0.00000000000E+00  0.00000000000E+00  0.45593999997E+02  0.45594000000E+02  0.51100000000E-03 0. -1.
         11   -1    0    0    0    0 -0.00000000000E+00 -0.00000000000E+00 -0.45593999997E+02  0.45594000000E+02  0.51100000000E-03 0.  1.
    9900012    2    1    2    0    0 -0.15922788903E+02 -0.12914199630E+02  0.35112020299E+02  0.50528859232E+02  0.29999998121E+02 0.  0.
        -12    1    1    2    0    0  0.15922788903E+02  0.12914199630E+02 -0.35112020299E+02  0.40659140768E+02  0.00000000000E+00 0.  1.
         11    1    3    3    0    0  0.62992464351E+01  0.35363326207E+01  0.89703674460E+01  0.11517536474E+02  0.51100000000E-03 0. -1.
        -11    1    3    3    0    0 -0.49732492594E+01 -0.87372084377E+01  0.95308988736E+01  0.13853160400E+02  0.51100000000E-03 0.  1.
        -12    1    3    3    0    0 -0.17248786078E+02 -0.77133238129E+01  0.16610753980E+02  0.25158162357E+02  0.00000000000E+00 0.  1.
</event>
<event>
 7    1  0.5441610E-013  0.5052885E+02  0.7816164E-02  0.1300439E+00
        -11   -1    0    0    0    0  0.00000000000E+00  0.00000000000E+00  0.45593999997E+02  0.45594000000E+02  0.51100000000E-03 0.  1.
         11   -1    0    0    0    0 -0.00000000000E+00 -0.00000000000E+00 -0.45593999997E+02  0.45594000000E+02  0.51100000000E-03 0. -1.
    9900012    2    1    2    0    0 -0.13416864692E+02 -0.37549865761E+02  0.79474259273E+01  0.50528852743E+02  0.29999978397E+02 0.  0.
        -12    1    1    2    0    0  0.13416864692E+02  0.37549865761E+02 -0.79474259273E+01  0.40659147257E+02  0.00000000000E+00 0.  1.
         11    1    3    3    0    0 -0.16576712463E+02 -0.31876818227E+02  0.12468563206E+02  0.38031355551E+02  0.51100000000E-03 0. -1.
        -11    1    3    3    0    0 -0.11276086715E+01  0.15525740164E+01  0.12629034967E+01  0.22971532155E+01  0.51100000000E-03 0.  1.
        -12    1    3    3    0    0  0.42874564427E+01 -0.72256215499E+01 -0.57840407756E+01  0.10200343976E+02  0.00000000000E+00 0.  1.
</event>
<event>
 7    1  0.5441610E-013  0.5052885E+02  0.7816164E-02  0.1300439E+00
        -11   -1    0    0    0    0  0.00000000000E+00  0.00000000000E+00  0.45593999997E+02  0.45594000000E+02  0.51100000000E-03 0.  1.
         11   -1    0    0    0    0 -0.00000000000E+00 -0.00000000000E+00 -0.45593999997E+02  0.45594000000E+02  0.51100000000E-03 0. -1.
    9900012    2    1    2    0    0  0.13476865362E+02 -0.34090968570E+02 -0.17588244590E+02  0.50528851143E+02  0.29999973533E+02 0.  0.
        -12    1    1    2    0    0 -0.13476865362E+02  0.34090968570E+02  0.17588244590E+02  0.40659148857E+02  0.00000000000E+00 0.  1.
         11    1    3    3    0    0 -0.41379903794E+01 -0.15017369890E+02 -0.11491447422E+01  0.15619375682E+02  0.51100000000E-03 0. -1.
        -11    1    3    3    0    0  0.84292035047E+01 -0.11898445335E+02  0.21317242072E+00  0.14583206638E+02  0.51100000000E-03 0.  1.
        -12    1    3    3    0    0  0.91856522365E+01 -0.71751533457E+01 -0.16652272269E+02  0.20326268823E+02  0.00000000000E+00 0.  1.
</event>
<event>
 7    1  0.5441610E-013  0.5052887E+02  0.7816164E-02  0.1300439E+00
        -11   -1    0    0    0    0  0.00000000000E+00  0.00000000000E+00  0.45593999997E+02  0.45594000000E+02  0.51100000000E-03 0.  1.
         11   -1    0    0    0    0 -0.00000000000E+00 -0.00000000000E+00 -0.45593999997E+02  0.45594000000E+02  0.51100000000E-03 0. -1.
    9900012    2    1    2    0    0  0.14913552322E+02 -0.26892979524E+01 -0.37729539388E+02  0.50528874225E+02  0.30000043696E+02 0.  0.
        -12    1    1    2    0    0 -0.14913552322E+02  0.26892979524E+01  0.37729539388E+02  0.40659125775E+02  0.00000000000E+00 0.  1.
         11    1    3    3    0    0  0.24194288952E+01 -0.11639067388E+02 -0.78350344342E+01  0.14237601297E+02  0.51100000000E-03 0.  1.
        -11    1    3    3    0    0 -0.20488727490E+01 -0.16998771253E-01 -0.93453388613E+01  0.95673155688E+01  0.51100000000E-03 0. -1.
        -12    1    3    3    0    0  0.14542996176E+02  0.89667682073E+01 -0.20549166092E+02  0.26723957359E+02  0.00000000000E+00 0.  1.
</event>
<event>
 7    1  0.5441610E-013  0.5052886E+02  0.7816164E-02  0.1300439E+00
        -11   -1    0    0    0    0  0.00000000000E+00  0.00000000000E+00  0.45593999997E+02  0.45594000000E+02  0.51100000000E-03 0. -1.
         11   -1    0    0    0    0 -0.00000000000E+00 -0.00000000000E+00 -0.45593999997E+02  0.45594000000E+02  0.51100000000E-03 0.  1.
    9900012    2    1    2    0    0 -0.29884228007E+02  0.16240540211E+02  0.22278761414E+02  0.50528862773E+02  0.30000008885E+02 0.  0.
        -12    1    1    2    0    0  0.29884228007E+02 -0.16240540211E+02 -0.22278761414E+02  0.40659137227E+02  0.00000000000E+00 0.  1.
         11    1    3    3    0    0 -0.99195866653E+01  0.94560512926E+01  0.10040011260E+00  0.13704932911E+02  0.51100000000E-03 0. -1.
        -11    1    3    3    0    0 -0.20386069008E+02  0.45558985089E+00  0.91835965182E+01  0.22363761244E+02  0.51100000000E-03 0.  1.
         12    1    3    3    0    0  0.42142766644E+00  0.63288990671E+01  0.12994764783E+02  0.14460168618E+02  0.00000000000E+00 0. -1.
</event>
<event>
 7    1  0.5441610E-013  0.5052888E+02  0.7816164E-02  0.1300439E+00
        -11   -1    0    0    0    0  0.00000000000E+00  0.00000000000E+00  0.45593999997E+02  0.45594000000E+02  0.51100000000E-03 0.  1.
         11   -1    0    0    0    0 -0.00000000000E+00 -0.00000000000E+00 -0.45593999997E+02  0.45594000000E+02  0.51100000000E-03 0. -1.
    9900012    2    1    2    0    0  0.25828963830E+02  0.24390106617E+02 -0.19777554892E+02  0.50528876167E+02  0.30000049599E+02 0.  0.
        -12    1    1    2    0    0 -0.25828963830E+02 -0.24390106617E+02  0.19777554892E+02  0.40659123833E+02  0.00000000000E+00 0.  1.
         11    1    3    3    0    0  0.53708194620E+01 -0.39706116932E+01 -0.36907997587E+01  0.76310852460E+01  0.51100000000E-03 0. -1.
        -11    1    3    3    0    0  0.44220681183E+01  0.22025745556E+02 -0.10265699745E+02  0.24699650711E+02  0.51100000000E-03 0.  1.
         12    1    3    3    0    0  0.16036076249E+02  0.63349727541E+01 -0.58210553886E+01  0.18198140210E+02  0.00000000000E+00 0. -1.
</event>
<event>
 7    1  0.5441610E-013  0.5052890E+02  0.7816164E-02  0.1300439E+00
        -11   -1    0    0    0    0  0.00000000000E+00  0.00000000000E+00  0.45593999997E+02  0.45594000000E+02  0.51100000000E-03 0. -1.
         11   -1    0    0    0    0 -0.00000000000E+00 -0.00000000000E+00 -0.45593999997E+02  0.45594000000E+02  0.51100000000E-03 0.  1.
    9900012    2    1    2    0    0 -0.23724310973E+02 -0.32094399737E+02 -0.77632854706E+01  0.50528904745E+02  0.30000136464E+02 0.  0.
        -12    1    1    2    0    0  0.23724310973E+02  0.32094399737E+02  0.77632854706E+01  0.40659095255E+02  0.00000000000E+00 0.  1.
         11    1    3    3    0    0  0.10127133459E+01  0.18649867654E+01 -0.52527091155E+01  0.56652199666E+01  0.51100000000E-03 0. -1.
        -11    1    3    3    0    0 -0.17598732546E+01 -0.11061554964E+02  0.37790065167E+01  0.11821000068E+02  0.51100000000E-03 0.  1.
         12    1    3    3    0    0 -0.22977151064E+02 -0.22897831539E+02 -0.62895828718E+01  0.33042684711E+02  0.00000000000E+00 0. -1.
</event>
<event>
 7    1  0.5441610E-013  0.5052876E+02  0.7816164E-02  0.1300439E+00
        -11   -1    0    0    0    0  0.00000000000E+00  0.00000000000E+00  0.45593999997E+02  0.45594000000E+02  0.51100000000E-03 0.  1.
         11   -1    0    0    0    0 -0.00000000000E+00 -0.00000000000E+00 -0.45593999997E+02  0.45594000000E+02  0.51100000000E-03 0. -1.
    9900012    2    1    2    0    0  0.27612949927E+02  0.71879522880E+00 -0.29835914000E+02  0.50528764463E+02  0.29999710059E+02 0.  0.
        -12    1    1    2    0    0 -0.27612949927E+02 -0.71879522880E+00  0.29835914000E+02  0.40659235537E+02  0.00000000000E+00 0.  1.
         11    1    3    3    0    0  0.22537690416E+02  0.47005364180E+01 -0.12019339926E+02  0.25971273831E+02  0.51100000000E-03 0. -1.
        -11    1    3    3    0    0 -0.22223972851E+01  0.48281891042E+01 -0.72083431002E+01  0.89560409909E+01  0.51100000000E-03 0.  1.
         12    1    3    3    0    0  0.72976567965E+01 -0.88099302934E+01 -0.10608230974E+02  0.15601449641E+02  0.00000000000E+00 0. -1.
</event>
<event>
 7    1  0.5441610E-013  0.5052885E+02  0.7816164E-02  0.1300439E+00
        -11   -1    0    0    0    0  0.00000000000E+00  0.00000000000E+00  0.45593999997E+02  0.45594000000E+02  0.51100000000E-03 0.  1.
         11   -1    0    0    0    0 -0.00000000000E+00 -0.00000000000E+00 -0.45593999997E+02  0.45594000000E+02  0.51100000000E-03 0. -1.
    9900012    2    1    2    0    0 -0.18384958100E+01 -0.18004076363E+02 -0.36409330294E+02  0.50528853858E+02  0.29999981787E+02 0.  0.
        -12    1    1    2    0    0  0.18384958100E+01  0.18004076363E+02  0.36409330294E+02  0.40659146142E+02  0.00000000000E+00 0.  1.
         11    1    3    3    0    0  0.17616405230E+01 -0.97625144702E+00 -0.36266764426E+00  0.20464535913E+01  0.51100000000E-03 0.  1.
        -11    1    3    3    0    0 -0.53080613915E+01 -0.12846705778E+02 -0.40083216305E+02  0.42424964286E+02  0.51100000000E-03 0. -1.
         12    1    3    3    0    0  0.17079250585E+01 -0.41811191380E+01  0.40365536549E+01  0.60574359807E+01  0.00000000000E+00 0. -1.
</event>
<event>
 7    1  0.5441610E-013  0.5052877E+02  0.7816164E-02  0.1300439E+00
        -11   -1    0    0    0    0  0.00000000000E+00  0.00000000000E+00  0.45593999997E+02  0.45594000000E+02  0.51100000000E-03 0. -1.
         11   -1    0    0    0    0 -0.00000000000E+00 -0.00000000000E+00 -0.45593999997E+02  0.45594000000E+02  0.51100000000E-03 0.  1.
    9900012    2    1    2    0    0 -0.12116422543E+02 -0.27974493352E+02  0.26903401426E+02  0.50528770029E+02  0.29999726978E+02 0.  0.
        -12    1    1    2    0    0  0.12116422543E+02  0.27974493352E+02 -0.26903401426E+02  0.40659229971E+02  0.00000000000E+00 0.  1.
         11    1    3    3    0    0 -0.23768532960E+01 -0.28042728866E+02  0.23092749948E+02  0.36404933378E+02  0.51100000000E-03 0. -1.
        -11    1    3    3    0    0 -0.91055698112E+01 -0.30761592690E+01  0.48320674167E+01  0.10757464070E+02  0.51100000000E-03 0.  1.
        -12    1    3    3    0    0 -0.63399943615E+00  0.31443947823E+01 -0.10214159387E+01  0.33663725806E+01  0.00000000000E+00 0.  1.
</event>
<event>
 7    1  0.5441610E-013  0.5052886E+02  0.7816164E-02  0.1300439E+00
        -11   -1    0    0    0    0  0.00000000000E+00  0.00000000000E+00  0.45593999997E+02  0.45594000000E+02  0.51100000000E-03 0.  1.
         11   -1    0    0    0    0 -0.00000000000E+00 -0.00000000000E+00 -0.45593999997E+02  0.45594000000E+02  0.51100000000E-03 0. -1.
    9900012    2    1    2    0    0 -0.12144864092E+02 -0.11805221388E+02 -0.36963561237E+02  0.50528857914E+02  0.29999994117E+02 0.  0.
        -12    1    1    2    0    0  0.12144864092E+02  0.11805221388E+02  0.36963561237E+02  0.40659142086E+02  0.00000000000E+00 0.  1.
         11    1    3    3    0    0 -0.26700085563E+01 -0.13408159301E+02 -0.17373433746E+02  0.22107552599E+02  0.51100000000E-03 0. -1.
        -11    1    3    3    0    0 -0.21825411455E+00 -0.50011365618E+01  0.80528976478E+00  0.50702557761E+01  0.51100000000E-03 0.  1.
         12    1    3    3    0    0 -0.92566014212E+01  0.66040744753E+01 -0.20395417255E+02  0.23351049539E+02  0.00000000000E+00 0. -1.
</event>
<event>
 7    1  0.5441610E-013  0.5052885E+02  0.7816164E-02  0.1300439E+00
        -11   -1    0    0    0    0  0.00000000000E+00  0.00000000000E+00  0.45593999997E+02  0.45594000000E+02  0.51100000000E-03 0.  1.
         11   -1    0    0    0    0 -0.00000000000E+00 -0.00000000000E+00 -0.45593999997E+02  0.45594000000E+02  0.51100000000E-03 0. -1.
    9900012    2    1    2    0    0 -0.42445114013E+01  0.10557106856E+02 -0.39034571341E+02  0.50528854141E+02  0.29999982647E+02 0.  0.
        -12    1    1    2    0    0  0.42445114013E+01 -0.10557106856E+02  0.39034571341E+02  0.40659145859E+02  0.00000000000E+00 0.  1.
         11    1    3    3    0    0  0.55240333105E+00  0.14109299666E+01  0.31734938100E+01  0.35166654708E+01  0.51100000000E-03 0.  1.
        -11    1    3    3    0    0 -0.63520773626E+01 -0.39698122469E+01 -0.15766452698E+02  0.17455352389E+02  0.51100000000E-03 0. -1.
         12    1    3    3    0    0  0.15551626302E+01  0.13115989136E+02 -0.26441612453E+02  0.29556836281E+02  0.00000000000E+00 0. -1.
</event>
<event>
 7    1  0.5441610E-013  0.5052887E+02  0.7816164E-02  0.1300439E+00
        -11   -1    0    0    0    0  0.00000000000E+00  0.00000000000E+00  0.45593999997E+02  0.45594000000E+02  0.51100000000E-03 0. -1.
         11   -1    0    0    0    0 -0.00000000000E+00 -0.00000000000E+00 -0.45593999997E+02  0.45594000000E+02  0.51100000000E-03 0.  1.
    9900012    2    1    2    0    0  0.14143579872E+02 -0.33652581382E+02  0.17906091625E+02  0.50528865694E+02  0.30000017763E+02 0.  0.
        -12    1    1    2    0    0 -0.14143579872E+02  0.33652581382E+02 -0.17906091625E+02  0.40659134306E+02  0.00000000000E+00 0.  1.
         11    1    3    3    0    0  0.67188014190E+01 -0.33523944188E+02  0.76481639572E+01  0.35035575329E+02  0.51100000000E-03 0.  1.
        -11    1    3    3    0    0  0.12416219564E+01 -0.20081251566E-01  0.91214884375E+01  0.92056276220E+01  0.51100000000E-03 0. -1.
        -12    1    3    3    0    0  0.61831564961E+01 -0.10855594218E+00  0.11364392301E+01  0.62876627432E+01  0.00000000000E+00 0.  1.
</event>
<event>
 7    1  0.5441610E-013  0.5052886E+02  0.7816164E-02  0.1300439E+00
        -11   -1    0    0    0    0  0.00000000000E+00  0.00000000000E+00  0.45593999997E+02  0.45594000000E+02  0.51100000000E-03 0.  1.
         11   -1    0    0    0    0 -0.00000000000E+00 -0.00000000000E+00 -0.45593999997E+02  0.45594000000E+02  0.51100000000E-03 0. -1.
    9900012    2    1    2    0    0  0.39194619543E+02  0.10218766069E+02 -0.35389637396E+01  0.50528860247E+02  0.30000001205E+02 0.  0.
        -12    1    1    2    0    0 -0.39194619543E+02 -0.10218766069E+02  0.35389637396E+01  0.40659139753E+02  0.00000000000E+00 0.  1.
         11    1    3    3    0    0  0.30939377657E+02  0.11207870510E+02 -0.11161781662E+02  0.34748335518E+02  0.51100000000E-03 0. -1.
        -11    1    3    3    0    0  0.66212074743E+01  0.34620043322E+01  0.80942655391E+01  0.11015579753E+02  0.51100000000E-03 0.  1.
        -12    1    3    3    0    0  0.16340344121E+01 -0.44511087723E+01 -0.47144761694E+00  0.47649449753E+01  0.00000000000E+00 0.  1.
</event>
<event>
 7    1  0.5441610E-013  0.5052886E+02  0.7816164E-02  0.1300439E+00
        -11   -1    0    0    0    0  0.00000000000E+00  0.00000000000E+00  0.45593999997E+02  0.45594000000E+02  0.51100000000E-03 0. -1.
         11   -1    0    0    0    0 -0.00000000000E+00 -0.00000000000E+00 -0.45593999997E+02  0.45594000000E+02  0.51100000000E-03 0.  1.
    9900012    2    1    2    0    0 -0.32136683145E+02 -0.24276176596E+02 -0.55737357047E+01  0.50528859780E+02  0.29999999789E+02 0.  0.
        -12    1    1    2    0    0  0.32136683145E+02  0.24276176596E+02  0.55737357047E+01  0.40659140220E+02  0.00000000000E+00 0.  1.
         11    1    3    3    0    0 -0.50699909246E+01 -0.39754147246E+01  0.33122428283E+01  0.72442862328E+01  0.51100000000E-03 0. -1.
        -11    1    3    3    0    0 -0.14552538893E+02  0.19618724192E+01 -0.99265543505E+01  0.17724610381E+02  0.51100000000E-03 0.  1.
         12    1    3    3    0    0 -0.12514153328E+02 -0.22262634291E+02  0.10405758175E+01  0.25559963167E+02  0.00000000000E+00 0. -1.
</event>
<event>
 7    1  0.5441610E-013  0.5052887E+02  0.7816164E-02  0.1300439E+00
        -11   -1    0    0    0    0  0.00000000000E+00  0.00000000000E+00  0.45593999997E+02  0.45594000000E+02  0.51100000000E-03 0. -1.
         11   -1    0    0    0    0 -0.00000000000E+00 -0.00000000000E+00 -0.45593999997E+02  0.45594000000E+02  0.51100000000E-03 0.  1.
    9900012    2    1    2    0    0 -0.93931834029E+01  0.33962770155E+02  0.20284564489E+02  0.50528865632E+02  0.30000017575E+02 0.  0.
        -12    1    1    2    0    0  0.93931834029E+01 -0.33962770155E+02 -0.20284564489E+02  0.40659134368E+02  0.00000000000E+00 0.  1.
         11    1    3    3    0    0  0.31487136541E+01  0.13377600076E+02  0.17235475943E+02  0.22043960913E+02  0.51100000000E-03 0. -1.
        -11    1    3    3    0    0 -0.13985573816E+01  0.32336947493E+01  0.66743212705E+01  0.75471391377E+01  0.51100000000E-03 0.  1.
         12    1    3    3    0    0 -0.11143339675E+02  0.17351475330E+02 -0.36252327250E+01  0.20937765582E+02  0.00000000000E+00 0. -1.
</event>
<event>
 7    1  0.5441610E-013  0.5052882E+02  0.7816164E-02  0.1300439E+00
        -11   -1    0    0    0    0  0.00000000000E+00  0.00000000000E+00  0.45593999997E+02  0.45594000000E+02  0.51100000000E-03 0.  1.
         11   -1    0    0    0    0 -0.00000000000E+00 -0.00000000000E+00 -0.45593999997E+02  0.45594000000E+02  0.51100000000E-03 0. -1.
    9900012    2    1    2    0    0  0.38754625119E+02 -0.11108167634E+02  0.52779046949E+01  0.50528823493E+02  0.29999889489E+02 0.  0.
        -12    1    1    2    0    0 -0.38754625119E+02  0.11108167634E+02 -0.52779046949E+01  0.40659176507E+02  0.00000000000E+00 0.  1.
         11    1    3    3    0    0  0.29993457489E+02 -0.72800847738E+01  0.10702990992E+02  0.32667432450E+02  0.51100000000E-03 0. -1.
        -11    1    3    3    0    0  0.37490753961E-01  0.14114737133E+00  0.42443517357E+01  0.42468635550E+01  0.51100000000E-03 0.  1.
         12    1    3    3    0    0  0.87236768756E+01 -0.39692302310E+01 -0.96694380325E+01  0.13614527488E+02  0.00000000000E+00 0. -1.
</event>
<event>
 7    1  0.5441610E-013  0.5052886E+02  0.7816164E-02  0.1300439E+00
        -11   -1    0    0    0    0  0.00000000000E+00  0.00000000000E+00  0.45593999997E+02  0.45594000000E+02  0.51100000000E-03 0.  1.
         11   -1    0    0    0    0 -0.00000000000E+00 -0.00000000000E+00 -0.45593999997E+02  0.45594000000E+02  0.51100000000E-03 0. -1.
    9900012    2    1    2    0    0  0.37376890612E+01  0.71767995175E+01 -0.39845816402E+02  0.50528857663E+02  0.29999993353E+02 0.  0.
        -12    1    1    2    0    0 -0.37376890612E+01 -0.71767995175E+01  0.39845816402E+02  0.40659142337E+02  0.00000000000E+00 0.  1.
         11    1    3    3    0    0  0.14666042607E+02  0.60222298122E+01 -0.12071246040E+02  0.19926741803E+02  0.51100000000E-03 0. -1.
        -11    1    3    3    0    0 -0.90150820611E+00 -0.21061074827E+01 -0.44477029303E+01  0.50030458114E+01  0.51100000000E-03 0.  1.
         12    1    3    3    0    0 -0.10026845340E+02  0.32606771879E+01 -0.23326867432E+02  0.25599070049E+02  0.00000000000E+00 0. -1.
</event>
<event>
 7    1  0.5441610E-013  0.5052886E+02  0.7816164E-02  0.1300439E+00
        -11   -1    0    0    0    0  0.00000000000E+00  0.00000000000E+00  0.45593999997E+02  0.45594000000E+02  0.51100000000E-03 0. -1.
         11   -1    0    0    0    0 -0.00000000000E+00 -0.00000000000E+00 -0.45593999997E+02  0.45594000000E+02  0.51100000000E-03 0.  1.
    9900012    2    1    2    0    0 -0.60939624979E+01  0.28575553601E+02  0.28274848099E+02  0.50528859852E+02  0.30000000007E+02 0.  0.
        -12    1    1    2    0    0  0.60939624979E+01 -0.28575553601E+02 -0.28274848099E+02  0.40659140148E+02  0.00000000000E+00 0.  1.
         11    1    3    3    0    0 -0.17886263691E+01  0.16449960008E+02  0.12278070903E+02  0.20604644960E+02  0.51100000000E-03 0. -1.
        -11    1    3    3    0    0 -0.11020717137E+02  0.24522660625E+00  0.39162088407E+01  0.11698420160E+02  0.51100000000E-03 0.  1.
         12    1    3    3    0    0  0.67153810083E+01  0.11880366987E+02  0.12080568355E+02  0.18225794732E+02  0.00000000000E+00 0. -1.
</event>
<event>
 7    1  0.5441610E-013  0.5052886E+02  0.7816164E-02  0.1300439E+00
        -11   -1    0    0    0    0  0.00000000000E+00  0.00000000000E+00  0.45593999997E+02  0.45594000000E+02  0.51100000000E-03 0.  1.
         11   -1    0    0    0    0 -0.00000000000E+00 -0.00000000000E+00 -0.45593999997E+02  0.45594000000E+02  0.51100000000E-03 0. -1.
    9900012    2    1    2    0    0 -0.29145782189E+02  0.28255519549E+02 -0.23053599820E+01  0.50528859711E+02  0.29999999578E+02 0.  0.
        -12    1    1    2    0    0  0.29145782189E+02 -0.28255519549E+02  0.23053599820E+01  0.40659140289E+02  0.00000000000E+00 0.  1.
         11    1    3    3    0    0 -0.45005246009E+01  0.60315664025E+01 -0.37974854537E+01  0.84294371688E+01  0.51100000000E-03 0. -1.
        -11    1    3    3    0    0 -0.19356402074E+02  0.11627011984E+02 -0.10800098148E+02  0.25029978610E+02  0.51100000000E-03 0.  1.
        -12    1    3    3    0    0 -0.52888555140E+01  0.10596941162E+02  0.12292223620E+02  0.17069443933E+02  0.00000000000E+00 0.  1.
</event>
<event>
 7    1  0.5441610E-013  0.5052891E+02  0.7816164E-02  0.1300439E+00
        -11   -1    0    0    0    0  0.00000000000E+00  0.00000000000E+00  0.45593999997E+02  0.45594000000E+02  0.51100000000E-03 0.  1.
         11   -1    0    0    0    0 -0.00000000000E+00 -0.00000000000E+00 -0.45593999997E+02  0.45594000000E+02  0.51100000000E-03 0. -1.
    9900012    2    1    2    0    0 -0.22163025969E+01 -0.25756154050E+01 -0.40516861020E+02  0.50528907304E+02  0.30000144242E+02 0.  0.
        -12    1    1    2    0    0  0.22163025969E+01  0.25756154050E+01  0.40516861020E+02  0.40659092696E+02  0.00000000000E+00 0.  1.
         11    1    3    3    0    0  0.28589256349E+01 -0.60272846166E+01 -0.77582640003E+01  0.10231924364E+02  0.51100000000E-03 0.  1.
        -11    1    3    3    0    0  0.53660111043E+01  0.14354877255E+01 -0.28174588317E+02  0.28716931021E+02  0.51100000000E-03 0. -1.
         12    1    3    3    0    0 -0.10441239336E+02  0.20161814861E+01 -0.45840087024E+01  0.11580051919E+02  0.00000000000E+00 0. -1.
</event>
<event>
 7    1  0.5441610E-013  0.5052886E+02  0.7816164E-02  0.1300439E+00
        -11   -1    0    0    0    0  0.00000000000E+00  0.00000000000E+00  0.45593999997E+02  0.45594000000E+02  0.51100000000E-03 0.  1.
         11   -1    0    0    0    0 -0.00000000000E+00 -0.00000000000E+00 -0.45593999997E+02  0.45594000000E+02  0.51100000000E-03 0. -1.
    9900012    2    1    2    0    0  0.18887265591E+02 -0.68185579490E+01 -0.35354545264E+02  0.50528863206E+02  0.30000010201E+02 0.  0.
        -12    1    1    2    0    0 -0.18887265591E+02  0.68185579490E+01  0.35354545264E+02  0.40659136794E+02  0.00000000000E+00 0.  1.
         11    1    3    3    0    0  0.64995216221E+01 -0.12319913306E+01 -0.66413379930E+01  0.93738441716E+01  0.51100000000E-03 0. -1.
        -11    1    3    3    0    0 -0.68008674932E+01  0.37081322922E+01 -0.10898769557E+02  0.13371059116E+02  0.51100000000E-03 0.  1.
        -12    1    3    3    0    0  0.19188611462E+02 -0.92946989107E+01 -0.17814437714E+02  0.27783959918E+02  0.00000000000E+00 0.  1.
</event>
<event>
 7    1  0.5441610E-013  0.5052885E+02  0.7816164E-02  0.1300439E+00
        -11   -1    0    0    0    0  0.00000000000E+00  0.00000000000E+00  0.45593999997E+02  0.45594000000E+02  0.51100000000E-03 0. -1.
         11   -1    0    0    0    0 -0.00000000000E+00 -0.00000000000E+00 -0.45593999997E+02  0.45594000000E+02  0.51100000000E-03 0.  1.
    9900012    2    1    2    0    0  0.30672440303E+02 -0.23590347717E+02  0.12484530711E+02  0.50528848427E+02  0.29999965278E+02 0.  0.
        -12    1    1    2    0    0 -0.30672440303E+02  0.23590347717E+02 -0.12484530711E+02  0.40659151573E+02  0.00000000000E+00 0.  1.
         11    1    3    3    0    0  0.14323576986E+02 -0.80778432843E+01 -0.37237782821E+01  0.16860692001E+02  0.51100000000E-03 0.  1.
        -11    1    3    3    0    0  0.13071382035E+02 -0.10104896227E+02  0.27293816196E+00  0.16524056753E+02  0.51100000000E-03 0. -1.
         12    1    3    3    0    0  0.32774812823E+01 -0.54076082057E+01  0.15935370831E+02  0.17144099673E+02  0.00000000000E+00 0. -1.
</event>
<event>
 7    1  0.5441610E-013  0.5052886E+02  0.7816164E-02  0.1300439E+00
        -11   -1    0    0    0    0  0.00000000000E+00  0.00000000000E+00  0.45593999997E+02  0.45594000000E+02  0.51100000000E-03 0.  1.
         11   -1    0    0    0    0 -0.00000000000E+00 -0.00000000000E+00 -0.45593999997E+02  0.45594000000E+02  0.51100000000E-03 0. -1.
    9900012    2    1    2    0    0 -0.17169404823E+02 -0.33426447814E+02 -0.15525773769E+02  0.50528861709E+02  0.30000005651E+02 0.  0.
        -12    1    1    2    0    0  0.17169404823E+02  0.33426447814E+02  0.15525773769E+02  0.40659138291E+02  0.00000000000E+00 0.  1.
         11    1    3    3    0    0 -0.46262703822E+00 -0.24889072322E+01  0.34900645920E+01  0.43115234088E+01  0.51100000000E-03 0.  1.
        -11    1    3    3    0    0  0.26104559030E+01 -0.19034933364E+02 -0.63703208781E+01  0.20241644117E+02  0.51100000000E-03 0. -1.
         12    1    3    3    0    0 -0.19317233687E+02 -0.11902607218E+02 -0.12645517483E+02  0.25975694184E+02  0.00000000000E+00 0. -1.
</event>
<event>
 7    1  0.5441610E-013  0.5052886E+02  0.7816164E-02  0.1300439E+00
        -11   -1    0    0    0    0  0.00000000000E+00  0.00000000000E+00  0.45593999997E+02  0.45594000000E+02  0.51100000000E-03 0. -1.
         11   -1    0    0    0    0 -0.00000000000E+00 -0.00000000000E+00 -0.45593999997E+02  0.45594000000E+02  0.51100000000E-03 0.  1.
    9900012    2    1    2    0    0 -0.29575153602E+02  0.25682107872E+02  0.10904376016E+02  0.50528858449E+02  0.29999995742E+02 0.  0.
        -12    1    1    2    0    0  0.29575153602E+02 -0.25682107872E+02 -0.10904376016E+02  0.40659141551E+02  0.00000000000E+00 0.  1.
         11    1    3    3    0    0  0.26722341357E-01 -0.37450762447E+01  0.71951585159E+00  0.38136614275E+01  0.51100000000E-03 0. -1.
        -11    1    3    3    0    0 -0.28295297641E+01  0.13741858398E+02 -0.86811579945E-01  0.14030411520E+02  0.51100000000E-03 0.  1.
         12    1    3    3    0    0 -0.26772346180E+02  0.15685325719E+02  0.10271671744E+02  0.32684785502E+02  0.00000000000E+00 0. -1.
</event>
<event>
 7    1  0.5441610E-013  0.5052886E+02  0.7816164E-02  0.1300439E+00
        -11   -1    0    0    0    0  0.00000000000E+00  0.00000000000E+00  0.45593999997E+02  0.45594000000E+02  0.51100000000E-03 0.  1.
         11   -1    0    0    0    0 -0.00000000000E+00 -0.00000000000E+00 -0.45593999997E+02  0.45594000000E+02  0.51100000000E-03 0. -1.
    9900012    2    1    2    0    0  0.28959371770E+02 -0.25917934444E+02  0.11949107530E+02  0.50528859455E+02  0.29999998798E+02 0.  0.
        -12    1    1    2    0    0 -0.28959371770E+02  0.25917934444E+02 -0.11949107530E+02  0.40659140545E+02  0.00000000000E+00 0.  1.
         11    1    3    3    0    0  0.21933390998E+01 -0.75795009364E+01 -0.76464127811E+01  0.10987592982E+02  0.51100000000E-03 0. -1.
        -11    1    3    3    0    0  0.38999616184E+01 -0.82248149135E+01  0.32303154945E+01  0.96587897503E+01  0.51100000000E-03 0.  1.
        -12    1    3    3    0    0  0.22866071051E+02 -0.10113618594E+02  0.16365204816E+02  0.29882476723E+02  0.00000000000E+00 0.  1.
</event>
<event>
 7    1  0.5441610E-013  0.5052886E+02  0.7816164E-02  0.1300439E+00
        -11   -1    0    0    0    0  0.00000000000E+00  0.00000000000E+00  0.45593999997E+02  0.45594000000E+02  0.51100000000E-03 0. -1.
         11   -1    0    0    0    0 -0.00000000000E+00 -0.00000000000E+00 -0.45593999997E+02  0.45594000000E+02  0.51100000000E-03 0.  1.
    9900012    2    1    2    0    0  0.18351449214E+02  0.99033502687E+01  0.34904346437E+02  0.50528862835E+02  0.30000009074E+02 0.  0.
        -12    1    1    2    0    0 -0.18351449214E+02 -0.99033502687E+01 -0.34904346437E+02  0.40659137165E+02  0.00000000000E+00 0.  1.
         11    1    3    3    0    0  0.16024512599E+02  0.16880206012E+02  0.25848073329E+02  0.34782887375E+02  0.51100000000E-03 0. -1.
        -11    1    3    3    0    0  0.47150506816E+01  0.10017564641E+00  0.11191109576E+01  0.48470761998E+01  0.51100000000E-03 0.  1.
         12    1    3    3    0    0 -0.23881140665E+01 -0.70770313899E+01  0.79371621501E+01  0.10898899260E+02  0.00000000000E+00 0. -1.
</event>
<event>
 7    1  0.6860235E-013  0.5052887E+02  0.7816164E-02  0.1300439E+00
        -11   -1    0    0    0    0  0.00000000000E+00  0.00000000000E+00  0.45593999997E+02  0.45594000000E+02  0.51100000000E-03 0. -1.
         11   -1    0    0    0    0 -0.00000000000E+00 -0.00000000000E+00 -0.45593999997E+02  0.45594000000E+02  0.51100000000E-03 0.  1.
    9900012    2    1    2    0    0  0.11901372988E+02  0.84623515187E+01  0.37946158837E+02  0.50528867659E+02  0.30000023736E+02 0.  0.
        -12    1    1    2    0    0 -0.11901372988E+02 -0.84623515187E+01 -0.37946158837E+02  0.40659132341E+02  0.00000000000E+00 0.  1.
         11    1    3    3    0    0  0.89863847371E+01  0.10740177176E+02  0.17352568356E+02  0.22298388848E+02  0.51100000000E-03 0. -1.
        -11    1    3    3    0    0 -0.14539772202E+01  0.41216780381E+01 -0.16532257355E+01  0.46728401642E+01  0.51100000000E-03 0.  1.
         12    1    3    3    0    0  0.43689654715E+01 -0.63995036950E+01  0.22246816217E+02  0.23557638647E+02  0.00000000000E+00 0. -1.
</event>
<event>
 7    1  0.5441610E-013  0.5052886E+02  0.7816164E-02  0.1300439E+00
        -11   -1    0    0    0    0  0.00000000000E+00  0.00000000000E+00  0.45593999997E+02  0.45594000000E+02  0.51100000000E-03 0.  1.
         11   -1    0    0    0    0 -0.00000000000E+00 -0.00000000000E+00 -0.45593999997E+02  0.45594000000E+02  0.51100000000E-03 0. -1.
    9900012    2    1    2    0    0  0.13838352489E+02  0.21105969858E+02 -0.31877955690E+02  0.50528855614E+02  0.29999987124E+02 0.  0.
        -12    1    1    2    0    0 -0.13838352489E+02 -0.21105969858E+02  0.31877955690E+02  0.40659144386E+02  0.00000000000E+00 0.  1.
         11    1    3    3    0    0 -0.32802905650E+01  0.15664425226E+02 -0.12901989370E+02  0.20557136323E+02  0.51100000000E-03 0. -1.
        -11    1    3    3    0    0  0.18300884646E+01  0.74793166449E+01 -0.74806471494E+01  0.10735431212E+02  0.51100000000E-03 0.  1.
        -12    1    3    3    0    0  0.15288554589E+02 -0.20377720137E+01 -0.11495319171E+02  0.19236288079E+02  0.00000000000E+00 0.  1.
</event>
<event>
 7    1  0.5441610E-013  0.5052886E+02  0.7816164E-02  0.1300439E+00
        -11   -1    0    0    0    0  0.00000000000E+00  0.00000000000E+00  0.45593999997E+02  0.45594000000E+02  0.51100000000E-03 0.  1.
         11   -1    0    0    0    0 -0.00000000000E+00 -0.00000000000E+00 -0.45593999997E+02  0.45594000000E+02  0.51100000000E-03 0. -1.
    9900012    2    1    2    0    0 -0.13596046119E+02  0.24059689228E+02 -0.29823550248E+02  0.50528864923E+02  0.30000015420E+02 0.  0.
        -12    1    1    2    0    0  0.13596046119E+02 -0.24059689228E+02  0.29823550248E+02  0.40659135077E+02  0.00000000000E+00 0.  1.
         11    1    3    3    0    0  0.30235600339E+01  0.12179790188E+02 -0.12268845616E+02  0.17550321288E+02  0.51100000000E-03 0. -1.
        -11    1    3    3    0    0  0.33322275699E+01  0.43262642085E+01 -0.77969481443E+01  0.95190705011E+01  0.51100000000E-03 0.  1.
        -12    1    3    3    0    0 -0.19951833722E+02  0.75536348312E+01 -0.97577564879E+01  0.23459473134E+02  0.00000000000E+00 0.  1.
</event>
<event>
 7    1  0.5441610E-013  0.5052886E+02  0.7816164E-02  0.1300439E+00
        -11   -1    0    0    0    0  0.00000000000E+00  0.00000000000E+00  0.45593999997E+02  0.45594000000E+02  0.51100000000E-03 0.  1.
         11   -1    0    0    0    0 -0.00000000000E+00 -0.00000000000E+00 -0.45593999997E+02  0.45594000000E+02  0.51100000000E-03 0. -1.
    9900012    2    1    2    0    0  0.37708229113E+02 -0.11706494069E+02 -0.97063514400E+01  0.50528858291E+02  0.29999995262E+02 0.  0.
        -12    1    1    2    0    0 -0.37708229113E+02  0.11706494069E+02  0.97063514400E+01  0.40659141709E+02  0.00000000000E+00 0.  1.
         11    1    3    3    0    0  0.31493723134E+01  0.27691825965E+01 -0.59151014117E+01  0.72508856833E+01  0.51100000000E-03 0. -1.
        -11    1    3    3    0    0  0.73851598043E+01  0.34002803118E+01  0.50505502984E+01  0.95713400374E+01  0.51100000000E-03 0.  1.
         12    1    3    3    0    0  0.27173696995E+02 -0.17875956977E+02 -0.88418003266E+01  0.33706632571E+02  0.00000000000E+00 0. -1.
</event>
<event>
 7    1  0.5441610E-013  0.5052885E+02  0.7816164E-02  0.1300439E+00
        -11   -1    0    0    0    0  0.00000000000E+00  0.00000000000E+00  0.45593999997E+02  0.45594000000E+02  0.51100000000E-03 0. -1.
         11   -1    0    0    0    0 -0.00000000000E+00 -0.00000000000E+00 -0.45593999997E+02  0.45594000000E+02  0.51100000000E-03 0.  1.
    9900012    2    1    2    0    0  0.11784346509E+01  0.11525799125E+02  0.38973495167E+02  0.50528854912E+02  0.29999984991E+02 0.  0.
        -12    1    1    2    0    0 -0.11784346509E+01 -0.11525799125E+02 -0.38973495167E+02  0.40659145088E+02  0.00000000000E+00 0.  1.
         11    1    3    3    0    0 -0.51042877200E+01  0.11025523527E+02  0.76150980001E+01  0.14338955331E+02  0.51100000000E-03 0. -1.
        -11    1    3    3    0    0 -0.77251367904E-01  0.61979730334E+01  0.24399409063E+02  0.25174431481E+02  0.51100000000E-03 0.  1.
        -12    1    3    3    0    0  0.63599737389E+01 -0.56976974355E+01  0.69589881046E+01  0.11015468100E+02  0.00000000000E+00 0.  1.
</event>
<event>
 7    1  0.5441610E-013  0.5052886E+02  0.7816164E-02  0.1300439E+00
        -11   -1    0    0    0    0  0.00000000000E+00  0.00000000000E+00  0.45593999997E+02  0.45594000000E+02  0.51100000000E-03 0. -1.
         11   -1    0    0    0    0 -0.00000000000E+00 -0.00000000000E+00 -0.45593999997E+02  0.45594000000E+02  0.51100000000E-03 0.  1.
    9900012    2    1    2    0    0  0.36677437907E+02  0.99434018581E+01  0.14458899690E+02  0.50528862378E+02  0.30000007684E+02 0.  0.
        -12    1    1    2    0    0 -0.36677437907E+02 -0.99434018581E+01 -0.14458899690E+02  0.40659137622E+02  0.00000000000E+00 0.  1.
         11    1    3    3    0    0  0.30596664347E+02  0.40943350638E+01  0.85970130201E+01  0.32044158312E+02  0.51100000000E-03 0. -1.
        -11    1    3    3    0    0  0.39330531932E+01 -0.45792452841E+01  0.49355404957E+01  0.77973043444E+01  0.51100000000E-03 0.  1.
         12    1    3    3    0    0  0.21477203667E+01  0.10428312078E+02  0.92634617401E+00  0.10687399722E+02  0.00000000000E+00 0. -1.
</event>
<event>
 7    1  0.5441610E-013  0.5052886E+02  0.7816164E-02  0.1300439E+00
        -11   -1    0    0    0    0  0.00000000000E+00  0.00000000000E+00  0.45593999997E+02  0.45594000000E+02  0.51100000000E-03 0. -1.
         11   -1    0    0    0    0 -0.00000000000E+00 -0.00000000000E+00 -0.45593999997E+02  0.45594000000E+02  0.51100000000E-03 0.  1.
    9900012    2    1    2    0    0 -0.31460928492E+02  0.10173764974E+02  0.23661567976E+02  0.50528864318E+02  0.30000013582E+02 0.  0.
        -12    1    1    2    0    0  0.31460928492E+02 -0.10173764974E+02 -0.23661567976E+02  0.40659135682E+02  0.00000000000E+00 0.  1.
         11    1    3    3    0    0 -0.51138388094E+01 -0.22296455203E+01  0.87690569028E+01  0.10393220181E+02  0.51100000000E-03 0. -1.
        -11    1    3    3    0    0 -0.22029000635E+02 -0.16157900480E+01  0.56561351634E+01  0.22800866468E+02  0.51100000000E-03 0.  1.
        -12    1    3    3    0    0 -0.43180890470E+01  0.14019200542E+02  0.92363759100E+01  0.17334777668E+02  0.00000000000E+00 0.  1.
</event>
<event>
 7    1  0.5441610E-013  0.5052888E+02  0.7816164E-02  0.1300439E+00
        -11   -1    0    0    0    0  0.00000000000E+00  0.00000000000E+00  0.45593999997E+02  0.45594000000E+02  0.51100000000E-03 0.  1.
         11   -1    0    0    0    0 -0.00000000000E+00 -0.00000000000E+00 -0.45593999997E+02  0.45594000000E+02  0.51100000000E-03 0. -1.
    9900012    2    1    2    0    0 -0.27511659673E+02  0.25697528104E+02 -0.15359362524E+02  0.50528875738E+02  0.30000048293E+02 0.  0.
        -12    1    1    2    0    0  0.27511659673E+02 -0.25697528104E+02  0.15359362524E+02  0.40659124262E+02  0.00000000000E+00 0.  1.
         11    1    3    3    0    0 -0.75006701433E+01  0.20359959149E+00 -0.14443318420E+01  0.76411779278E+01  0.51100000000E-03 0.  1.
        -11    1    3    3    0    0 -0.83027027666E+01  0.79594727990E+01 -0.18048898433E+02  0.21402121749E+02  0.51100000000E-03 0. -1.
         12    1    3    3    0    0 -0.11708286763E+02  0.17534455714E+02  0.41338677507E+01  0.21485576061E+02  0.00000000000E+00 0. -1.
</event>
<event>
 7    1  0.5441610E-013  0.5052886E+02  0.7816164E-02  0.1300439E+00
        -11   -1    0    0    0    0  0.00000000000E+00  0.00000000000E+00  0.45593999997E+02  0.45594000000E+02  0.51100000000E-03 0.  1.
         11   -1    0    0    0    0 -0.00000000000E+00 -0.00000000000E+00 -0.45593999997E+02  0.45594000000E+02  0.51100000000E-03 0. -1.
    9900012    2    1    2    0    0  0.13980649147E+02 -0.24506567551E+02  0.29276873699E+02  0.50528859118E+02  0.29999997775E+02 0.  0.
        -12    1    1    2    0    0 -0.13980649147E+02  0.24506567551E+02 -0.29276873699E+02  0.40659140882E+02  0.00000000000E+00 0.  1.
         11    1    3    3    0    0  0.13339351210E+02 -0.13987961731E+02  0.81161710006E+01  0.20963625547E+02  0.51100000000E-03 0.  1.
        -11    1    3    3    0    0 -0.28885189426E+01 -0.11651805135E+02  0.50329266675E+01  0.13016852756E+02  0.51100000000E-03 0. -1.
        -12    1    3    3    0    0  0.35298168792E+01  0.11331993147E+01  0.16127776030E+02  0.16548380814E+02  0.00000000000E+00 0.  1.
</event>
<event>
 7    1  0.5441610E-013  0.5052890E+02  0.7816164E-02  0.1300439E+00
        -11   -1    0    0    0    0  0.00000000000E+00  0.00000000000E+00  0.45593999997E+02  0.45594000000E+02  0.51100000000E-03 0. -1.
         11   -1    0    0    0    0 -0.00000000000E+00 -0.00000000000E+00 -0.45593999997E+02  0.45594000000E+02  0.51100000000E-03 0.  1.
    9900012    2    1    2    0    0  0.20356912760E+02  0.33669930264E+02 -0.10251564952E+02  0.50528896652E+02  0.30000111864E+02 0.  0.
        -12    1    1    2    0    0 -0.20356912760E+02 -0.33669930264E+02  0.10251564952E+02  0.40659103348E+02  0.00000000000E+00 0.  1.
         11    1    3    3    0    0  0.18085899593E+02  0.36467356727E+02 -0.24607054264E+01  0.40780178300E+02  0.51100000000E-03 0. -1.
        -11    1    3    3    0    0  0.19876216343E+01 -0.99095186470E+00 -0.56031753609E+00  0.22905417180E+01  0.51100000000E-03 0.  1.
        -12    1    3    3    0    0  0.28339153279E+00 -0.18064745990E+01 -0.72305419898E+01  0.74581766340E+01  0.00000000000E+00 0.  1.
</event>
<event>
 7    1  0.5441610E-013  0.5052882E+02  0.7816164E-02  0.1300439E+00
        -11   -1    0    0    0    0  0.00000000000E+00  0.00000000000E+00  0.45593999997E+02  0.45594000000E+02  0.51100000000E-03 0.  1.
         11   -1    0    0    0    0 -0.00000000000E+00 -0.00000000000E+00 -0.45593999997E+02  0.45594000000E+02  0.51100000000E-03 0. -1.
    9900012    2    1    2    0    0  0.21810065283E+02  0.34257261226E+02  0.19824563193E+01  0.50528818658E+02  0.29999874791E+02 0.  0.
        -12    1    1    2    0    0 -0.21810065283E+02 -0.34257261226E+02 -0.19824563193E+01  0.40659181342E+02  0.00000000000E+00 0.  1.
         11    1    3    3    0    0  0.17364003507E+02  0.14596052160E+02  0.11722240204E+02  0.25533591054E+02  0.51100000000E-03 0. -1.
        -11    1    3    3    0    0 -0.19903869038E+01  0.11071348904E+01  0.11369791292E+01  0.25456059188E+01  0.51100000000E-03 0.  1.
        -12    1    3    3    0    0  0.64364486798E+01  0.18554074176E+02 -0.10876763014E+02  0.22449621685E+02  0.00000000000E+00 0.  1.
</event>
<event>
 7    1  0.5441610E-013  0.5052886E+02  0.7816164E-02  0.1300439E+00
        -11   -1    0    0    0    0  0.00000000000E+00  0.00000000000E+00  0.45593999997E+02  0.45594000000E+02  0.51100000000E-03 0. -1.
         11   -1    0    0    0    0 -0.00000000000E+00 -0.00000000000E+00 -0.45593999997E+02  0.45594000000E+02  0.51100000000E-03 0.  1.
    9900012    2    1    2    0    0  0.36239792427E+02  0.10544066089E+02  0.15121708372E+02  0.50528856515E+02  0.29999989862E+02 0.  0.
        -12    1    1    2    0    0 -0.36239792427E+02 -0.10544066089E+02 -0.15121708372E+02  0.40659143485E+02  0.00000000000E+00 0.  1.
         11    1    3    3    0    0  0.32460247578E+02  0.13584935113E+02  0.11486863049E+02  0.37015755535E+02  0.51100000000E-03 0. -1.
        -11    1    3    3    0    0  0.77308615428E+01 -0.35032148103E+01  0.42422913501E+01  0.94887180568E+01  0.51100000000E-03 0.  1.
        -12    1    3    3    0    0 -0.39513166931E+01  0.46234578660E+00 -0.60744602689E+00  0.40243829231E+01  0.00000000000E+00 0.  1.
</event>
<event>
 7    1  0.5441610E-013  0.5052885E+02  0.7816164E-02  0.1300439E+00
        -11   -1    0    0    0    0  0.00000000000E+00  0.00000000000E+00  0.45593999997E+02  0.45594000000E+02  0.51100000000E-03 0.  1.
         11   -1    0    0    0    0 -0.00000000000E+00 -0.00000000000E+00 -0.45593999997E+02  0.45594000000E+02  0.51100000000E-03 0. -1.
    9900012    2    1    2    0    0 -0.18689716965E+02  0.33255049687E+02 -0.14069923354E+02  0.50528848593E+02  0.29999965784E+02 0.  0.
        -12    1    1    2    0    0  0.18689716965E+02 -0.33255049687E+02  0.14069923354E+02  0.40659151407E+02  0.00000000000E+00 0.  1.
         11    1    3    3    0    0 -0.56084144499E+01  0.17184519797E+02  0.53300170255E+00  0.18084416617E+02  0.51100000000E-03 0.  1.
        -11    1    3    3    0    0 -0.13129040118E+02  0.20483326399E+02 -0.10801114583E+02  0.26619587361E+02  0.51100000000E-03 0. -1.
        -12    1    3    3    0    0  0.47737603424E-01 -0.44127965089E+01 -0.38018104738E+01  0.58248446148E+01  0.00000000000E+00 0.  1.
</event>
<event>
 7    1  0.5441610E-013  0.5052886E+02  0.7816164E-02  0.1300439E+00
        -11   -1    0    0    0    0  0.00000000000E+00  0.00000000000E+00  0.45593999997E+02  0.45594000000E+02  0.51100000000E-03 0.  1.
         11   -1    0    0    0    0 -0.00000000000E+00 -0.00000000000E+00 -0.45593999997E+02  0.45594000000E+02  0.51100000000E-03 0. -1.
    9900012    2    1    2    0    0  0.92151603081E+01 -0.39945855144E+01 -0.39399107474E+02  0.50528861265E+02  0.30000004301E+02 0.  0.
        -12    1    1    2    0    0 -0.92151603081E+01  0.39945855144E+01  0.39399107474E+02  0.40659138735E+02  0.00000000000E+00 0.  1.
         11    1    3    3    0    0  0.98232992964E+01 -0.12405589795E+02 -0.33056628332E+02  0.36648827323E+02  0.51100000000E-03 0. -1.
        -11    1    3    3    0    0 -0.90373578551E+00 -0.11657274324E+01  0.10228420150E+01  0.17949553937E+01  0.51100000000E-03 0.  1.
        -12    1    3    3    0    0  0.29559679720E+00  0.95767317129E+01 -0.73653211571E+01  0.12085078548E+02  0.00000000000E+00 0.  1.
</event>
<event>
 7    1  0.5441610E-013  0.5052886E+02  0.7816164E-02  0.1300439E+00
        -11   -1    0    0    0    0  0.00000000000E+00  0.00000000000E+00  0.45593999997E+02  0.45594000000E+02  0.51100000000E-03 0.  1.
         11   -1    0    0    0    0 -0.00000000000E+00 -0.00000000000E+00 -0.45593999997E+02  0.45594000000E+02  0.51100000000E-03 0. -1.
    9900012    2    1    2    0    0  0.73841133415E+01 -0.47015234247E+01 -0.39705619898E+02  0.50528859529E+02  0.29999999025E+02 0.  0.
        -12    1    1    2    0    0 -0.73841133415E+01  0.47015234247E+01  0.39705619898E+02  0.40659140471E+02  0.00000000000E+00 0.  1.
         11    1    3    3    0    0 -0.25095512900E+01  0.17811186604E+01 -0.18646712391E+02  0.18898944801E+02  0.51100000000E-03 0. -1.
        -11    1    3    3    0    0  0.15712781959E+01 -0.10671377844E+02 -0.19355921487E+02  0.22158495371E+02  0.51100000000E-03 0.  1.
        -12    1    3    3    0    0  0.83223864356E+01  0.41887357590E+01 -0.17029860207E+01  0.94714193566E+01  0.00000000000E+00 0.  1.
</event>
<event>
 7    1  0.5441610E-013  0.5052885E+02  0.7816164E-02  0.1300439E+00
        -11   -1    0    0    0    0  0.00000000000E+00  0.00000000000E+00  0.45593999997E+02  0.45594000000E+02  0.51100000000E-03 0.  1.
         11   -1    0    0    0    0 -0.00000000000E+00 -0.00000000000E+00 -0.45593999997E+02  0.45594000000E+02  0.51100000000E-03 0. -1.
    9900012    2    1    2    0    0  0.21477319000E+02 -0.11366085245E+02 -0.32599127468E+02  0.50528852973E+02  0.29999979097E+02 0.  0.
        -12    1    1    2    0    0 -0.21477319000E+02  0.11366085245E+02  0.32599127468E+02  0.40659147027E+02  0.00000000000E+00 0.  1.
         11    1    3    3    0    0  0.63560462856E+01 -0.14158446976E+02 -0.26755786347E+02  0.30931101637E+02  0.51100000000E-03 0. -1.
        -11    1    3    3    0    0  0.21565530382E+01  0.18015741901E+01  0.28139685009E+01  0.39767838204E+01  0.51100000000E-03 0.  1.
        -12    1    3    3    0    0  0.12964719677E+02  0.99078754018E+00 -0.86573096221E+01  0.15620967516E+02  0.00000000000E+00 0.  1.
</event>
<event>
 7    1  0.5441610E-013  0.5052886E+02  0.7816164E-02  0.1300439E+00
        -11   -1    0    0    0    0  0.00000000000E+00  0.00000000000E+00  0.45593999997E+02  0.45594000000E+02  0.51100000000E-03 0.  1.
         11   -1    0    0    0    0 -0.00000000000E+00 -0.00000000000E+00 -0.45593999997E+02  0.45594000000E+02  0.51100000000E-03 0. -1.
    9900012    2    1    2    0    0 -0.29010367493E+02  0.26159517602E+02 -0.11280248884E+02  0.50528858370E+02  0.29999995501E+02 0.  0.
        -12    1    1    2    0    0  0.29010367493E+02 -0.26159517602E+02  0.11280248884E+02  0.40659141630E+02  0.00000000000E+00 0.  1.
         11    1    3    3    0    0 -0.12685106411E+02  0.65247445499E+01 -0.80686971780E+01  0.16388657374E+02  0.51100000000E-03 0. -1.
        -11    1    3    3    0    0 -0.14475129943E+01 -0.19147478572E+00 -0.86421629460E+01  0.87646412995E+01  0.51100000000E-03 0.  1.
         12    1    3    3    0    0 -0.14877748087E+02  0.19826247838E+02  0.54306112401E+01  0.25375559697E+02  0.00000000000E+00 0. -1.
</event>
<event>
 7    1  0.5441610E-013  0.5052886E+02  0.7816164E-02  0.1300439E+00
        -11   -1    0    0    0    0  0.00000000000E+00  0.00000000000E+00  0.45593999997E+02  0.45594000000E+02  0.51100000000E-03 0.  1.
         11   -1    0    0    0    0 -0.00000000000E+00 -0.00000000000E+00 -0.45593999997E+02  0.45594000000E+02  0.51100000000E-03 0. -1.
    9900012    2    1    2    0    0 -0.15536278440E+02  0.18985157368E+01 -0.37525790600E+02  0.50528864865E+02  0.30000015243E+02 0.  0.
        -12    1    1    2    0    0  0.15536278440E+02 -0.18985157368E+01  0.37525790600E+02  0.40659135135E+02  0.00000000000E+00 0.  1.
         11    1    3    3    0    0  0.96663919391E+00  0.85421145542E+01 -0.20264216349E+02  0.22012282409E+02  0.51100000000E-03 0. -1.
        -11    1    3    3    0    0 -0.67355732495E+01  0.40951655520E+01 -0.83503476554E+01  0.11483319822E+02  0.51100000000E-03 0.  1.
        -12    1    3    3    0    0 -0.97673443840E+01 -0.10738764369E+02 -0.89112265964E+01  0.17033262634E+02  0.00000000000E+00 0.  1.
</event>
<event>
 7    1  0.5441610E-013  0.5052886E+02  0.7816164E-02  0.1300439E+00
        -11   -1    0    0    0    0  0.00000000000E+00  0.00000000000E+00  0.45593999997E+02  0.45594000000E+02  0.51100000000E-03 0.  1.
         11   -1    0    0    0    0 -0.00000000000E+00 -0.00000000000E+00 -0.45593999997E+02  0.45594000000E+02  0.51100000000E-03 0. -1.
    9900012    2    1    2    0    0 -0.31040889368E+02  0.20055409821E+02 -0.16953147136E+02  0.50528862359E+02  0.30000007628E+02 0.  0.
        -12    1    1    2    0    0  0.31040889368E+02 -0.20055409821E+02  0.16953147136E+02  0.40659137641E+02  0.00000000000E+00 0.  1.
         11    1    3    3    0    0 -0.10893568762E+02 -0.11284742916E+01 -0.19468665040E+00  0.10953592915E+02  0.51100000000E-03 0.  1.
        -11    1    3    3    0    0 -0.19339399085E+02  0.11536364823E+02 -0.19197706925E+02  0.29591418042E+02  0.51100000000E-03 0. -1.
        -12    1    3    3    0    0 -0.80792152071E+00  0.96475192890E+01  0.24392464397E+01  0.99838514016E+01  0.00000000000E+00 0.  1.
</event>
<event>
 7    1  0.5441610E-013  0.5052886E+02  0.7816164E-02  0.1300439E+00
        -11   -1    0    0    0    0  0.00000000000E+00  0.00000000000E+00  0.45593999997E+02  0.45594000000E+02  0.51100000000E-03 0.  1.
         11   -1    0    0    0    0 -0.00000000000E+00 -0.00000000000E+00 -0.45593999997E+02  0.45594000000E+02  0.51100000000E-03 0. -1.
    9900012    2    1    2    0    0 -0.15596819621E+02  0.36977693609E+01 -0.37366184929E+02  0.50528855190E+02  0.29999985835E+02 0.  0.
        -12    1    1    2    0    0  0.15596819621E+02 -0.36977693609E+01  0.37366184929E+02  0.40659144810E+02  0.00000000000E+00 0.  1.
         11    1    3    3    0    0  0.37105758765E+00  0.18053691348E+01 -0.12893903155E+02  0.13024967573E+02  0.51100000000E-03 0. -1.
        -11    1    3    3    0    0 -0.12096950629E+02  0.89824544798E+01 -0.41398780328E+01  0.15625597377E+02  0.51100000000E-03 0.  1.
         12    1    3    3    0    0 -0.38709265797E+01 -0.70900542536E+01 -0.20332403741E+02  0.21878290239E+02  0.00000000000E+00 0. -1.
</event>
<event>
 7    1  0.5441610E-013  0.5052886E+02  0.7816164E-02  0.1300439E+00
        -11   -1    0    0    0    0  0.00000000000E+00  0.00000000000E+00  0.45593999997E+02  0.45594000000E+02  0.51100000000E-03 0. -1.
         11   -1    0    0    0    0 -0.00000000000E+00 -0.00000000000E+00 -0.45593999997E+02  0.45594000000E+02  0.51100000000E-03 0.  1.
    9900012    2    1    2    0    0  0.48916852491E+01  0.39366571195E+01  0.40171384251E+02  0.50528856299E+02  0.29999989206E+02 0.  0.
        -12    1    1    2    0    0 -0.48916852491E+01 -0.39366571195E+01 -0.40171384251E+02  0.40659143701E+02  0.00000000000E+00 0.  1.
         11    1    3    3    0    0 -0.83264618714E+00  0.37074076834E+01  0.65788217966E+01  0.75973066212E+01  0.51100000000E-03 0.  1.
        -11    1    3    3    0    0  0.14332307705E+02  0.11057967131E+01  0.30544239502E+02  0.33757790175E+02  0.51100000000E-03 0. -1.
        -12    1    3    3    0    0 -0.86079762692E+01 -0.87654727703E+00  0.30483229528E+01  0.91737595022E+01  0.00000000000E+00 0.  1.
</event>
<event>
 7    1  0.5441610E-013  0.5052887E+02  0.7816164E-02  0.1300439E+00
        -11   -1    0    0    0    0  0.00000000000E+00  0.00000000000E+00  0.45593999997E+02  0.45594000000E+02  0.51100000000E-03 0.  1.
         11   -1    0    0    0    0 -0.00000000000E+00 -0.00000000000E+00 -0.45593999997E+02  0.45594000000E+02  0.51100000000E-03 0. -1.
    9900012    2    1    2    0    0  0.14994700868E+02 -0.27556541007E+02 -0.25864270400E+02  0.50528874460E+02  0.30000044408E+02 0.  0.
        -12    1    1    2    0    0 -0.14994700868E+02  0.27556541007E+02  0.25864270400E+02  0.40659125540E+02  0.00000000000E+00 0.  1.
         11    1    3    3    0    0  0.52013310018E+01 -0.23700401080E+02 -0.29386267580E+02  0.38109258431E+02  0.51100000000E-03 0. -1.
        -11    1    3    3    0    0  0.51467668505E+01 -0.33627756140E+01 -0.61506360661E+00  0.61786545741E+01  0.51100000000E-03 0.  1.
        -12    1    3    3    0    0  0.46466030156E+01 -0.49336431231E+00  0.41370607873E+01  0.62409614554E+01  0.00000000000E+00 0.  1.
</event>
<event>
 7    1  0.8823732E-013  0.5052886E+02  0.7816164E-02  0.1300439E+00
        -11   -1    0    0    0    0  0.00000000000E+00  0.00000000000E+00  0.45593999997E+02  0.45594000000E+02  0.51100000000E-03 0. -1.
         11   -1    0    0    0    0 -0.00000000000E+00 -0.00000000000E+00 -0.45593999997E+02  0.45594000000E+02  0.51100000000E-03 0.  1.
    9900012    2    1    2    0    0 -0.26617150552E+02 -0.12021683854E+02  0.28287309916E+02  0.50528862178E+02  0.30000007075E+02 0.  0.
        -12    1    1    2    0    0  0.26617150552E+02  0.12021683854E+02 -0.28287309916E+02  0.40659137822E+02  0.00000000000E+00 0.  1.
         11    1    3    3    0    0 -0.16250750406E+02 -0.11954819459E+01  0.12088415477E+02  0.20289057515E+02  0.51100000000E-03 0. -1.
        -11    1    3    3    0    0 -0.80292550044E+01  0.59140578108E+00 -0.23024468653E+01  0.83737660914E+01  0.51100000000E-03 0.  1.
        -12    1    3    3    0    0 -0.23371451413E+01 -0.11417607689E+02  0.18501341304E+02  0.21866038571E+02  0.00000000000E+00 0.  1.
</event>
<event>
 7    1  0.5441610E-013  0.5052888E+02  0.7816164E-02  0.1300439E+00
        -11   -1    0    0    0    0  0.00000000000E+00  0.00000000000E+00  0.45593999997E+02  0.45594000000E+02  0.51100000000E-03 0. -1.
         11   -1    0    0    0    0 -0.00000000000E+00 -0.00000000000E+00 -0.45593999997E+02  0.45594000000E+02  0.51100000000E-03 0.  1.
    9900012    2    1    2    0    0 -0.32800404094E+02 -0.18883059408E+02  0.14856906278E+02  0.50528879184E+02  0.30000058767E+02 0.  0.
        -12    1    1    2    0    0  0.32800404094E+02  0.18883059408E+02 -0.14856906278E+02  0.40659120816E+02  0.00000000000E+00 0.  1.
         11    1    3    3    0    0 -0.18242300840E+02 -0.87530975926E+01  0.61763225078E+01  0.21155264531E+02  0.51100000000E-03 0. -1.
        -11    1    3    3    0    0 -0.19195005305E+01  0.66809435896E+01  0.31183325936E+01  0.76186276954E+01  0.51100000000E-03 0.  1.
         12    1    3    3    0    0 -0.12638602723E+02 -0.16810905405E+02  0.55622511770E+01  0.21754986957E+02  0.00000000000E+00 0. -1.
</event>
<event>
 7    1  0.5441610E-013  0.5052886E+02  0.7816164E-02  0.1300439E+00
        -11   -1    0    0    0    0  0.00000000000E+00  0.00000000000E+00  0.45593999997E+02  0.45594000000E+02  0.51100000000E-03 0.  1.
         11   -1    0    0    0    0 -0.00000000000E+00 -0.00000000000E+00 -0.45593999997E+02  0.45594000000E+02  0.51100000000E-03 0. -1.
    9900012    2    1    2    0    0 -0.26222750440E+02 -0.29728164579E+02 -0.90426248775E+01  0.50528862349E+02  0.30000007596E+02 0.  0.
        -12    1    1    2    0    0  0.26222750440E+02  0.29728164579E+02  0.90426248775E+01  0.40659137651E+02  0.00000000000E+00 0.  1.
         11    1    3    3    0    0 -0.24194745398E+02 -0.16247514076E+02 -0.11930398545E+02  0.31491297659E+02  0.51100000000E-03 0. -1.
        -11    1    3    3    0    0 -0.74549470567E+01 -0.67737506509E+01  0.26108382232E+01  0.10405595129E+02  0.51100000000E-03 0.  1.
         12    1    3    3    0    0  0.54269420154E+01 -0.67068998517E+01  0.27693544439E+00  0.86319695609E+01  0.00000000000E+00 0. -1.
</event>
<event>
 7    1  0.5441610E-013  0.5052885E+02  0.7816164E-02  0.1300439E+00
        -11   -1    0    0    0    0  0.00000000000E+00  0.00000000000E+00  0.45593999997E+02  0.45594000000E+02  0.51100000000E-03 0. -1.
         11   -1    0    0    0    0 -0.00000000000E+00 -0.00000000000E+00 -0.45593999997E+02  0.45594000000E+02  0.51100000000E-03 0.  1.
    9900012    2    1    2    0    0 -0.35320351290E+02 -0.45293698414E+01  0.19624584528E+02  0.50528846980E+02  0.29999960879E+02 0.  0.
        -12    1    1    2    0    0  0.35320351290E+02  0.45293698414E+01 -0.19624584528E+02  0.40659153020E+02  0.00000000000E+00 0.  1.
         11    1    3    3    0    0 -0.17173941601E+02  0.38535727014E+01  0.62596180424E+00  0.17612101554E+02  0.51100000000E-03 0. -1.
        -11    1    3    3    0    0 -0.13024499809E+02 -0.12108923178E+02  0.65540690951E+01  0.18953085178E+02  0.51100000000E-03 0.  1.
         12    1    3    3    0    0 -0.51219098796E+01  0.37259806347E+01  0.12444553629E+02  0.13963660248E+02  0.00000000000E+00 0. -1.
</event>
<event>
 7    1  0.5441610E-013  0.5052884E+02  0.7816164E-02  0.1300439E+00
        -11   -1    0    0    0    0  0.00000000000E+00  0.00000000000E+00  0.45593999997E+02  0.45594000000E+02  0.51100000000E-03 0.  1.
         11   -1    0    0    0    0 -0.00000000000E+00 -0.00000000000E+00 -0.45593999997E+02  0.45594000000E+02  0.51100000000E-03 0. -1.
    9900012    2    1    2    0    0  0.30027782256E+02 -0.23725377056E+02  0.13733387924E+02  0.50528841529E+02  0.29999944312E+02 0.  0.
        -12    1    1    2    0    0 -0.30027782256E+02  0.23725377056E+02 -0.13733387924E+02  0.40659158471E+02  0.00000000000E+00 0.  1.
         11    1    3    3    0    0  0.12939153716E+02 -0.14717603299E+02  0.44422361817E+01  0.20093854988E+02  0.51100000000E-03 0. -1.
        -11    1    3    3    0    0  0.11311374030E+02 -0.11168899119E+02  0.15127039396E+02  0.21943536887E+02  0.51100000000E-03 0.  1.
         12    1    3    3    0    0  0.57772545105E+01  0.21611253620E+01 -0.58358876536E+01  0.84914496533E+01  0.00000000000E+00 0. -1.
</event>
<event>
 7    1  0.5441610E-013  0.5052887E+02  0.7816164E-02  0.1300439E+00
        -11   -1    0    0    0    0  0.00000000000E+00  0.00000000000E+00  0.45593999997E+02  0.45594000000E+02  0.51100000000E-03 0. -1.
         11   -1    0    0    0    0 -0.00000000000E+00 -0.00000000000E+00 -0.45593999997E+02  0.45594000000E+02  0.51100000000E-03 0.  1.
    9900012    2    1    2    0    0 -0.36026061634E+02  0.14262158844E+02  0.12323907820E+02  0.50528868237E+02  0.30000025493E+02 0.  0.
        -12    1    1    2    0    0  0.36026061634E+02 -0.14262158844E+02 -0.12323907820E+02  0.40659131763E+02  0.00000000000E+00 0.  1.
         11    1    3    3    0    0 -0.73288464827E+01 -0.40750920270E+00 -0.21749431005E+00  0.73433887649E+01  0.51100000000E-03 0. -1.
        -11    1    3    3    0    0 -0.19789934417E+02  0.21078483970E+02  0.38107376290E+01  0.29162745279E+02  0.51100000000E-03 0.  1.
         12    1    3    3    0    0 -0.89072807346E+01 -0.64088159228E+01  0.87306645006E+01  0.14022734193E+02  0.00000000000E+00 0. -1.
</event>
<event>
 7    1  0.5441610E-013  0.5052886E+02  0.7816164E-02  0.1300439E+00
        -11   -1    0    0    0    0  0.00000000000E+00  0.00000000000E+00  0.45593999997E+02  0.45594000000E+02  0.51100000000E-03 0. -1.
         11   -1    0    0    0    0 -0.00000000000E+00 -0.00000000000E+00 -0.45593999997E+02  0.45594000000E+02  0.51100000000E-03 0.  1.
    9900012    2    1    2    0    0 -0.40257887159E+02  0.14558579138E+01 -0.55089329918E+01  0.50528863961E+02  0.30000012495E+02 0.  0.
        -12    1    1    2    0    0  0.40257887159E+02 -0.14558579138E+01  0.55089329918E+01  0.40659136039E+02  0.00000000000E+00 0.  1.
         11    1    3    3    0    0 -0.19203079139E+02 -0.62852440547E+01  0.75554373814E+01  0.21571907091E+02  0.51100000000E-03 0. -1.
        -11    1    3    3    0    0  0.17484487791E+01  0.18290239938E+00 -0.14228391010E+01  0.22616360868E+01  0.51100000000E-03 0.  1.
        -12    1    3    3    0    0 -0.22803256798E+02  0.75581995691E+01 -0.11641531272E+02  0.26695320783E+02  0.00000000000E+00 0.  1.
</event>
<event>
 7    1  0.5441610E-013  0.5052886E+02  0.7816164E-02  0.1300439E+00
        -11   -1    0    0    0    0  0.00000000000E+00  0.00000000000E+00  0.45593999997E+02  0.45594000000E+02  0.51100000000E-03 0.  1.
         11   -1    0    0    0    0 -0.00000000000E+00 -0.00000000000E+00 -0.45593999997E+02  0.45594000000E+02  0.51100000000E-03 0. -1.
    9900012    2    1    2    0    0  0.28635980006E+01  0.31698533200E+02 -0.25301555317E+02  0.50528857092E+02  0.29999991618E+02 0.  0.
        -12    1    1    2    0    0 -0.28635980006E+01 -0.31698533200E+02  0.25301555317E+02  0.40659142908E+02  0.00000000000E+00 0.  1.
         11    1    3    3    0    0 -0.35372843959E+01  0.13067723358E+01 -0.11391878993E+02  0.11999789251E+02  0.51100000000E-03 0. -1.
        -11    1    3    3    0    0 -0.39738154943E+01  0.20417771650E+02 -0.11992774785E+02  0.24010482211E+02  0.51100000000E-03 0.  1.
         12    1    3    3    0    0  0.10374697891E+02  0.99739892144E+01 -0.19169015394E+01  0.14518585630E+02  0.00000000000E+00 0. -1.
</event>
<event>
 7    1  0.5441610E-013  0.5052886E+02  0.7816164E-02  0.1300439E+00
        -11   -1    0    0    0    0  0.00000000000E+00  0.00000000000E+00  0.45593999997E+02  0.45594000000E+02  0.51100000000E-03 0. -1.
         11   -1    0    0    0    0 -0.00000000000E+00 -0.00000000000E+00 -0.45593999997E+02  0.45594000000E+02  0.51100000000E-03 0.  1.
    9900012    2    1    2    0    0 -0.25657812942E+02  0.21141736813E+02  0.23406600722E+02  0.50528863784E+02  0.30000011959E+02 0.  0.
        -12    1    1    2    0    0  0.25657812942E+02 -0.21141736813E+02 -0.23406600722E+02  0.40659136216E+02  0.00000000000E+00 0.  1.
         11    1    3    3    0    0 -0.13524240256E+02  0.39202340789E+01  0.87523423970E+01  0.16579409140E+02  0.51100000000E-03 0. -1.
        -11    1    3    3    0    0 -0.60677409059E+01  0.79038097601E+01 -0.51659317424E+01  0.11223838000E+02  0.51100000000E-03 0.  1.
         12    1    3    3    0    0 -0.60658317801E+01  0.93176929742E+01  0.19820190067E+02  0.22725616644E+02  0.00000000000E+00 0. -1.
</event>
<event>
 7    1  0.5441610E-013  0.5052886E+02  0.7816164E-02  0.1300439E+00
        -11   -1    0    0    0    0  0.00000000000E+00  0.00000000000E+00  0.45593999997E+02  0.45594000000E+02  0.51100000000E-03 0. -1.
         11   -1    0    0    0    0 -0.00000000000E+00 -0.00000000000E+00 -0.45593999997E+02  0.45594000000E+02  0.51100000000E-03 0.  1.
    9900012    2    1    2    0    0 -0.21562239746E+02 -0.21515841098E+02  0.26931470607E+02  0.50528859452E+02  0.29999998791E+02 0.  0.
        -12    1    1    2    0    0  0.21562239746E+02  0.21515841098E+02 -0.26931470607E+02  0.40659140548E+02  0.00000000000E+00 0.  1.
         11    1    3    3    0    0 -0.69086831820E+01 -0.15946947184E+01  0.29752922392E+01  0.76892989748E+01  0.51100000000E-03 0. -1.
        -11    1    3    3    0    0 -0.42946838345E+01 -0.10006334978E+02 -0.38534982078E+01  0.11550779092E+02  0.51100000000E-03 0.  1.
         12    1    3    3    0    0 -0.10358872729E+02 -0.99148114018E+01  0.27809676576E+02  0.31288781386E+02  0.00000000000E+00 0. -1.
</event>
<event>
 7    1  0.5441610E-013  0.5052886E+02  0.7816164E-02  0.1300439E+00
        -11   -1    0    0    0    0  0.00000000000E+00  0.00000000000E+00  0.45593999997E+02  0.45594000000E+02  0.51100000000E-03 0.  1.
         11   -1    0    0    0    0 -0.00000000000E+00 -0.00000000000E+00 -0.45593999997E+02  0.45594000000E+02  0.51100000000E-03 0. -1.
    9900012    2    1    2    0    0  0.10377096759E+02  0.38297200584E+02 -0.88772656767E+01  0.50528861352E+02  0.30000004566E+02 0.  0.
        -12    1    1    2    0    0 -0.10377096759E+02 -0.38297200584E+02  0.88772656767E+01  0.40659138648E+02  0.00000000000E+00 0.  1.
         11    1    3    3    0    0  0.12045608605E+00 -0.10890496092E+01  0.93173335308E+00  0.14382857930E+01  0.51100000000E-03 0.  1.
        -11    1    3    3    0    0  0.52984290369E+01  0.35943858263E+02 -0.16651419752E+02  0.39966286756E+02  0.51100000000E-03 0. -1.
         12    1    3    3    0    0  0.49582116359E+01  0.34423919301E+01  0.68424207218E+01  0.91242888030E+01  0.00000000000E+00 0. -1.
</event>
<event>
 7    1  0.5441610E-013  0.5052886E+02  0.7816164E-02  0.1300439E+00
        -11   -1    0    0    0    0  0.00000000000E+00  0.00000000000E+00  0.45593999997E+02  0.45594000000E+02  0.51100000000E-03 0.  1.
         11   -1    0    0    0    0 -0.00000000000E+00 -0.00000000000E+00 -0.45593999997E+02  0.45594000000E+02  0.51100000000E-03 0. -1.
    9900012    2    1    2    0    0  0.33977782168E+02 -0.17798169151E+02 -0.13487066304E+02  0.50528862482E+02  0.30000008002E+02 0.  0.
        -12    1    1    2    0    0 -0.33977782168E+02  0.17798169151E+02  0.13487066304E+02  0.40659137518E+02  0.00000000000E+00 0.  1.
         11    1    3    3    0    0  0.17641256205E+02 -0.67909479619E+01 -0.20711827567E+01  0.19016327011E+02  0.51100000000E-03 0. -1.
        -11    1    3    3    0    0  0.32299111352E+01 -0.12067122228E+02  0.20867993888E+01  0.12665010729E+02  0.51100000000E-03 0.  1.
         12    1    3    3    0    0  0.13106614828E+02  0.10599010392E+01 -0.13502682936E+02  0.18847524743E+02  0.00000000000E+00 0. -1.
</event>
<event>
 7    1  0.5441610E-013  0.5052885E+02  0.7816164E-02  0.1300439E+00
        -11   -1    0    0    0    0  0.00000000000E+00  0.00000000000E+00  0.45593999997E+02  0.45594000000E+02  0.51100000000E-03 0. -1.
         11   -1    0    0    0    0 -0.00000000000E+00 -0.00000000000E+00 -0.45593999997E+02  0.45594000000E+02  0.51100000000E-03 0.  1.
    9900012    2    1    2    0    0  0.11327030648E+02  0.54409890922E+00  0.39045723205E+02  0.50528853827E+02  0.29999981694E+02 0.  0.
        -12    1    1    2    0    0 -0.11327030648E+02 -0.54409890922E+00 -0.39045723205E+02  0.40659146173E+02  0.00000000000E+00 0.  1.
         11    1    3    3    0    0  0.52765636131E+01 -0.13164229983E+01  0.53959305162E+01  0.76610155639E+01  0.51100000000E-03 0. -1.
        -11    1    3    3    0    0  0.13443087245E+02 -0.68718490667E+01  0.19948085057E+02  0.25017294058E+02  0.51100000000E-03 0.  1.
        -12    1    3    3    0    0 -0.73926202107E+01  0.87323709743E+01  0.13701707631E+02  0.17850544205E+02  0.00000000000E+00 0.  1.
</event>
<event>
 7    1  0.5441610E-013  0.5052885E+02  0.7816164E-02  0.1300439E+00
        -11   -1    0    0    0    0  0.00000000000E+00  0.00000000000E+00  0.45593999997E+02  0.45594000000E+02  0.51100000000E-03 0.  1.
         11   -1    0    0    0    0 -0.00000000000E+00 -0.00000000000E+00 -0.45593999997E+02  0.45594000000E+02  0.51100000000E-03 0. -1.
    9900012    2    1    2    0    0 -0.37530773378E+02  0.24509008097E+01 -0.15446690056E+02  0.50528854672E+02  0.29999984261E+02 0.  0.
        -12    1    1    2    0    0  0.37530773378E+02 -0.24509008097E+01  0.15446690056E+02  0.40659145328E+02  0.00000000000E+00 0.  1.
         11    1    3    3    0    0 -0.10376712537E+02  0.86562893760E+01 -0.91579515630E+00  0.13544230870E+02  0.51100000000E-03 0. -1.
        -11    1    3    3    0    0  0.31224421018E+01 -0.92684421415E+00 -0.17751637681E+01  0.37094327789E+01  0.51100000000E-03 0.  1.
         12    1    3    3    0    0 -0.30276502942E+02 -0.52785443521E+01 -0.12755731132E+02  0.33275191023E+02  0.00000000000E+00 0. -1.
</event>
<event>
 7    1  0.5441610E-013  0.5052886E+02  0.7816164E-02  0.1300439E+00
        -11   -1    0    0    0    0  0.00000000000E+00  0.00000000000E+00  0.45593999997E+02  0.45594000000E+02  0.51100000000E-03 0.  1.
         11   -1    0    0    0    0 -0.00000000000E+00 -0.00000000000E+00 -0.45593999997E+02  0.45594000000E+02  0.51100000000E-03 0. -1.
    9900012    2    1    2    0    0  0.11876078319E+02  0.19090901387E+02 -0.33877161664E+02  0.50528857923E+02  0.29999994144E+02 0.  0.
        -12    1    1    2    0    0 -0.11876078319E+02 -0.19090901387E+02  0.33877161664E+02  0.40659142077E+02  0.00000000000E+00 0.  1.
         11    1    3    3    0    0  0.38869417093E+01  0.16814144666E+02 -0.74756416038E+01  0.18807152745E+02  0.51100000000E-03 0. -1.
        -11    1    3    3    0    0  0.36484277740E+01  0.84689103017E+01 -0.19102183726E+02  0.21211480153E+02  0.51100000000E-03 0.  1.
        -12    1    3    3    0    0  0.43407088358E+01 -0.61921535813E+01 -0.72993363338E+01  0.10510225025E+02  0.00000000000E+00 0.  1.
</event>
<event>
 7    1  0.5441610E-013  0.5052886E+02  0.7816164E-02  0.1300439E+00
        -11   -1    0    0    0    0  0.00000000000E+00  0.00000000000E+00  0.45593999997E+02  0.45594000000E+02  0.51100000000E-03 0.  1.
         11   -1    0    0    0    0 -0.00000000000E+00 -0.00000000000E+00 -0.45593999997E+02  0.45594000000E+02  0.51100000000E-03 0. -1.
    9900012    2    1    2    0    0 -0.29295573652E+02 -0.18419437473E+01 -0.28134357213E+02  0.50528862674E+02  0.30000008583E+02 0.  0.
        -12    1    1    2    0    0  0.29295573652E+02  0.18419437473E+01  0.28134357213E+02  0.40659137326E+02  0.00000000000E+00 0.  1.
         11    1    3    3    0    0 -0.68124755215E+01 -0.51007227352E+01 -0.19763446288E+01  0.87368835122E+01  0.51100000000E-03 0. -1.
        -11    1    3    3    0    0 -0.26377976132E+02  0.11674361737E+01 -0.16408434236E+02  0.31086930475E+02  0.51100000000E-03 0.  1.
         12    1    3    3    0    0  0.38948780016E+01  0.20913428142E+01 -0.97495783482E+01  0.10705048687E+02  0.00000000000E+00 0. -1.
</event>
<event>
 7    1  0.5441610E-013  0.5052892E+02  0.7816164E-02  0.1300439E+00
        -11   -1    0    0    0    0  0.00000000000E+00  0.00000000000E+00  0.45593999997E+02  0.45594000000E+02  0.51100000000E-03 0. -1.
         11   -1    0    0    0    0 -0.00000000000E+00 -0.00000000000E+00 -0.45593999997E+02  0.45594000000E+02  0.51100000000E-03 0.  1.
    9900012    2    1    2    0    0 -0.22161667933E+02 -0.31945845683E+02  0.11894715358E+02  0.50528919398E+02  0.30000181001E+02 0.  0.
        -12    1    1    2    0    0  0.22161667933E+02  0.31945845683E+02 -0.11894715358E+02  0.40659080602E+02  0.00000000000E+00 0.  1.
         11    1    3    3    0    0 -0.68273437479E+01 -0.17046367393E+02  0.33893188122E+01  0.18672941553E+02  0.51100000000E-03 0. -1.
        -11    1    3    3    0    0  0.37620858208E+00 -0.86321378469E+01 -0.52012603656E+01  0.10085060553E+02  0.51100000000E-03 0.  1.
         12    1    3    3    0    0 -0.15710532767E+02 -0.62673404424E+01  0.13706656912E+02  0.21770917292E+02  0.00000000000E+00 0. -1.
</event>
<event>
 7    1  0.5441610E-013  0.5052887E+02  0.7816164E-02  0.1300439E+00
        -11   -1    0    0    0    0  0.00000000000E+00  0.00000000000E+00  0.45593999997E+02  0.45594000000E+02  0.51100000000E-03 0. -1.
         11   -1    0    0    0    0 -0.00000000000E+00 -0.00000000000E+00 -0.45593999997E+02  0.45594000000E+02  0.51100000000E-03 0.  1.
    9900012    2    1    2    0    0 -0.22349018126E+02  0.27113586318E+02  0.20458249079E+02  0.50528866591E+02  0.30000020490E+02 0.  0.
        -12    1    1    2    0    0  0.22349018126E+02 -0.27113586318E+02 -0.20458249079E+02  0.40659133409E+02  0.00000000000E+00 0.  1.
         11    1    3    3    0    0 -0.62003631885E+01 -0.38302433966E+01  0.25494739602E+01  0.77210806162E+01  0.51100000000E-03 0. -1.
        -11    1    3    3    0    0 -0.77000877619E+01  0.14020937300E+02 -0.10456365826E+01  0.16030327210E+02  0.51100000000E-03 0.  1.
        -12    1    3    3    0    0 -0.84485671752E+01  0.16922892414E+02  0.18954411701E+02  0.26777458765E+02  0.00000000000E+00 0.  1.
</event>
<event>
 7    1  0.5441610E-013  0.5052886E+02  0.7816164E-02  0.1300439E+00
        -11   -1    0    0    0    0  0.00000000000E+00  0.00000000000E+00  0.45593999997E+02  0.45594000000E+02  0.51100000000E-03 0.  1.
         11   -1    0    0    0    0 -0.00000000000E+00 -0.00000000000E+00 -0.45593999997E+02  0.45594000000E+02  0.51100000000E-03 0. -1.
    9900012    2    1    2    0    0 -0.19879335527E+02 -0.26283602261E+02 -0.23814913321E+02  0.50528858036E+02  0.29999994485E+02 0.  0.
        -12    1    1    2    0    0  0.19879335527E+02  0.26283602261E+02  0.23814913321E+02  0.40659141964E+02  0.00000000000E+00 0.  1.
         11    1    3    3    0    0 -0.87404923029E+01 -0.88223673712E+01 -0.52844924167E+01  0.13496526668E+02  0.51100000000E-03 0. -1.
        -11    1    3    3    0    0 -0.22671197458E+01 -0.20553833054E+02 -0.18332779168E+02  0.27634953907E+02  0.51100000000E-03 0.  1.
         12    1    3    3    0    0 -0.88717234781E+01  0.30925981647E+01 -0.19764173631E+00  0.93973774606E+01  0.00000000000E+00 0. -1.
</event>
<event>
 7    1  0.5441610E-013  0.5052886E+02  0.7816164E-02  0.1300439E+00
        -11   -1    0    0    0    0  0.00000000000E+00  0.00000000000E+00  0.45593999997E+02  0.45594000000E+02  0.51100000000E-03 0. -1.
         11   -1    0    0    0    0 -0.00000000000E+00 -0.00000000000E+00 -0.45593999997E+02  0.45594000000E+02  0.51100000000E-03 0.  1.
    9900012    2    1    2    0    0  0.16211511887E+02 -0.28435396725E+02  0.24120129056E+02  0.50528861664E+02  0.30000005513E+02 0.  0.
        -12    1    1    2    0    0 -0.16211511887E+02  0.28435396725E+02 -0.24120129056E+02  0.40659138336E+02  0.00000000000E+00 0.  1.
         11    1    3    3    0    0  0.89007243586E+01 -0.11592367899E+01  0.37030246868E+01  0.97097433609E+01  0.51100000000E-03 0. -1.
        -11    1    3    3    0    0  0.14618163565E+02 -0.18034018069E+02  0.16186912939E+02  0.28300753779E+02  0.51100000000E-03 0.  1.
        -12    1    3    3    0    0 -0.73073760365E+01 -0.92421418656E+01  0.42301914308E+01  0.12518364524E+02  0.00000000000E+00 0.  1.
</event>
<event>
 7    1  0.5441610E-013  0.5052886E+02  0.7816164E-02  0.1300439E+00
        -11   -1    0    0    0    0  0.00000000000E+00  0.00000000000E+00  0.45593999997E+02  0.45594000000E+02  0.51100000000E-03 0.  1.
         11   -1    0    0    0    0 -0.00000000000E+00 -0.00000000000E+00 -0.45593999997E+02  0.45594000000E+02  0.51100000000E-03 0. -1.
    9900012    2    1    2    0    0  0.13430437227E+02  0.37267136749E+02 -0.91624172138E+01  0.50528855705E+02  0.29999987402E+02 0.  0.
        -12    1    1    2    0    0 -0.13430437227E+02 -0.37267136749E+02  0.91624172138E+01  0.40659144295E+02  0.00000000000E+00 0.  1.
         11    1    3    3    0    0  0.92217615915E+01  0.33030616048E+02 -0.13400438861E+02  0.36818938677E+02  0.51100000000E-03 0. -1.
        -11    1    3    3    0    0  0.42494141797E+01  0.30329060408E+00 -0.31782151447E+01  0.53151253822E+01  0.51100000000E-03 0.  1.
        -12    1    3    3    0    0 -0.40738544168E-01  0.39332300969E+01  0.74162367923E+01  0.83947916462E+01  0.00000000000E+00 0.  1.
</event>
<event>
 7    1  0.5441610E-013  0.5052887E+02  0.7816164E-02  0.1300439E+00
        -11   -1    0    0    0    0  0.00000000000E+00  0.00000000000E+00  0.45593999997E+02  0.45594000000E+02  0.51100000000E-03 0.  1.
         11   -1    0    0    0    0 -0.00000000000E+00 -0.00000000000E+00 -0.45593999997E+02  0.45594000000E+02  0.51100000000E-03 0. -1.
    9900012    2    1    2    0    0 -0.17773715647E+02 -0.18743991745E+02 -0.31399400536E+02  0.50528873738E+02  0.30000042213E+02 0.  0.
        -12    1    1    2    0    0  0.17773715647E+02  0.18743991745E+02  0.31399400536E+02  0.40659126262E+02  0.00000000000E+00 0.  1.
         11    1    3    3    0    0 -0.25310389873E+01  0.22031222509E+01 -0.14344588296E+02  0.14731840335E+02  0.51100000000E-03 0. -1.
        -11    1    3    3    0    0  0.23527788850E+01  0.57417832164E+00  0.10317536423E+01  0.26324446939E+01  0.51100000000E-03 0.  1.
         12    1    3    3    0    0 -0.17595455544E+02 -0.21521292318E+02 -0.18086565882E+02  0.33164588709E+02  0.00000000000E+00 0. -1.
</event>
<event>
 7    1  0.5441610E-013  0.5052885E+02  0.7816164E-02  0.1300439E+00
        -11   -1    0    0    0    0  0.00000000000E+00  0.00000000000E+00  0.45593999997E+02  0.45594000000E+02  0.51100000000E-03 0.  1.
         11   -1    0    0    0    0 -0.00000000000E+00 -0.00000000000E+00 -0.45593999997E+02  0.45594000000E+02  0.51100000000E-03 0. -1.
    9900012    2    1    2    0    0  0.21954560107E+02 -0.20221167460E+02 -0.27609198179E+02  0.50528854079E+02  0.29999982458E+02 0.  0.
        -12    1    1    2    0    0 -0.21954560107E+02  0.20221167460E+02  0.27609198179E+02  0.40659145921E+02  0.00000000000E+00 0.  1.
         11    1    3    3    0    0  0.29777786417E+01 -0.15476023439E+02 -0.82182958665E+01  0.17773993765E+02  0.51100000000E-03 0. -1.
        -11    1    3    3    0    0 -0.27864420646E+01  0.84795834048E+00  0.23269196128E+00  0.29218895490E+01  0.51100000000E-03 0.  1.
         12    1    3    3    0    0  0.21763223530E+02 -0.55931023611E+01 -0.19623594274E+02  0.29832970765E+02  0.00000000000E+00 0. -1.
</event>
<event>
 7    1  0.5441610E-013  0.5052886E+02  0.7816164E-02  0.1300439E+00
        -11   -1    0    0    0    0  0.00000000000E+00  0.00000000000E+00  0.45593999997E+02  0.45594000000E+02  0.51100000000E-03 0. -1.
         11   -1    0    0    0    0 -0.00000000000E+00 -0.00000000000E+00 -0.45593999997E+02  0.45594000000E+02  0.51100000000E-03 0.  1.
    9900012    2    1    2    0    0  0.67241636608E+01 -0.37811229810E+02 -0.13351486273E+02  0.50528860039E+02  0.30000000574E+02 0.  0.
        -12    1    1    2    0    0 -0.67241636608E+01  0.37811229810E+02  0.13351486273E+02  0.40659139961E+02  0.00000000000E+00 0.  1.
         11    1    3    3    0    0  0.64172799931E+01 -0.14716867089E+02  0.28109694329E+01  0.16299362221E+02  0.51100000000E-03 0. -1.
        -11    1    3    3    0    0 -0.49983071957E+01 -0.10275686947E+00  0.94075849025E+00  0.50871072915E+01  0.51100000000E-03 0.  1.
         12    1    3    3    0    0  0.53051908634E+01 -0.22991605852E+02 -0.17103214196E+02  0.29142390526E+02  0.00000000000E+00 0. -1.
</event>
<event>
 7    1  0.5441610E-013  0.5052886E+02  0.7816164E-02  0.1300439E+00
        -11   -1    0    0    0    0  0.00000000000E+00  0.00000000000E+00  0.45593999997E+02  0.45594000000E+02  0.51100000000E-03 0. -1.
         11   -1    0    0    0    0 -0.00000000000E+00 -0.00000000000E+00 -0.45593999997E+02  0.45594000000E+02  0.51100000000E-03 0.  1.
    9900012    2    1    2    0    0  0.31575962720E+02  0.12801319433E+02  0.22186710640E+02  0.50528864127E+02  0.30000013001E+02 0.  0.
        -12    1    1    2    0    0 -0.31575962720E+02 -0.12801319433E+02 -0.22186710640E+02  0.40659135873E+02  0.00000000000E+00 0.  1.
         11    1    3    3    0    0  0.54475556063E+01  0.28564378231E+01  0.24334095808E+00  0.61558357844E+01  0.51100000000E-03 0. -1.
        -11    1    3    3    0    0  0.86803152348E+01  0.14123307928E+02  0.73518680247E+00  0.16593860289E+02  0.51100000000E-03 0.  1.
         12    1    3    3    0    0  0.17448091879E+02 -0.41784263177E+01  0.21208182880E+02  0.27779168054E+02  0.00000000000E+00 0. -1.
</event>
<event>
 7    1  0.5441610E-013  0.5052886E+02  0.7816164E-02  0.1300439E+00
        -11   -1    0    0    0    0  0.00000000000E+00  0.00000000000E+00  0.45593999997E+02  0.45594000000E+02  0.51100000000E-03 0.  1.
         11   -1    0    0    0    0 -0.00000000000E+00 -0.00000000000E+00 -0.45593999997E+02  0.45594000000E+02  0.51100000000E-03 0. -1.
    9900012    2    1    2    0    0 -0.84192252212E+01  0.27988281906E+02 -0.28265494952E+02  0.50528862254E+02  0.30000007306E+02 0.  0.
        -12    1    1    2    0    0  0.84192252212E+01 -0.27988281906E+02  0.28265494952E+02  0.40659137746E+02  0.00000000000E+00 0.  1.
         11    1    3    3    0    0  0.37782279920E+01  0.41442980562E+00 -0.92225239199E+00  0.39111773878E+01  0.51100000000E-03 0. -1.
        -11    1    3    3    0    0 -0.18341839073E+01  0.80177036041E+01 -0.22507518300E+02  0.23963225617E+02  0.51100000000E-03 0.  1.
        -12    1    3    3    0    0 -0.10363269306E+02  0.19556148496E+02 -0.48357242600E+01  0.22654459248E+02  0.00000000000E+00 0.  1.
</event>
<event>
 7    1  0.5441610E-013  0.5052886E+02  0.7816164E-02  0.1300439E+00
        -11   -1    0    0    0    0  0.00000000000E+00  0.00000000000E+00  0.45593999997E+02  0.45594000000E+02  0.51100000000E-03 0.  1.
         11   -1    0    0    0    0 -0.00000000000E+00 -0.00000000000E+00 -0.45593999997E+02  0.45594000000E+02  0.51100000000E-03 0. -1.
    9900012    2    1    2    0    0  0.20972018766E+02 -0.82810670514E+01 -0.33834364257E+02  0.50528857765E+02  0.29999993661E+02 0.  0.
        -12    1    1    2    0    0 -0.20972018766E+02  0.82810670514E+01  0.33834364257E+02  0.40659142235E+02  0.00000000000E+00 0.  1.
         11    1    3    3    0    0  0.77336517903E+01 -0.29183676203E-01  0.13830435914E+01  0.78564006732E+01  0.51100000000E-03 0. -1.
        -11    1    3    3    0    0  0.51683433937E+01  0.55606166436E+01 -0.75103357057E+01  0.10678828286E+02  0.51100000000E-03 0.  1.
         12    1    3    3    0    0  0.80700235821E+01 -0.13812500019E+02 -0.27707072143E+02  0.31993628805E+02  0.00000000000E+00 0. -1.
</event>
<event>
 7    1  0.5441610E-013  0.5052884E+02  0.7816164E-02  0.1300439E+00
        -11   -1    0    0    0    0  0.00000000000E+00  0.00000000000E+00  0.45593999997E+02  0.45594000000E+02  0.51100000000E-03 0.  1.
         11   -1    0    0    0    0 -0.00000000000E+00 -0.00000000000E+00 -0.45593999997E+02  0.45594000000E+02  0.51100000000E-03 0. -1.
    9900012    2    1    2    0    0  0.17269662880E+02 -0.18186314473E+02 -0.32002874091E+02  0.50528840636E+02  0.29999941599E+02 0.  0.
        -12    1    1    2    0    0 -0.17269662880E+02  0.18186314473E+02  0.32002874091E+02  0.40659159364E+02  0.00000000000E+00 0.  1.
         11    1    3    3    0    0  0.89139048488E+01  0.54421713630E+00 -0.59301755763E+01  0.10720114485E+02  0.51100000000E-03 0. -1.
        -11    1    3    3    0    0  0.27970250162E+01 -0.50766320935E+01  0.34959558814E+01  0.67688440771E+01  0.51100000000E-03 0.  1.
        -12    1    3    3    0    0  0.55587330149E+01 -0.13653899516E+02 -0.29568654396E+02  0.33039882074E+02  0.00000000000E+00 0.  1.
</event>
<event>
 7    1  0.5441610E-013  0.5052885E+02  0.7816164E-02  0.1300439E+00
        -11   -1    0    0    0    0  0.00000000000E+00  0.00000000000E+00  0.45593999997E+02  0.45594000000E+02  0.51100000000E-03 0.  1.
         11   -1    0    0    0    0 -0.00000000000E+00 -0.00000000000E+00 -0.45593999997E+02  0.45594000000E+02  0.51100000000E-03 0. -1.
    9900012    2    1    2    0    0 -0.68692109881E+01 -0.35507379986E+02 -0.18579736447E+02  0.50528847285E+02  0.29999961807E+02 0.  0.
        -12    1    1    2    0    0  0.68692109881E+01  0.35507379986E+02  0.18579736447E+02  0.40659152715E+02  0.00000000000E+00 0.  1.
         11    1    3    3    0    0  0.15899306544E+01 -0.42959874505E+01 -0.27644472898E+01  0.53502856690E+01  0.51100000000E-03 0. -1.
        -11    1    3    3    0    0 -0.44000418737E+01 -0.25605775263E+02 -0.23361213835E+02  0.34939410519E+02  0.51100000000E-03 0.  1.
        -12    1    3    3    0    0 -0.40590997689E+01 -0.56056172727E+01  0.75459246779E+01  0.10239151097E+02  0.00000000000E+00 0.  1.
</event>
<event>
 7    1  0.5441610E-013  0.5052886E+02  0.7816164E-02  0.1300439E+00
        -11   -1    0    0    0    0  0.00000000000E+00  0.00000000000E+00  0.45593999997E+02  0.45594000000E+02  0.51100000000E-03 0.  1.
         11   -1    0    0    0    0 -0.00000000000E+00 -0.00000000000E+00 -0.45593999997E+02  0.45594000000E+02  0.51100000000E-03 0. -1.
    9900012    2    1    2    0    0  0.22279568531E+02 -0.31884624791E+02 -0.11838799367E+02  0.50528860284E+02  0.30000001320E+02 0.  0.
        -12    1    1    2    0    0 -0.22279568531E+02  0.31884624791E+02  0.11838799367E+02  0.40659139716E+02  0.00000000000E+00 0.  1.
         11    1    3    3    0    0  0.15621189862E+02 -0.95565357984E+01  0.37723313022E+01  0.18697043426E+02  0.51100000000E-03 0. -1.
        -11    1    3    3    0    0  0.57607219263E+00  0.19384737168E+01 -0.34883455521E+01  0.40321327450E+01  0.51100000000E-03 0.  1.
         12    1    3    3    0    0  0.60823064765E+01 -0.24266562709E+02 -0.12122785117E+02  0.27799684113E+02  0.00000000000E+00 0. -1.
</event>
<event>
 7    1  0.5441610E-013  0.5052886E+02  0.7816164E-02  0.1300439E+00
        -11   -1    0    0    0    0  0.00000000000E+00  0.00000000000E+00  0.45593999997E+02  0.45594000000E+02  0.51100000000E-03 0. -1.
         11   -1    0    0    0    0 -0.00000000000E+00 -0.00000000000E+00 -0.45593999997E+02  0.45594000000E+02  0.51100000000E-03 0.  1.
    9900012    2    1    2    0    0  0.35461604123E+02  0.35871970266E+01  0.19564574731E+02  0.50528856700E+02  0.29999990425E+02 0.  0.
        -12    1    1    2    0    0 -0.35461604123E+02 -0.35871970266E+01 -0.19564574731E+02  0.40659143300E+02  0.00000000000E+00 0.  1.
         11    1    3    3    0    0  0.61163183079E+01  0.17027003580E+01  0.56954029848E+01  0.85291355701E+01  0.51100000000E-03 0. -1.
        -11    1    3    3    0    0 -0.50442304473E+01 -0.93732227307E+00  0.15136282257E+01  0.53491966234E+01  0.51100000000E-03 0.  1.
        -12    1    3    3    0    0  0.34389516262E+02  0.28218189416E+01  0.12355543521E+02  0.36650524506E+02  0.00000000000E+00 0.  1.
</event>
<event>
 7    1  0.5441610E-013  0.5052874E+02  0.7816164E-02  0.1300439E+00
        -11   -1    0    0    0    0  0.00000000000E+00  0.00000000000E+00  0.45593999997E+02  0.45594000000E+02  0.51100000000E-03 0.  1.
         11   -1    0    0    0    0 -0.00000000000E+00 -0.00000000000E+00 -0.45593999997E+02  0.45594000000E+02  0.51100000000E-03 0. -1.
    9900012    2    1    2    0    0  0.14277575970E+02  0.25857865243E+02 -0.27940953780E+02  0.50528741907E+02  0.29999641499E+02 0.  0.
        -12    1    1    2    0    0 -0.14277575970E+02 -0.25857865243E+02  0.27940953780E+02  0.40659258093E+02  0.00000000000E+00 0.  1.
         11    1    3    3    0    0  0.11028553667E+02  0.10373527391E+02 -0.15441625901E+02  0.21625976909E+02  0.51100000000E-03 0. -1.
        -11    1    3    3    0    0  0.11485463019E+02  0.10674151884E+02 -0.11216806020E+02  0.19278747800E+02  0.51100000000E-03 0.  1.
        -12    1    3    3    0    0 -0.82364407159E+01  0.48101859685E+01 -0.12825218589E+01  0.96240171985E+01  0.00000000000E+00 0.  1.
</event>
<event>
 7    1  0.5441610E-013  0.5052886E+02  0.7816164E-02  0.1300439E+00
        -11   -1    0    0    0    0  0.00000000000E+00  0.00000000000E+00  0.45593999997E+02  0.45594000000E+02  0.51100000000E-03 0.  1.
         11   -1    0    0    0    0 -0.00000000000E+00 -0.00000000000E+00 -0.45593999997E+02  0.45594000000E+02  0.51100000000E-03 0. -1.
    9900012    2    1    2    0    0 -0.33655841178E+02  0.18198333313E+02 -0.13757582070E+02  0.50528855331E+02  0.29999986265E+02 0.  0.
        -12    1    1    2    0    0  0.33655841178E+02 -0.18198333313E+02  0.13757582070E+02  0.40659144669E+02  0.00000000000E+00 0.  1.
         11    1    3    3    0    0 -0.26541908627E+02  0.20058758011E+02 -0.98394760884E+01  0.34693543729E+02  0.51100000000E-03 0. -1.
        -11    1    3    3    0    0 -0.96220966066E+01  0.10162317547E+01  0.86723795827E+00  0.97144002400E+01  0.51100000000E-03 0.  1.
         12    1    3    3    0    0  0.25081640555E+01 -0.28766564529E+01 -0.47853439403E+01  0.61209113622E+01  0.00000000000E+00 0. -1.
</event>
<event>
 7    1  0.5441610E-013  0.5052884E+02  0.7816164E-02  0.1300439E+00
        -11   -1    0    0    0    0  0.00000000000E+00  0.00000000000E+00  0.45593999997E+02  0.45594000000E+02  0.51100000000E-03 0. -1.
         11   -1    0    0    0    0 -0.00000000000E+00 -0.00000000000E+00 -0.45593999997E+02  0.45594000000E+02  0.51100000000E-03 0.  1.
    9900012    2    1    2    0    0  0.37450757312E+02  0.22847037370E+01 -0.15664860792E+02  0.50528844105E+02  0.29999952142E+02 0.  0.
        -12    1    1    2    0    0 -0.37450757312E+02 -0.22847037370E+01  0.15664860792E+02  0.40659155895E+02  0.00000000000E+00 0.  1.
         11    1    3    3    0    0  0.39291785511E+02  0.91562636469E+01 -0.13890097062E+02  0.42668681363E+02  0.51100000000E-03 0. -1.
        -11    1    3    3    0    0  0.44836972937E+00 -0.14178230259E+01 -0.12125370593E+01  0.19187245576E+01  0.51100000000E-03 0.  1.
         12    1    3    3    0    0 -0.22893979277E+01 -0.54537368841E+01 -0.56222667080E+00  0.59414381846E+01  0.00000000000E+00 0. -1.
</event>
<event>
 7    1  0.5441610E-013  0.5052886E+02  0.7816164E-02  0.1300439E+00
        -11   -1    0    0    0    0  0.00000000000E+00  0.00000000000E+00  0.45593999997E+02  0.45594000000E+02  0.51100000000E-03 0.  1.
         11   -1    0    0    0    0 -0.00000000000E+00 -0.00000000000E+00 -0.45593999997E+02  0.45594000000E+02  0.51100000000E-03 0. -1.
    9900012    2    1    2    0    0 -0.26416107360E+02 -0.25450450761E+01 -0.30803859250E+02  0.50528859242E+02  0.29999998152E+02 0.  0.
        -12    1    1    2    0    0  0.26416107360E+02  0.25450450761E+01  0.30803859250E+02  0.40659140758E+02  0.00000000000E+00 0.  1.
         11    1    3    3    0    0 -0.17859558193E+02  0.44933600526E+01 -0.17339811148E+02  0.25294725820E+02  0.51100000000E-03 0. -1.
        -11    1    3    3    0    0 -0.55910978449E+01  0.41220055672E+01  0.67459968392E+00  0.69789963463E+01  0.51100000000E-03 0.  1.
        -12    1    3    3    0    0 -0.29654513231E+01 -0.11160410696E+02 -0.14138647786E+02  0.18255137076E+02  0.00000000000E+00 0.  1.
</event>
<event>
 7    1  0.5441610E-013  0.5052886E+02  0.7816164E-02  0.1300439E+00
        -11   -1    0    0    0    0  0.00000000000E+00  0.00000000000E+00  0.45593999997E+02  0.45594000000E+02  0.51100000000E-03 0.  1.
         11   -1    0    0    0    0 -0.00000000000E+00 -0.00000000000E+00 -0.45593999997E+02  0.45594000000E+02  0.51100000000E-03 0. -1.
    9900012    2    1    2    0    0  0.21962100414E+02  0.29853568273E+02 -0.16721128813E+02  0.50528861519E+02  0.30000005072E+02 0.  0.
        -12    1    1    2    0    0 -0.21962100414E+02 -0.29853568273E+02  0.16721128813E+02  0.40659138481E+02  0.00000000000E+00 0.  1.
         11    1    3    3    0    0  0.14858787517E+02  0.58205459898E+01 -0.80150061357E+01  0.17857845495E+02  0.51100000000E-03 0. -1.
        -11    1    3    3    0    0 -0.23065691174E+01  0.28569877723E+01 -0.87598916491E+01  0.94983336533E+01  0.51100000000E-03 0.  1.
        -12    1    3    3    0    0  0.94098820139E+01  0.21176034511E+02  0.53768971313E-01  0.23172682371E+02  0.00000000000E+00 0.  1.
</event>
<event>
 7    1  0.5441610E-013  0.5052886E+02  0.7816164E-02  0.1300439E+00
        -11   -1    0    0    0    0  0.00000000000E+00  0.00000000000E+00  0.45593999997E+02  0.45594000000E+02  0.51100000000E-03 0. -1.
         11   -1    0    0    0    0 -0.00000000000E+00 -0.00000000000E+00 -0.45593999997E+02  0.45594000000E+02  0.51100000000E-03 0.  1.
    9900012    2    1    2    0    0 -0.23058302996E+02 -0.25360137135E+02  0.21871068789E+02  0.50528861513E+02  0.30000005054E+02 0.  0.
        -12    1    1    2    0    0  0.23058302996E+02  0.25360137135E+02 -0.21871068789E+02  0.40659138487E+02  0.00000000000E+00 0.  1.
         11    1    3    3    0    0 -0.94231543904E+01 -0.79007486424E+01  0.83873919085E+01  0.14885093586E+02  0.51100000000E-03 0. -1.
        -11    1    3    3    0    0  0.25083415717E+01 -0.16494699478E+02  0.52158182624E+01  0.17480607791E+02  0.51100000000E-03 0.  1.
         12    1    3    3    0    0 -0.16143490177E+02 -0.96468901415E+00  0.82678586181E+01  0.18163160136E+02  0.00000000000E+00 0. -1.
</event>
<event>
 7    1  0.5441610E-013  0.5052873E+02  0.7816164E-02  0.1300439E+00
        -11   -1    0    0    0    0  0.00000000000E+00  0.00000000000E+00  0.45593999997E+02  0.45594000000E+02  0.51100000000E-03 0.  1.
         11   -1    0    0    0    0 -0.00000000000E+00 -0.00000000000E+00 -0.45593999997E+02  0.45594000000E+02  0.51100000000E-03 0. -1.
    9900012    2    1    2    0    0 -0.17254888076E+02 -0.34250076588E+02 -0.13504723848E+02  0.50528727073E+02  0.29999596408E+02 0.  0.
        -12    1    1    2    0    0  0.17254888076E+02  0.34250076588E+02  0.13504723848E+02  0.40659272927E+02  0.00000000000E+00 0.  1.
         11    1    3    3    0    0 -0.23626577239E+01 -0.99420731504E+01 -0.14245820545E+01  0.10317771287E+02  0.51100000000E-03 0. -1.
        -11    1    3    3    0    0 -0.20601590661E+02 -0.14819165034E+02 -0.23797903906E+01  0.25489146566E+02  0.51100000000E-03 0.  1.
        -12    1    3    3    0    0  0.57093603091E+01 -0.94888384029E+01 -0.97003514025E+01  0.14721809220E+02  0.00000000000E+00 0.  1.
</event>
<event>
 7    1  0.5441610E-013  0.5052886E+02  0.7816164E-02  0.1300439E+00
        -11   -1    0    0    0    0  0.00000000000E+00  0.00000000000E+00  0.45593999997E+02  0.45594000000E+02  0.51100000000E-03 0.  1.
         11   -1    0    0    0    0 -0.00000000000E+00 -0.00000000000E+00 -0.45593999997E+02  0.45594000000E+02  0.51100000000E-03 0. -1.
    9900012    2    1    2    0    0  0.14106852850E+02 -0.32861947324E+01 -0.37991619989E+02  0.50528861267E+02  0.30000004306E+02 0.  0.
        -12    1    1    2    0    0 -0.14106852850E+02  0.32861947324E+01  0.37991619989E+02  0.40659138733E+02  0.00000000000E+00 0.  1.
         11    1    3    3    0    0  0.54740906031E+01  0.82668392234E+01 -0.15720165851E+02  0.18585744895E+02  0.51100000000E-03 0. -1.
        -11    1    3    3    0    0  0.40937194235E+01 -0.14702676622E+01  0.23563173942E+01  0.49469644874E+01  0.51100000000E-03 0.  1.
         12    1    3    3    0    0  0.45390428238E+01 -0.10082766294E+02 -0.24627771532E+02  0.26996151884E+02  0.00000000000E+00 0. -1.
</event>
<event>
 7    1  0.5441610E-013  0.5052886E+02  0.7816164E-02  0.1300439E+00
        -11   -1    0    0    0    0  0.00000000000E+00  0.00000000000E+00  0.45593999997E+02  0.45594000000E+02  0.51100000000E-03 0.  1.
         11   -1    0    0    0    0 -0.00000000000E+00 -0.00000000000E+00 -0.45593999997E+02  0.45594000000E+02  0.51100000000E-03 0. -1.
    9900012    2    1    2    0    0 -0.15009927214E+02  0.37197310837E+01 -0.37603603256E+02  0.50528864592E+02  0.30000014413E+02 0.  0.
        -12    1    1    2    0    0  0.15009927214E+02 -0.37197310837E+01  0.37603603256E+02  0.40659135408E+02  0.00000000000E+00 0.  1.
         11    1    3    3    0    0 -0.12010372937E+01 -0.12561561530E+01  0.12454205592E+01  0.21381046495E+01  0.51100000000E-03 0.  1.
        -11    1    3    3    0    0 -0.36253237949E+01  0.13645103136E+02 -0.12565518740E+02  0.18900372316E+02  0.51100000000E-03 0. -1.
         12    1    3    3    0    0 -0.10183566125E+02 -0.86692158989E+01 -0.26283505075E+02  0.29490387627E+02  0.00000000000E+00 0. -1.
</event>
<event>
 7    1  0.5441610E-013  0.5052886E+02  0.7816164E-02  0.1300439E+00
        -11   -1    0    0    0    0  0.00000000000E+00  0.00000000000E+00  0.45593999997E+02  0.45594000000E+02  0.51100000000E-03 0.  1.
         11   -1    0    0    0    0 -0.00000000000E+00 -0.00000000000E+00 -0.45593999997E+02  0.45594000000E+02  0.51100000000E-03 0. -1.
    9900012    2    1    2    0    0 -0.63052357495E+00  0.36357509392E+02 -0.18190637409E+02  0.50528864022E+02  0.30000012680E+02 0.  0.
        -12    1    1    2    0    0  0.63052357495E+00 -0.36357509392E+02  0.18190637409E+02  0.40659135978E+02  0.00000000000E+00 0.  1.
         11    1    3    3    0    0  0.55837902269E+01  0.85890561662E+01 -0.12741150952E-01  0.10244547902E+02  0.51100000000E-03 0. -1.
        -11    1    3    3    0    0 -0.37855182483E+01  0.78727377128E+01  0.46579842313E+01  0.98998467091E+01  0.51100000000E-03 0.  1.
         12    1    3    3    0    0 -0.24287955536E+01  0.19895715513E+02 -0.22835880489E+02  0.30384469410E+02  0.00000000000E+00 0. -1.
</event>
<event>
 7    1  0.5441610E-013  0.5052887E+02  0.7816164E-02  0.1300439E+00
        -11   -1    0    0    0    0  0.00000000000E+00  0.00000000000E+00  0.45593999997E+02  0.45594000000E+02  0.51100000000E-03 0.  1.
         11   -1    0    0    0    0 -0.00000000000E+00 -0.00000000000E+00 -0.45593999997E+02  0.45594000000E+02  0.51100000000E-03 0. -1.
    9900012    2    1    2    0    0 -0.16693945230E+02  0.29619910745E+02 -0.22296592899E+02  0.50528868494E+02  0.30000026275E+02 0.  0.
        -12    1    1    2    0    0  0.16693945230E+02 -0.29619910745E+02  0.22296592899E+02  0.40659131506E+02  0.00000000000E+00 0.  1.
         11    1    3    3    0    0 -0.14112966359E+02  0.26486349966E+02 -0.74982198298E+01  0.30934218187E+02  0.51100000000E-03 0. -1.
        -11    1    3    3    0    0 -0.90971549837E+00  0.47125397783E+00  0.21370634618E+01  0.23699584597E+01  0.51100000000E-03 0.  1.
         12    1    3    3    0    0 -0.16712633733E+01  0.26623068018E+01 -0.16935436531E+02  0.17224691848E+02  0.00000000000E+00 0. -1.
</event>
<event>
 7    1  0.5441610E-013  0.5052885E+02  0.7816164E-02  0.1300439E+00
        -11   -1    0    0    0    0  0.00000000000E+00  0.00000000000E+00  0.45593999997E+02  0.45594000000E+02  0.51100000000E-03 0.  1.
         11   -1    0    0    0    0 -0.00000000000E+00 -0.00000000000E+00 -0.45593999997E+02  0.45594000000E+02  0.51100000000E-03 0. -1.
    9900012    2    1    2    0    0 -0.40601174824E+02 -0.20544120122E+01  0.70009060145E+00  0.50528854256E+02  0.29999982996E+02 0.  0.
        -12    1    1    2    0    0  0.40601174824E+02  0.20544120122E+01 -0.70009060145E+00  0.40659145744E+02  0.00000000000E+00 0.  1.
         11    1    3    3    0    0 -0.20858076311E+02 -0.22724754722E+01  0.11303462691E+02  0.23832577730E+02  0.51100000000E-03 0. -1.
        -11    1    3    3    0    0 -0.11897986705E+01 -0.49616630968E+01 -0.33966903112E+01  0.61295372496E+01  0.51100000000E-03 0.  1.
        -12    1    3    3    0    0 -0.18553299842E+02  0.51797265568E+01 -0.72066817779E+01  0.20566739277E+02  0.00000000000E+00 0.  1.
</event>
<event>
 7    1  0.5441610E-013  0.5052886E+02  0.7816164E-02  0.1300439E+00
        -11   -1    0    0    0    0  0.00000000000E+00  0.00000000000E+00  0.45593999997E+02  0.45594000000E+02  0.51100000000E-03 0.  1.
         11   -1    0    0    0    0 -0.00000000000E+00 -0.00000000000E+00 -0.45593999997E+02  0.45594000000E+02  0.51100000000E-03 0. -1.
    9900012    2    1    2    0    0  0.37007312260E+02  0.16323714378E+02  0.41425714585E+01  0.50528859452E+02  0.29999998791E+02 0.  0.
        -12    1    1    2    0    0 -0.37007312260E+02 -0.16323714378E+02 -0.41425714585E+01  0.40659140548E+02  0.00000000000E+00 0.  1.
         11    1    3    3    0    0 -0.18406695211E+01  0.93529943132E+01  0.24798898713E+01  0.98496914136E+01  0.51100000000E-03 0. -1.
        -11    1    3    3    0    0  0.23133875983E+02  0.62880124060E+01  0.52614301701E+01  0.24543796889E+02  0.51100000000E-03 0.  1.
        -12    1    3    3    0    0  0.15714105798E+02  0.68270765889E+00 -0.35987485830E+01  0.16135371150E+02  0.00000000000E+00 0.  1.
</event>
<event>
 7    1  0.5441610E-013  0.5052886E+02  0.7816164E-02  0.1300439E+00
        -11   -1    0    0    0    0  0.00000000000E+00  0.00000000000E+00  0.45593999997E+02  0.45594000000E+02  0.51100000000E-03 0. -1.
         11   -1    0    0    0    0 -0.00000000000E+00 -0.00000000000E+00 -0.45593999997E+02  0.45594000000E+02  0.51100000000E-03 0.  1.
    9900012    2    1    2    0    0  0.99371155911E+01  0.39402678339E+02 -0.13596730190E+01  0.50528855429E+02  0.29999986561E+02 0.  0.
        -12    1    1    2    0    0 -0.99371155911E+01 -0.39402678339E+02  0.13596730190E+01  0.40659144571E+02  0.00000000000E+00 0.  1.
         11    1    3    3    0    0 -0.29967389809E+01  0.76516787507E+01 -0.11734696160E+01  0.83009435262E+01  0.51100000000E-03 0. -1.
        -11    1    3    3    0    0 -0.41640887427E+01  0.14305972793E+02 -0.75660559828E+01  0.16710646187E+02  0.51100000000E-03 0.  1.
        -12    1    3    3    0    0  0.17097943315E+02  0.17445026795E+02  0.73798525798E+01  0.25517265715E+02  0.00000000000E+00 0.  1.
</event>
<event>
 7    1  0.5441610E-013  0.5052885E+02  0.7816164E-02  0.1300439E+00
        -11   -1    0    0    0    0  0.00000000000E+00  0.00000000000E+00  0.45593999997E+02  0.45594000000E+02  0.51100000000E-03 0.  1.
         11   -1    0    0    0    0 -0.00000000000E+00 -0.00000000000E+00 -0.45593999997E+02  0.45594000000E+02  0.51100000000E-03 0. -1.
    9900012    2    1    2    0    0  0.18807458687E+02  0.27596873888E+01 -0.35942036719E+02  0.50528851211E+02  0.29999973741E+02 0.  0.
        -12    1    1    2    0    0 -0.18807458687E+02 -0.27596873888E+01  0.35942036719E+02  0.40659148789E+02  0.00000000000E+00 0.  1.
         11    1    3    3    0    0 -0.25755505895E+01  0.21533840440E+01 -0.37442094011E+01  0.50288793961E+01  0.51100000000E-03 0. -1.
        -11    1    3    3    0    0  0.47842795520E+01 -0.94216912684E+01 -0.19914800137E+02  0.22544552822E+02  0.51100000000E-03 0.  1.
        -12    1    3    3    0    0  0.16598729724E+02  0.10027994613E+02 -0.12283027181E+02  0.22955418993E+02  0.00000000000E+00 0.  1.
</event>
<event>
 7    1  0.5441610E-013  0.5052886E+02  0.7816164E-02  0.1300439E+00
        -11   -1    0    0    0    0  0.00000000000E+00  0.00000000000E+00  0.45593999997E+02  0.45594000000E+02  0.51100000000E-03 0.  1.
         11   -1    0    0    0    0 -0.00000000000E+00 -0.00000000000E+00 -0.45593999997E+02  0.45594000000E+02  0.51100000000E-03 0. -1.
    9900012    2    1    2    0    0  0.19512610443E+02  0.13521935893E+02 -0.33008800993E+02  0.50528860073E+02  0.30000000679E+02 0.  0.
        -12    1    1    2    0    0 -0.19512610443E+02 -0.13521935893E+02  0.33008800993E+02  0.40659139927E+02  0.00000000000E+00 0.  1.
         11    1    3    3    0    0  0.11466219645E+02 -0.37301389800E+01 -0.22035824273E+02  0.25119030264E+02  0.51100000000E-03 0. -1.
        -11    1    3    3    0    0  0.36508872718E+00 -0.14957453124E+01  0.10378989787E+01  0.18568194229E+01  0.51100000000E-03 0.  1.
        -12    1    3    3    0    0  0.76813020710E+01  0.18747820185E+02 -0.12010875698E+02  0.23553010386E+02  0.00000000000E+00 0.  1.
</event>
<event>
 7    1  0.5441610E-013  0.5052886E+02  0.7816164E-02  0.1300439E+00
        -11   -1    0    0    0    0  0.00000000000E+00  0.00000000000E+00  0.45593999997E+02  0.45594000000E+02  0.51100000000E-03 0.  1.
         11   -1    0    0    0    0 -0.00000000000E+00 -0.00000000000E+00 -0.45593999997E+02  0.45594000000E+02  0.51100000000E-03 0. -1.
    9900012    2    1    2    0    0 -0.26703646614E+01  0.39913626126E+02 -0.72758169894E+01  0.50528856984E+02  0.29999991289E+02 0.  0.
        -12    1    1    2    0    0  0.26703646614E+01 -0.39913626126E+02  0.72758169894E+01  0.40659143016E+02  0.00000000000E+00 0.  1.
         11    1    3    3    0    0  0.37845643337E+01  0.31419030250E+01  0.48375899563E+01  0.68990404159E+01  0.51100000000E-03 0. -1.
        -11    1    3    3    0    0 -0.84371787439E+01  0.61711175355E+01 -0.68998342210E+01  0.12525030512E+02  0.51100000000E-03 0.  1.
        -12    1    3    3    0    0  0.19822497488E+01  0.30600605565E+02 -0.52135727247E+01  0.31104786056E+02  0.00000000000E+00 0.  1.
</event>
<event>
 7    1  0.5441610E-013  0.5052885E+02  0.7816164E-02  0.1300439E+00
        -11   -1    0    0    0    0  0.00000000000E+00  0.00000000000E+00  0.45593999997E+02  0.45594000000E+02  0.51100000000E-03 0.  1.
         11   -1    0    0    0    0 -0.00000000000E+00 -0.00000000000E+00 -0.45593999997E+02  0.45594000000E+02  0.51100000000E-03 0. -1.
    9900012    2    1    2    0    0  0.16932922100E+02 -0.15219278474E+02 -0.33687031628E+02  0.50528851115E+02  0.29999973449E+02 0.  0.
        -12    1    1    2    0    0 -0.16932922100E+02  0.15219278474E+02  0.33687031628E+02  0.40659148885E+02  0.00000000000E+00 0.  1.
         11    1    3    3    0    0  0.62911411015E+01  0.29345232838E+01 -0.20990372010E+02  0.22108496119E+02  0.51100000000E-03 0. -1.
        -11    1    3    3    0    0 -0.28257000256E+01 -0.24014033647E+01 -0.51887953873E+01  0.63776889691E+01  0.51100000000E-03 0.  1.
         12    1    3    3    0    0  0.13467481024E+02 -0.15752398393E+02 -0.75078642312E+01  0.22042666027E+02  0.00000000000E+00 0. -1.
</event>
<event>
 7    1  0.5441610E-013  0.5052886E+02  0.7816164E-02  0.1300439E+00
        -11   -1    0    0    0    0  0.00000000000E+00  0.00000000000E+00  0.45593999997E+02  0.45594000000E+02  0.51100000000E-03 0.  1.
         11   -1    0    0    0    0 -0.00000000000E+00 -0.00000000000E+00 -0.45593999997E+02  0.45594000000E+02  0.51100000000E-03 0. -1.
    9900012    2    1    2    0    0 -0.10463908378E+01 -0.27798187435E+02 -0.29653530461E+02  0.50528855551E+02  0.29999986934E+02 0.  0.
        -12    1    1    2    0    0  0.10463908378E+01  0.27798187435E+02  0.29653530461E+02  0.40659144449E+02  0.00000000000E+00 0.  1.
         11    1    3    3    0    0 -0.11297042567E+02 -0.47091109293E+01 -0.11575699294E+02  0.16846237292E+02  0.51100000000E-03 0. -1.
        -11    1    3    3    0    0  0.15224894497E+01  0.15048609174E+01 -0.44283344624E+00  0.21860197225E+01  0.51100000000E-03 0.  1.
         12    1    3    3    0    0  0.87281622793E+01 -0.24593937423E+02 -0.17634997721E+02  0.31496598537E+02  0.00000000000E+00 0. -1.
</event>
<event>
 7    1  0.5441610E-013  0.5052886E+02  0.7816164E-02  0.1300439E+00
        -11   -1    0    0    0    0  0.00000000000E+00  0.00000000000E+00  0.45593999997E+02  0.45594000000E+02  0.51100000000E-03 0.  1.
         11   -1    0    0    0    0 -0.00000000000E+00 -0.00000000000E+00 -0.45593999997E+02  0.45594000000E+02  0.51100000000E-03 0. -1.
    9900012    2    1    2    0    0 -0.10445278896E+02 -0.14316546266E+02 -0.36593691271E+02  0.50528860940E+02  0.30000003315E+02 0.  0.
        -12    1    1    2    0    0  0.10445278896E+02  0.14316546266E+02  0.36593691271E+02  0.40659139060E+02  0.00000000000E+00 0.  1.
         11    1    3    3    0    0  0.44079230833E+01 -0.90028040142E+01 -0.13393496169E+02  0.16729196212E+02  0.51100000000E-03 0. -1.
        -11    1    3    3    0    0 -0.82208441975E+00  0.42378433213E+01  0.81349248983E+00  0.43928247292E+01  0.51100000000E-03 0.  1.
         12    1    3    3    0    0 -0.14031117560E+02 -0.95515855730E+01 -0.24013687592E+02  0.29406839999E+02  0.00000000000E+00 0. -1.
</event>
<event>
 7    1  0.5441610E-013  0.5052887E+02  0.7816164E-02  0.1300439E+00
        -11   -1    0    0    0    0  0.00000000000E+00  0.00000000000E+00  0.45593999997E+02  0.45594000000E+02  0.51100000000E-03 0.  1.
         11   -1    0    0    0    0 -0.00000000000E+00 -0.00000000000E+00 -0.45593999997E+02  0.45594000000E+02  0.51100000000E-03 0. -1.
    9900012    2    1    2    0    0 -0.86158895603E+01 -0.92932436752E+01 -0.38633752300E+02  0.50528871287E+02  0.30000034763E+02 0.  0.
        -12    1    1    2    0    0  0.86158895603E+01  0.92932436752E+01  0.38633752300E+02  0.40659128713E+02  0.00000000000E+00 0.  1.
         11    1    3    3    0    0 -0.99888245666E+01  0.21377287083E+01 -0.45175784301E+01  0.11169378469E+02  0.51100000000E-03 0. -1.
        -11    1    3    3    0    0 -0.12495345566E+01 -0.61237508527E+01 -0.17977150095E+01  0.65033407285E+01  0.51100000000E-03 0.  1.
         12    1    3    3    0    0  0.26224695630E+01 -0.53072215308E+01 -0.32318458861E+02  0.32856152089E+02  0.00000000000E+00 0. -1.
</event>
<event>
 7    1  0.5441610E-013  0.5052885E+02  0.7816164E-02  0.1300439E+00
        -11   -1    0    0    0    0  0.00000000000E+00  0.00000000000E+00  0.45593999997E+02  0.45594000000E+02  0.51100000000E-03 0.  1.
         11   -1    0    0    0    0 -0.00000000000E+00 -0.00000000000E+00 -0.45593999997E+02  0.45594000000E+02  0.51100000000E-03 0. -1.
    9900012    2    1    2    0    0  0.19504571788E+02  0.13824842061E+02 -0.32887868548E+02  0.50528850030E+02  0.29999970151E+02 0.  0.
        -12    1    1    2    0    0 -0.19504571788E+02 -0.13824842061E+02  0.32887868548E+02  0.40659149970E+02  0.00000000000E+00 0.  1.
         11    1    3    3    0    0  0.13693682913E+02  0.99990304762E+01 -0.88592785949E+01  0.19130718221E+02  0.51100000000E-03 0. -1.
        -11    1    3    3    0    0  0.10958834648E+02 -0.14845188394E+01 -0.20296598488E+02  0.23113886810E+02  0.51100000000E-03 0.  1.
        -12    1    3    3    0    0 -0.51479457731E+01  0.53103304242E+01 -0.37319914654E+01  0.82842449985E+01  0.00000000000E+00 0.  1.
</event>
<event>
 7    1  0.5441610E-013  0.5052886E+02  0.7816164E-02  0.1300439E+00
        -11   -1    0    0    0    0  0.00000000000E+00  0.00000000000E+00  0.45593999997E+02  0.45594000000E+02  0.51100000000E-03 0. -1.
         11   -1    0    0    0    0 -0.00000000000E+00 -0.00000000000E+00 -0.45593999997E+02  0.45594000000E+02  0.51100000000E-03 0.  1.
    9900012    2    1    2    0    0 -0.19758605261E+02  0.31245634599E+02  0.16925539851E+02  0.50528855117E+02  0.29999985613E+02 0.  0.
        -12    1    1    2    0    0  0.19758605261E+02 -0.31245634599E+02 -0.16925539851E+02  0.40659144883E+02  0.00000000000E+00 0.  1.
         11    1    3    3    0    0  0.38859354832E+00  0.11267311793E+01  0.58597603839E+01  0.59797424789E+01  0.51100000000E-03 0. -1.
        -11    1    3    3    0    0 -0.81762942225E+01 -0.13547796297E+01  0.65719257274E+01  0.10577212444E+02  0.51100000000E-03 0.  1.
        -12    1    3    3    0    0 -0.11970904587E+02  0.31473683050E+02  0.44938537399E+01  0.33971900194E+02  0.00000000000E+00 0.  1.
</event>
<event>
 7    1  0.5441610E-013  0.5052884E+02  0.7816164E-02  0.1300439E+00
        -11   -1    0    0    0    0  0.00000000000E+00  0.00000000000E+00  0.45593999997E+02  0.45594000000E+02  0.51100000000E-03 0.  1.
         11   -1    0    0    0    0 -0.00000000000E+00 -0.00000000000E+00 -0.45593999997E+02  0.45594000000E+02  0.51100000000E-03 0. -1.
    9900012    2    1    2    0    0 -0.11332870919E+02 -0.63746541563E+01 -0.38523985025E+02  0.50528836198E+02  0.29999928108E+02 0.  0.
        -12    1    1    2    0    0  0.11332870919E+02  0.63746541563E+01  0.38523985025E+02  0.40659163802E+02  0.00000000000E+00 0.  1.
         11    1    3    3    0    0 -0.15804444031E+02 -0.55717395351E+00 -0.64290363974E+01  0.17071127766E+02  0.51100000000E-03 0.  1.
        -11    1    3    3    0    0  0.45836234032E+00 -0.25853322199E+01 -0.33591805715E+01  0.42635821905E+01  0.51100000000E-03 0. -1.
         12    1    3    3    0    0  0.40132107715E+01 -0.32321479829E+01 -0.28735768056E+02  0.29194126242E+02  0.00000000000E+00 0. -1.
</event>
<event>
 7    1  0.5441610E-013  0.5052886E+02  0.7816164E-02  0.1300439E+00
        -11   -1    0    0    0    0  0.00000000000E+00  0.00000000000E+00  0.45593999997E+02  0.45594000000E+02  0.51100000000E-03 0. -1.
         11   -1    0    0    0    0 -0.00000000000E+00 -0.00000000000E+00 -0.45593999997E+02  0.45594000000E+02  0.51100000000E-03 0.  1.
    9900012    2    1    2    0    0  0.16403084826E+02  0.24585645449E+02  0.27922226252E+02  0.50528857451E+02  0.29999992709E+02 0.  0.
        -12    1    1    2    0    0 -0.16403084826E+02 -0.24585645449E+02 -0.27922226252E+02  0.40659142549E+02  0.00000000000E+00 0.  1.
         11    1    3    3    0    0  0.15873448762E+00 -0.30865465693E+01  0.67614933334E+01  0.74343633702E+01  0.51100000000E-03 0.  1.
        -11    1    3    3    0    0  0.12901559723E+02  0.56516894715E+01  0.13583995078E+02  0.19568258985E+02  0.51100000000E-03 0. -1.
        -12    1    3    3    0    0  0.33427906152E+01  0.22020502547E+02  0.75767378407E+01  0.23526235096E+02  0.00000000000E+00 0.  1.
</event>
<event>
 7    1  0.5441610E-013  0.5052885E+02  0.7816164E-02  0.1300439E+00
        -11   -1    0    0    0    0  0.00000000000E+00  0.00000000000E+00  0.45593999997E+02  0.45594000000E+02  0.51100000000E-03 0.  1.
         11   -1    0    0    0    0 -0.00000000000E+00 -0.00000000000E+00 -0.45593999997E+02  0.45594000000E+02  0.51100000000E-03 0. -1.
    9900012    2    1    2    0    0 -0.35354923015E+02 -0.15670657419E+02  0.12554924538E+02  0.50528853237E+02  0.29999979901E+02 0.  0.
        -12    1    1    2    0    0  0.35354923015E+02  0.15670657419E+02 -0.12554924538E+02  0.40659146763E+02  0.00000000000E+00 0.  1.
         11    1    3    3    0    0 -0.10658387577E+02  0.23187636229E+01  0.21956201954E+01  0.11126483667E+02  0.51100000000E-03 0. -1.
        -11    1    3    3    0    0 -0.73916027498E+01 -0.12212889690E+02  0.14865971106E+02  0.20610375129E+02  0.51100000000E-03 0.  1.
         12    1    3    3    0    0 -0.17304932688E+02 -0.57765313521E+01 -0.45066667631E+01  0.18791994442E+02  0.00000000000E+00 0. -1.
</event>
<event>
 7    1  0.5441610E-013  0.5052874E+02  0.7816164E-02  0.1300439E+00
        -11   -1    0    0    0    0  0.00000000000E+00  0.00000000000E+00  0.45593999997E+02  0.45594000000E+02  0.51100000000E-03 0.  1.
         11   -1    0    0    0    0 -0.00000000000E+00 -0.00000000000E+00 -0.45593999997E+02  0.45594000000E+02  0.51100000000E-03 0. -1.
    9900012    2    1    2    0    0  0.11169047961E+02 -0.25130336366E+01 -0.39014254953E+02  0.50528744474E+02  0.29999649300E+02 0.  0.
        -12    1    1    2    0    0 -0.11169047961E+02  0.25130336366E+01  0.39014254953E+02  0.40659255526E+02  0.00000000000E+00 0.  1.
         11    1    3    3    0    0  0.49487170871E+01 -0.93900860744E+01 -0.11408105723E+02  0.15582310283E+02  0.51100000000E-03 0. -1.
        -11    1    3    3    0    0  0.70461434877E+01  0.44019321627E+01 -0.30167190892E+02  0.31290326802E+02  0.51100000000E-03 0.  1.
        -12    1    3    3    0    0 -0.82581261380E+00  0.24751202751E+01  0.25610416616E+01  0.36561073893E+01  0.00000000000E+00 0.  1.
</event>
<event>
 7    1  0.5441610E-013  0.5052886E+02  0.7816164E-02  0.1300439E+00
        -11   -1    0    0    0    0  0.00000000000E+00  0.00000000000E+00  0.45593999997E+02  0.45594000000E+02  0.51100000000E-03 0.  1.
         11   -1    0    0    0    0 -0.00000000000E+00 -0.00000000000E+00 -0.45593999997E+02  0.45594000000E+02  0.51100000000E-03 0. -1.
    9900012    2    1    2    0    0 -0.22519410565E+02 -0.10882444774E+02 -0.32056424874E+02  0.50528857951E+02  0.29999994228E+02 0.  0.
        -12    1    1    2    0    0  0.22519410565E+02  0.10882444774E+02  0.32056424874E+02  0.40659142049E+02  0.00000000000E+00 0.  1.
         11    1    3    3    0    0 -0.41562001971E+01  0.63196027012E+01  0.14188022103E+00  0.75651509330E+01  0.51100000000E-03 0. -1.
        -11    1    3    3    0    0 -0.15389416798E+02 -0.56264532861E+01 -0.20449673148E+02  0.26204584677E+02  0.51100000000E-03 0.  1.
        -12    1    3    3    0    0 -0.29737935693E+01 -0.11575594189E+02 -0.11748631947E+02  0.16759122341E+02  0.00000000000E+00 0.  1.
</event>
<event>
 7    1  0.5441610E-013  0.5052888E+02  0.7816164E-02  0.1300439E+00
        -11   -1    0    0    0    0  0.00000000000E+00  0.00000000000E+00  0.45593999997E+02  0.45594000000E+02  0.51100000000E-03 0.  1.
         11   -1    0    0    0    0 -0.00000000000E+00 -0.00000000000E+00 -0.45593999997E+02  0.45594000000E+02  0.51100000000E-03 0. -1.
    9900012    2    1    2    0    0 -0.25653051006E+02 -0.84200855682E+01 -0.30400450672E+02  0.50528877187E+02  0.30000052697E+02 0.  0.
        -12    1    1    2    0    0  0.25653051006E+02  0.84200855682E+01  0.30400450672E+02  0.40659122813E+02  0.00000000000E+00 0.  1.
         11    1    3    3    0    0  0.18736345814E+01 -0.17394621967E+01  0.29214306155E+01  0.38821376045E+01  0.51100000000E-03 0.  1.
        -11    1    3    3    0    0 -0.78361246440E+01  0.49724930336E+01 -0.13452370763E+02  0.16343096886E+02  0.51100000000E-03 0. -1.
        -12    1    3    3    0    0 -0.19690560943E+02 -0.11653116405E+02 -0.19869510524E+02  0.30303642696E+02  0.00000000000E+00 0.  1.
</event>
<event>
 7    1  0.5441610E-013  0.5052886E+02  0.7816164E-02  0.1300439E+00
        -11   -1    0    0    0    0  0.00000000000E+00  0.00000000000E+00  0.45593999997E+02  0.45594000000E+02  0.51100000000E-03 0.  1.
         11   -1    0    0    0    0 -0.00000000000E+00 -0.00000000000E+00 -0.45593999997E+02  0.45594000000E+02  0.51100000000E-03 0. -1.
    9900012    2    1    2    0    0 -0.35019548634E+02 -0.35040676260E+01 -0.20359729319E+02  0.50528857678E+02  0.29999993397E+02 0.  0.
        -12    1    1    2    0    0  0.35019548634E+02  0.35040676260E+01  0.20359729319E+02  0.40659142322E+02  0.00000000000E+00 0.  1.
         11    1    3    3    0    0 -0.80539588942E+01  0.13912734259E-01  0.59442918867E+00  0.80758772747E+01  0.51100000000E-03 0. -1.
        -11    1    3    3    0    0 -0.38439295026E+01  0.59089647688E+00  0.57182966463E+01  0.69154804218E+01  0.51100000000E-03 0.  1.
         12    1    3    3    0    0 -0.23121660237E+02 -0.41088768372E+01 -0.26672455154E+02  0.35537499981E+02  0.00000000000E+00 0. -1.
</event>
<event>
 7    1  0.5441610E-013  0.5052888E+02  0.7816164E-02  0.1300439E+00
        -11   -1    0    0    0    0  0.00000000000E+00  0.00000000000E+00  0.45593999997E+02  0.45594000000E+02  0.51100000000E-03 0.  1.
         11   -1    0    0    0    0 -0.00000000000E+00 -0.00000000000E+00 -0.45593999997E+02  0.45594000000E+02  0.51100000000E-03 0. -1.
    9900012    2    1    2    0    0 -0.31156994339E+02 -0.11234369063E+02 -0.23583785090E+02  0.50528877240E+02  0.30000052857E+02 0.  0.
        -12    1    1    2    0    0  0.31156994339E+02  0.11234369063E+02  0.23583785090E+02  0.40659122760E+02  0.00000000000E+00 0.  1.
         11    1    3    3    0    0 -0.78176693121E+01  0.71921803470E+01 -0.95564341612E+01  0.14288766418E+02  0.51100000000E-03 0. -1.
        -11    1    3    3    0    0 -0.12364786935E+01  0.22083477185E+01  0.67195157503E+00  0.26186252855E+01  0.51100000000E-03 0.  1.
         12    1    3    3    0    0 -0.22102846333E+02 -0.20634897129E+02 -0.14699302504E+02  0.33621485536E+02  0.00000000000E+00 0. -1.
</event>
<event>
 7    1  0.5441610E-013  0.5052887E+02  0.7816164E-02  0.1300439E+00
        -11   -1    0    0    0    0  0.00000000000E+00  0.00000000000E+00  0.45593999997E+02  0.45594000000E+02  0.51100000000E-03 0.  1.
         11   -1    0    0    0    0 -0.00000000000E+00 -0.00000000000E+00 -0.45593999997E+02  0.45594000000E+02  0.51100000000E-03 0. -1.
    9900012    2    1    2    0    0 -0.10543086158E+00 -0.20936225287E+02 -0.34854389687E+02  0.50528866642E+02  0.30000020646E+02 0.  0.
        -12    1    1    2    0    0  0.10543086158E+00  0.20936225287E+02  0.34854389687E+02  0.40659133358E+02  0.00000000000E+00 0.  1.
         11    1    3    3    0    0 -0.16551391974E+01 -0.18543318681E+02 -0.19634786484E+02  0.27057697500E+02  0.51100000000E-03 0. -1.
        -11    1    3    3    0    0  0.33539647611E+01 -0.61768200107E+01  0.64864197519E+00  0.70585353819E+01  0.51100000000E-03 0.  1.
        -12    1    3    3    0    0 -0.18042564253E+01  0.37839134051E+01 -0.15868245178E+02  0.16412633760E+02  0.00000000000E+00 0.  1.
</event>
<event>
 7    1  0.5441610E-013  0.5052887E+02  0.7816164E-02  0.1300439E+00
        -11   -1    0    0    0    0  0.00000000000E+00  0.00000000000E+00  0.45593999997E+02  0.45594000000E+02  0.51100000000E-03 0. -1.
         11   -1    0    0    0    0 -0.00000000000E+00 -0.00000000000E+00 -0.45593999997E+02  0.45594000000E+02  0.51100000000E-03 0.  1.
    9900012    2    1    2    0    0  0.24153860270E+02 -0.27432018009E+02  0.17811229948E+02  0.50528874453E+02  0.30000044388E+02 0.  0.
        -12    1    1    2    0    0 -0.24153860270E+02  0.27432018009E+02 -0.17811229948E+02  0.40659125547E+02  0.00000000000E+00 0.  1.
         11    1    3    3    0    0  0.11413166599E+02 -0.25183666918E+02  0.46284364529E+01  0.28033905820E+02  0.51100000000E-03 0.  1.
        -11    1    3    3    0    0  0.95392260571E+01 -0.73771763707E+01  0.99795041984E+01  0.15652797491E+02  0.51100000000E-03 0. -1.
         12    1    3    3    0    0  0.32014676139E+01  0.51288252800E+01  0.32032892964E+01  0.68421711431E+01  0.00000000000E+00 0. -1.
</event>
<event>
 7    1  0.5441610E-013  0.5052886E+02  0.7816164E-02  0.1300439E+00
        -11   -1    0    0    0    0  0.00000000000E+00  0.00000000000E+00  0.45593999997E+02  0.45594000000E+02  0.51100000000E-03 0.  1.
         11   -1    0    0    0    0 -0.00000000000E+00 -0.00000000000E+00 -0.45593999997E+02  0.45594000000E+02  0.51100000000E-03 0. -1.
    9900012    2    1    2    0    0 -0.11710706213E+02  0.34913228018E+02 -0.17236342381E+02  0.50528860446E+02  0.30000001810E+02 0.  0.
        -12    1    1    2    0    0  0.11710706213E+02 -0.34913228018E+02  0.17236342381E+02  0.40659139554E+02  0.00000000000E+00 0.  1.
         11    1    3    3    0    0 -0.60494143147E+01  0.80832765395E+01 -0.15600378255E+02  0.18582426514E+02  0.51100000000E-03 0. -1.
        -11    1    3    3    0    0  0.38104967795E+01  0.64968486442E+00  0.96526245975E+00  0.39841822256E+01  0.51100000000E-03 0.  1.
        -12    1    3    3    0    0 -0.94717886780E+01  0.26180266614E+02 -0.26012265853E+01  0.27962251706E+02  0.00000000000E+00 0.  1.
</event>
<event>
 7    1  0.5441610E-013  0.5052887E+02  0.7816164E-02  0.1300439E+00
        -11   -1    0    0    0    0  0.00000000000E+00  0.00000000000E+00  0.45593999997E+02  0.45594000000E+02  0.51100000000E-03 0. -1.
         11   -1    0    0    0    0 -0.00000000000E+00 -0.00000000000E+00 -0.45593999997E+02  0.45594000000E+02  0.51100000000E-03 0.  1.
    9900012    2    1    2    0    0 -0.36059144580E+02 -0.15098953389E+02 -0.11176970798E+02  0.50528868461E+02  0.30000026174E+02 0.  0.
        -12    1    1    2    0    0  0.36059144580E+02  0.15098953389E+02  0.11176970798E+02  0.40659131539E+02  0.00000000000E+00 0.  1.
         11    1    3    3    0    0 -0.16511062480E+02 -0.97668521660E+01 -0.33705344991E+01  0.19477348088E+02  0.51100000000E-03 0. -1.
        -11    1    3    3    0    0 -0.10596582638E+02 -0.10008366472E+02 -0.13145268315E+02  0.19627863928E+02  0.51100000000E-03 0.  1.
         12    1    3    3    0    0 -0.89514994620E+01  0.46762652482E+01  0.53388320158E+01  0.11423656445E+02  0.00000000000E+00 0. -1.
</event>
<event>
 7    1  0.5441610E-013  0.5052886E+02  0.7816164E-02  0.1300439E+00
        -11   -1    0    0    0    0  0.00000000000E+00  0.00000000000E+00  0.45593999997E+02  0.45594000000E+02  0.51100000000E-03 0.  1.
         11   -1    0    0    0    0 -0.00000000000E+00 -0.00000000000E+00 -0.45593999997E+02  0.45594000000E+02  0.51100000000E-03 0. -1.
    9900012    2    1    2    0    0 -0.23414775725E+02  0.24180229245E+02 -0.22808563736E+02  0.50528858490E+02  0.29999995868E+02 0.  0.
        -12    1    1    2    0    0  0.23414775725E+02 -0.24180229245E+02  0.22808563736E+02  0.40659141510E+02  0.00000000000E+00 0.  1.
         11    1    3    3    0    0  0.54302797630E+00  0.13871744237E+02 -0.43017895920E+01  0.14533601120E+02  0.51100000000E-03 0. -1.
        -11    1    3    3    0    0 -0.95305335444E+01  0.79364177858E+01  0.95215879150E-02  0.12402333967E+02  0.51100000000E-03 0.  1.
         12    1    3    3    0    0 -0.14427270157E+02  0.23720672223E+01 -0.18516295732E+02  0.23592923403E+02  0.00000000000E+00 0. -1.
</event>
<event>
 7    1  0.5441610E-013  0.5052886E+02  0.7816164E-02  0.1300439E+00
        -11   -1    0    0    0    0  0.00000000000E+00  0.00000000000E+00  0.45593999997E+02  0.45594000000E+02  0.51100000000E-03 0. -1.
         11   -1    0    0    0    0 -0.00000000000E+00 -0.00000000000E+00 -0.45593999997E+02  0.45594000000E+02  0.51100000000E-03 0.  1.
    9900012    2    1    2    0    0  0.35049526258E+02  0.20605285539E+02  0.34418120836E+00  0.50528861498E+02  0.30000005009E+02 0.  0.
        -12    1    1    2    0    0 -0.35049526258E+02 -0.20605285539E+02 -0.34418120836E+00  0.40659138502E+02  0.00000000000E+00 0.  1.
         11    1    3    3    0    0  0.16354835026E+02  0.98664607372E+01  0.74491847213E+01  0.20501659189E+02  0.51100000000E-03 0. -1.
        -11    1    3    3    0    0  0.11705745408E+01 -0.85339812773E+00  0.53900545508E+01  0.55813279282E+01  0.51100000000E-03 0.  1.
        -12    1    3    3    0    0  0.17524116691E+02  0.11592222929E+02 -0.12495058064E+02  0.24445874381E+02  0.00000000000E+00 0.  1.
</event>
<event>
 7    1  0.5441610E-013  0.5052887E+02  0.7816164E-02  0.1300439E+00
        -11   -1    0    0    0    0  0.00000000000E+00  0.00000000000E+00  0.45593999997E+02  0.45594000000E+02  0.51100000000E-03 0.  1.
         11   -1    0    0    0    0 -0.00000000000E+00 -0.00000000000E+00 -0.45593999997E+02  0.45594000000E+02  0.51100000000E-03 0. -1.
    9900012    2    1    2    0    0  0.14050655262E+02  0.12718595540E+02 -0.35971951827E+02  0.50528869365E+02  0.30000028920E+02 0.  0.
        -12    1    1    2    0    0 -0.14050655262E+02 -0.12718595540E+02  0.35971951827E+02  0.40659130635E+02  0.00000000000E+00 0.  1.
         11    1    3    3    0    0  0.44839572191E+01  0.69615308971E+01 -0.24805943689E+02  0.26151551146E+02  0.51100000000E-03 0. -1.
        -11    1    3    3    0    0  0.75178266420E+01 -0.60603745443E+01 -0.54956560171E+01  0.11110719705E+02  0.51100000000E-03 0.  1.
         12    1    3    3    0    0  0.20488714011E+01  0.11817439187E+02 -0.56703521209E+01  0.13266598514E+02  0.00000000000E+00 0. -1.
</event>
<event>
 7    1  0.5441610E-013  0.5052886E+02  0.7816164E-02  0.1300439E+00
        -11   -1    0    0    0    0  0.00000000000E+00  0.00000000000E+00  0.45593999997E+02  0.45594000000E+02  0.51100000000E-03 0. -1.
         11   -1    0    0    0    0 -0.00000000000E+00 -0.00000000000E+00 -0.45593999997E+02  0.45594000000E+02  0.51100000000E-03 0.  1.
    9900012    2    1    2    0    0 -0.16166796465E+02  0.23269630086E+02  0.29160329071E+02  0.50528858546E+02  0.29999996035E+02 0.  0.
        -12    1    1    2    0    0  0.16166796465E+02 -0.23269630086E+02 -0.29160329071E+02  0.40659141454E+02  0.00000000000E+00 0.  1.
         11    1    3    3    0    0 -0.13547117329E+02  0.11462910447E+01  0.87174430087E+01  0.16150299810E+02  0.51100000000E-03 0. -1.
        -11    1    3    3    0    0 -0.35485903686E+01  0.55948224089E+01 -0.15958693236E+01  0.68147876380E+01  0.51100000000E-03 0.  1.
         12    1    3    3    0    0  0.92891123253E+00  0.16528516632E+02  0.22038755386E+02  0.27563771097E+02  0.00000000000E+00 0. -1.
</event>
<event>
 7    1  0.5441610E-013  0.5052887E+02  0.7816164E-02  0.1300439E+00
        -11   -1    0    0    0    0  0.00000000000E+00  0.00000000000E+00  0.45593999997E+02  0.45594000000E+02  0.51100000000E-03 0.  1.
         11   -1    0    0    0    0 -0.00000000000E+00 -0.00000000000E+00 -0.45593999997E+02  0.45594000000E+02  0.51100000000E-03 0. -1.
    9900012    2    1    2    0    0  0.28029415355E+02  0.11514196252E+02 -0.27109775748E+02  0.50528870870E+02  0.30000033497E+02 0.  0.
        -12    1    1    2    0    0 -0.28029415355E+02 -0.11514196252E+02  0.27109775748E+02  0.40659129130E+02  0.00000000000E+00 0.  1.
         11    1    3    3    0    0  0.43103753808E+00  0.10035878328E+02 -0.84379575678E+01  0.13118832850E+02  0.51100000000E-03 0. -1.
        -11    1    3    3    0    0  0.99626743720E+01  0.14641473677E+01 -0.16917128990E+02  0.19687251248E+02  0.51100000000E-03 0.  1.
        -12    1    3    3    0    0  0.17635703445E+02  0.14170555837E-01 -0.17546891898E+01  0.17722786772E+02  0.00000000000E+00 0.  1.
</event>
<event>
 7    1  0.5441610E-013  0.5052885E+02  0.7816164E-02  0.1300439E+00
        -11   -1    0    0    0    0  0.00000000000E+00  0.00000000000E+00  0.45593999997E+02  0.45594000000E+02  0.51100000000E-03 0.  1.
         11   -1    0    0    0    0 -0.00000000000E+00 -0.00000000000E+00 -0.45593999997E+02  0.45594000000E+02  0.51100000000E-03 0. -1.
    9900012    2    1    2    0    0  0.33920179448E+02  0.72060447604E+01 -0.21228764236E+02  0.50528854831E+02  0.29999984746E+02 0.  0.
        -12    1    1    2    0    0 -0.33920179448E+02 -0.72060447604E+01  0.21228764236E+02  0.40659145169E+02  0.00000000000E+00 0.  1.
         11    1    3    3    0    0  0.19748936902E+02  0.14053731252E+02 -0.97230691523E+01  0.26116392263E+02  0.51100000000E-03 0.  1.
        -11    1    3    3    0    0  0.83049518808E+01  0.41900848465E+00 -0.12507835984E+02  0.15019778797E+02  0.51100000000E-03 0. -1.
        -12    1    3    3    0    0  0.58662906655E+01 -0.72666949759E+01  0.10021409006E+01  0.93926837714E+01  0.00000000000E+00 0.  1.
</event>
<event>
 7    1  0.5441610E-013  0.5052883E+02  0.7816164E-02  0.1300439E+00
        -11   -1    0    0    0    0  0.00000000000E+00  0.00000000000E+00  0.45593999997E+02  0.45594000000E+02  0.51100000000E-03 0.  1.
         11   -1    0    0    0    0 -0.00000000000E+00 -0.00000000000E+00 -0.45593999997E+02  0.45594000000E+02  0.51100000000E-03 0. -1.
    9900012    2    1    2    0    0 -0.34330180651E+02  0.11031949313E+02 -0.18785705646E+02  0.50528831959E+02  0.29999915222E+02 0.  0.
        -12    1    1    2    0    0  0.34330180651E+02 -0.11031949313E+02  0.18785705646E+02  0.40659168041E+02  0.00000000000E+00 0.  1.
         11    1    3    3    0    0 -0.14032213043E+00  0.11357348226E+02 -0.71002901064E+01  0.13394893388E+02  0.51100000000E-03 0. -1.
        -11    1    3    3    0    0 -0.59864879651E+01 -0.29318829597E+01 -0.40480089322E+01  0.77987404382E+01  0.51100000000E-03 0.  1.
        -12    1    3    3    0    0 -0.28203370556E+02  0.26064840467E+01 -0.76374066072E+01  0.29335198133E+02  0.00000000000E+00 0.  1.
</event>
<event>
 7    1  0.5441610E-013  0.5052886E+02  0.7816164E-02  0.1300439E+00
        -11   -1    0    0    0    0  0.00000000000E+00  0.00000000000E+00  0.45593999997E+02  0.45594000000E+02  0.51100000000E-03 0. -1.
         11   -1    0    0    0    0 -0.00000000000E+00 -0.00000000000E+00 -0.45593999997E+02  0.45594000000E+02  0.51100000000E-03 0.  1.
    9900012    2    1    2    0    0 -0.42412735224E+01  0.27980945783E+02  0.29193215103E+02  0.50528861593E+02  0.30000005297E+02 0.  0.
        -12    1    1    2    0    0  0.42412735224E+01 -0.27980945783E+02 -0.29193215103E+02  0.40659138407E+02  0.00000000000E+00 0.  1.
         11    1    3    3    0    0 -0.59914192182E+00  0.24384806096E+01 -0.25292431854E+01  0.35640188099E+01  0.51100000000E-03 0. -1.
        -11    1    3    3    0    0 -0.33936729083E+01 -0.34127535445E+01  0.88140168266E+01  0.10042449673E+02  0.51100000000E-03 0.  1.
         12    1    3    3    0    0 -0.24845869235E+00  0.28955218718E+02  0.22908441462E+02  0.36922393109E+02  0.00000000000E+00 0. -1.
</event>
<event>
 7    1  0.5441610E-013  0.5052886E+02  0.7816164E-02  0.1300439E+00
        -11   -1    0    0    0    0  0.00000000000E+00  0.00000000000E+00  0.45593999997E+02  0.45594000000E+02  0.51100000000E-03 0. -1.
         11   -1    0    0    0    0 -0.00000000000E+00 -0.00000000000E+00 -0.45593999997E+02  0.45594000000E+02  0.51100000000E-03 0.  1.
    9900012    2    1    2    0    0  0.14271970856E+02 -0.11349009110E+02  0.36341109548E+02  0.50528863228E+02  0.30000010267E+02 0.  0.
        -12    1    1    2    0    0 -0.14271970856E+02  0.11349009110E+02 -0.36341109548E+02  0.40659136772E+02  0.00000000000E+00 0.  1.
         11    1    3    3    0    0 -0.75597296831E+00 -0.44846628930E+01  0.96139009674E+01  0.10635355587E+02  0.51100000000E-03 0. -1.
        -11    1    3    3    0    0  0.12696062730E+02 -0.15634121422E+02  0.15249527025E+02  0.25261904842E+02  0.51100000000E-03 0.  1.
        -12    1    3    3    0    0  0.23318810946E+01  0.87697752050E+01  0.11477681555E+02  0.14631602799E+02  0.00000000000E+00 0.  1.
</event>
<event>
 7    1  0.5441610E-013  0.5052884E+02  0.7816164E-02  0.1300439E+00
        -11   -1    0    0    0    0  0.00000000000E+00  0.00000000000E+00  0.45593999997E+02  0.45594000000E+02  0.51100000000E-03 0.  1.
         11   -1    0    0    0    0 -0.00000000000E+00 -0.00000000000E+00 -0.45593999997E+02  0.45594000000E+02  0.51100000000E-03 0. -1.
    9900012    2    1    2    0    0 -0.12437017680E+02  0.26960996630E+01 -0.38616301474E+02  0.50528842339E+02  0.29999946773E+02 0.  0.
        -12    1    1    2    0    0  0.12437017680E+02 -0.26960996630E+01  0.38616301474E+02  0.40659157661E+02  0.00000000000E+00 0.  1.
         11    1    3    3    0    0  0.23942259241E+01 -0.22729640378E+01 -0.24668148916E+02  0.24888074544E+02  0.51100000000E-03 0. -1.
        -11    1    3    3    0    0 -0.11012077234E+01  0.99028195592E+00 -0.10931058213E+02  0.11030927011E+02  0.51100000000E-03 0.  1.
        -12    1    3    3    0    0 -0.13730035880E+02  0.39787817448E+01 -0.30170943458E+01  0.14609840784E+02  0.00000000000E+00 0.  1.
</event>
<event>
 7    1  0.5441610E-013  0.5052886E+02  0.7816164E-02  0.1300439E+00
        -11   -1    0    0    0    0  0.00000000000E+00  0.00000000000E+00  0.45593999997E+02  0.45594000000E+02  0.51100000000E-03 0.  1.
         11   -1    0    0    0    0 -0.00000000000E+00 -0.00000000000E+00 -0.45593999997E+02  0.45594000000E+02  0.51100000000E-03 0. -1.
    9900012    2    1    2    0    0  0.13354771799E+02 -0.38284719270E+02  0.30159334057E+01  0.50528861867E+02  0.30000006130E+02 0.  0.
        -12    1    1    2    0    0 -0.13354771799E+02  0.38284719270E+02 -0.30159334057E+01  0.40659138133E+02  0.00000000000E+00 0.  1.
         11    1    3    3    0    0  0.34286821398E+01 -0.22314292207E+02  0.10187763932E+01  0.22599146080E+02  0.51100000000E-03 0. -1.
        -11    1    3    3    0    0 -0.37868997596E+01 -0.76175829676E+01  0.71012552818E+01  0.11081335971E+02  0.51100000000E-03 0.  1.
         12    1    3    3    0    0  0.13712989419E+02 -0.83528440956E+01 -0.51040982694E+01  0.16848379816E+02  0.00000000000E+00 0. -1.
</event>
<event>
 7    1  0.5441610E-013  0.5052886E+02  0.7816164E-02  0.1300439E+00
        -11   -1    0    0    0    0  0.00000000000E+00  0.00000000000E+00  0.45593999997E+02  0.45594000000E+02  0.51100000000E-03 0.  1.
         11   -1    0    0    0    0 -0.00000000000E+00 -0.00000000000E+00 -0.45593999997E+02  0.45594000000E+02  0.51100000000E-03 0. -1.
    9900012    2    1    2    0    0 -0.11201652354E+02 -0.23914850959E+02 -0.30915504342E+02  0.50528861783E+02  0.30000005875E+02 0.  0.
        -12    1    1    2    0    0  0.11201652354E+02  0.23914850959E+02  0.30915504342E+02  0.40659138217E+02  0.00000000000E+00 0.  1.
         11    1    3    3    0    0 -0.15061084093E+01 -0.21969883979E+02 -0.13727018531E+02  0.25949474033E+02  0.51100000000E-03 0. -1.
        -11    1    3    3    0    0 -0.88989706545E+01 -0.49412290548E+01 -0.38455274704E+01  0.10880969859E+02  0.51100000000E-03 0.  1.
        -12    1    3    3    0    0 -0.79657329013E+00  0.29962620750E+01 -0.13342958341E+02  0.13698417891E+02  0.00000000000E+00 0.  1.
</event>
<event>
 7    1  0.5441610E-013  0.5052886E+02  0.7816164E-02  0.1300439E+00
        -11   -1    0    0    0    0  0.00000000000E+00  0.00000000000E+00  0.45593999997E+02  0.45594000000E+02  0.51100000000E-03 0.  1.
         11   -1    0    0    0    0 -0.00000000000E+00 -0.00000000000E+00 -0.45593999997E+02  0.45594000000E+02  0.51100000000E-03 0. -1.
    9900012    2    1    2    0    0  0.17116998931E+02  0.12626695909E+01 -0.36858918946E+02  0.50528857206E+02  0.29999991962E+02 0.  0.
        -12    1    1    2    0    0 -0.17116998931E+02 -0.12626695909E+01  0.36858918946E+02  0.40659142794E+02  0.00000000000E+00 0.  1.
         11    1    3    3    0    0  0.56993201526E+01 -0.49949657609E+01 -0.23206691304E+02  0.24412751887E+02  0.51100000000E-03 0. -1.
        -11    1    3    3    0    0  0.13848267309E+02  0.38538354956E+01 -0.16343407167E+02  0.21765420133E+02  0.51100000000E-03 0.  1.
        -12    1    3    3    0    0 -0.24305885303E+01  0.24037998563E+01  0.26911795247E+01  0.43506851859E+01  0.00000000000E+00 0.  1.
</event>
<event>
 7    1  0.5441610E-013  0.5052886E+02  0.7816164E-02  0.1300439E+00
        -11   -1    0    0    0    0  0.00000000000E+00  0.00000000000E+00  0.45593999997E+02  0.45594000000E+02  0.51100000000E-03 0. -1.
         11   -1    0    0    0    0 -0.00000000000E+00 -0.00000000000E+00 -0.45593999997E+02  0.45594000000E+02  0.51100000000E-03 0.  1.
    9900012    2    1    2    0    0  0.29527790778E+02  0.13710013974E+02  0.24357965471E+02  0.50528863348E+02  0.30000010631E+02 0.  0.
        -12    1    1    2    0    0 -0.29527790778E+02 -0.13710013974E+02 -0.24357965471E+02  0.40659136652E+02  0.00000000000E+00 0.  1.
         11    1    3    3    0    0  0.20997359523E+02  0.18397492968E+00  0.84072092308E+01  0.22618667534E+02  0.51100000000E-03 0. -1.
        -11    1    3    3    0    0 -0.26632785520E+01 -0.10359881835E+01 -0.88795131955E+00  0.29924541715E+01  0.51100000000E-03 0.  1.
        -12    1    3    3    0    0  0.11193709807E+02  0.14562027228E+02  0.16838707560E+02  0.24917741642E+02  0.00000000000E+00 0.  1.
</event>
<event>
 7    1  0.5441610E-013  0.5052888E+02  0.7816164E-02  0.1300439E+00
        -11   -1    0    0    0    0  0.00000000000E+00  0.00000000000E+00  0.45593999997E+02  0.45594000000E+02  0.51100000000E-03 0. -1.
         11   -1    0    0    0    0 -0.00000000000E+00 -0.00000000000E+00 -0.45593999997E+02  0.45594000000E+02  0.51100000000E-03 0.  1.
    9900012    2    1    2    0    0  0.27642792179E+02 -0.23188193649E+02  0.18744266713E+02  0.50528882711E+02  0.30000069488E+02 0.  0.
        -12    1    1    2    0    0 -0.27642792179E+02  0.23188193649E+02 -0.18744266713E+02  0.40659117289E+02  0.00000000000E+00 0.  1.
         11    1    3    3    0    0  0.12685690635E+02 -0.16367069781E+02  0.88134774722E+01  0.22505223961E+02  0.51100000000E-03 0. -1.
        -11    1    3    3    0    0  0.11914833580E+02 -0.82651224029E+01 -0.28744362267E+01  0.14783027141E+02  0.51100000000E-03 0.  1.
        -12    1    3    3    0    0  0.30422679639E+01  0.14439985356E+01  0.12805225467E+02  0.13240631609E+02  0.00000000000E+00 0.  1.
</event>
<event>
 7    1  0.5441610E-013  0.5052885E+02  0.7816164E-02  0.1300439E+00
        -11   -1    0    0    0    0  0.00000000000E+00  0.00000000000E+00  0.45593999997E+02  0.45594000000E+02  0.51100000000E-03 0.  1.
         11   -1    0    0    0    0 -0.00000000000E+00 -0.00000000000E+00 -0.45593999997E+02  0.45594000000E+02  0.51100000000E-03 0. -1.
    9900012    2    1    2    0    0 -0.99658142589E+01  0.35060013944E+02 -0.18017899854E+02  0.50528846704E+02  0.29999960041E+02 0.  0.
        -12    1    1    2    0    0  0.99658142589E+01 -0.35060013944E+02  0.18017899854E+02  0.40659153296E+02  0.00000000000E+00 0.  1.
         11    1    3    3    0    0 -0.12859373767E+01  0.97349161012E+01 -0.18498226423E+02  0.20942936936E+02  0.51100000000E-03 0. -1.
        -11    1    3    3    0    0  0.30315967805E+00 -0.83650861755E+00  0.16777933452E+01  0.18991164335E+01  0.51100000000E-03 0.  1.
        -12    1    3    3    0    0 -0.89830365603E+01  0.26161606461E+02 -0.11974667758E+01  0.27686793334E+02  0.00000000000E+00 0.  1.
</event>
<event>
 7    1  0.5525378E-013  0.5052886E+02  0.7816164E-02  0.1300439E+00
        -11   -1    0    0    0    0  0.00000000000E+00  0.00000000000E+00  0.45593999997E+02  0.45594000000E+02  0.51100000000E-03 0. -1.
         11   -1    0    0    0    0 -0.00000000000E+00 -0.00000000000E+00 -0.45593999997E+02  0.45594000000E+02  0.51100000000E-03 0.  1.
    9900012    2    1    2    0    0  0.22023499325E+02 -0.26691714759E+02  0.21346741170E+02  0.50528861816E+02  0.30000005977E+02 0.  0.
        -12    1    1    2    0    0 -0.22023499325E+02  0.26691714759E+02 -0.21346741170E+02  0.40659138184E+02  0.00000000000E+00 0.  1.
         11    1    3    3    0    0  0.88385468754E+01 -0.28816821046E+01 -0.18213053791E+01  0.94731808895E+01  0.51100000000E-03 0. -1.
        -11    1    3    3    0    0  0.32859662148E+01  0.32442752411E+01  0.58116340572E+01  0.74228017945E+01  0.51100000000E-03 0.  1.
         12    1    3    3    0    0  0.98989862345E+01 -0.27054307895E+02  0.17356412492E+02  0.33632879132E+02  0.00000000000E+00 0. -1.
</event>
<event>
 7    1  0.5441610E-013  0.5052886E+02  0.7816164E-02  0.1300439E+00
        -11   -1    0    0    0    0  0.00000000000E+00  0.00000000000E+00  0.45593999997E+02  0.45594000000E+02  0.51100000000E-03 0.  1.
         11   -1    0    0    0    0 -0.00000000000E+00 -0.00000000000E+00 -0.45593999997E+02  0.45594000000E+02  0.51100000000E-03 0. -1.
    9900012    2    1    2    0    0  0.81289159486E+01  0.54142560514E+01 -0.39468625172E+02  0.50528858149E+02  0.29999994830E+02 0.  0.
        -12    1    1    2    0    0 -0.81289159486E+01 -0.54142560514E+01  0.39468625172E+02  0.40659141851E+02  0.00000000000E+00 0.  1.
         11    1    3    3    0    0  0.98239986233E+01 -0.61687852310E+00 -0.20076989278E+02  0.22360165178E+02  0.51100000000E-03 0. -1.
        -11    1    3    3    0    0  0.71447275007E+01 -0.30122049613E+01 -0.81365518533E+01  0.11239394384E+02  0.51100000000E-03 0.  1.
        -12    1    3    3    0    0 -0.88398101755E+01  0.90433395358E+01 -0.11255084041E+02  0.16929298587E+02  0.00000000000E+00 0.  1.
</event>
<event>
 7    1  0.5441610E-013  0.5052886E+02  0.7816164E-02  0.1300439E+00
        -11   -1    0    0    0    0  0.00000000000E+00  0.00000000000E+00  0.45593999997E+02  0.45594000000E+02  0.51100000000E-03 0.  1.
         11   -1    0    0    0    0 -0.00000000000E+00 -0.00000000000E+00 -0.45593999997E+02  0.45594000000E+02  0.51100000000E-03 0. -1.
    9900012    2    1    2    0    0 -0.60171323531E+01 -0.34191544565E+02 -0.21163593224E+02  0.50528864745E+02  0.30000014880E+02 0.  0.
        -12    1    1    2    0    0  0.60171323531E+01  0.34191544565E+02  0.21163593224E+02  0.40659135255E+02  0.00000000000E+00 0.  1.
         11    1    3    3    0    0  0.67769983589E+00 -0.19502173856E+02 -0.35707507710E+01  0.19837951596E+02  0.51100000000E-03 0. -1.
        -11    1    3    3    0    0  0.13204457060E+01 -0.67328942157E+01 -0.18129476541E+02  0.19384358676E+02  0.51100000000E-03 0.  1.
         12    1    3    3    0    0 -0.80152778949E+01 -0.79564764928E+01  0.53663408772E+00  0.11306554473E+02  0.00000000000E+00 0. -1.
</event>
<event>
 7    1  0.5441610E-013  0.5052888E+02  0.7816164E-02  0.1300439E+00
        -11   -1    0    0    0    0  0.00000000000E+00  0.00000000000E+00  0.45593999997E+02  0.45594000000E+02  0.51100000000E-03 0.  1.
         11   -1    0    0    0    0 -0.00000000000E+00 -0.00000000000E+00 -0.45593999997E+02  0.45594000000E+02  0.51100000000E-03 0. -1.
    9900012    2    1    2    0    0 -0.17330116595E+02 -0.36780022589E+02 -0.24778253281E+00  0.50528875575E+02  0.30000047796E+02 0.  0.
        -12    1    1    2    0    0  0.17330116595E+02  0.36780022589E+02  0.24778253281E+00  0.40659124425E+02  0.00000000000E+00 0.  1.
         11    1    3    3    0    0  0.25504156011E+01 -0.40714741570E+01  0.51925545181E+01  0.70741885919E+01  0.51100000000E-03 0. -1.
        -11    1    3    3    0    0 -0.18681586029E+02 -0.11767224414E+02 -0.16588847599E+01  0.22140937782E+02  0.51100000000E-03 0.  1.
        -12    1    3    3    0    0 -0.11989461673E+01 -0.20941324019E+02 -0.37814522910E+01  0.21313749201E+02  0.00000000000E+00 0.  1.
</event>
<event>
 7    1  0.5441610E-013  0.5052886E+02  0.7816164E-02  0.1300439E+00
        -11   -1    0    0    0    0  0.00000000000E+00  0.00000000000E+00  0.45593999997E+02  0.45594000000E+02  0.51100000000E-03 0.  1.
         11   -1    0    0    0    0 -0.00000000000E+00 -0.00000000000E+00 -0.45593999997E+02  0.45594000000E+02  0.51100000000E-03 0. -1.
    9900012    2    1    2    0    0  0.15234153617E+02  0.13064222003E+02 -0.35361168211E+02  0.50528861418E+02  0.30000004766E+02 0.  0.
        -12    1    1    2    0    0 -0.15234153617E+02 -0.13064222003E+02  0.35361168211E+02  0.40659138582E+02  0.00000000000E+00 0.  1.
         11    1    3    3    0    0  0.87273292246E+01  0.68926920415E+01 -0.29298528042E+02  0.31338143286E+02  0.51100000000E-03 0. -1.
        -11    1    3    3    0    0  0.69211807329E+01 -0.26433950521E+01 -0.71537576130E+01  0.10298860538E+02  0.51100000000E-03 0.  1.
        -12    1    3    3    0    0 -0.41435634069E+00  0.88149250141E+01  0.10911174433E+01  0.88918575931E+01  0.00000000000E+00 0.  1.
</event>
<event>
 7    1  0.5441610E-013  0.5052886E+02  0.7816164E-02  0.1300439E+00
        -11   -1    0    0    0    0  0.00000000000E+00  0.00000000000E+00  0.45593999997E+02  0.45594000000E+02  0.51100000000E-03 0. -1.
         11   -1    0    0    0    0 -0.00000000000E+00 -0.00000000000E+00 -0.45593999997E+02  0.45594000000E+02  0.51100000000E-03 0.  1.
    9900012    2    1    2    0    0  0.14041993905E+01  0.30134419837E+02  0.27260056305E+02  0.50528859520E+02  0.29999998998E+02 0.  0.
        -12    1    1    2    0    0 -0.14041993905E+01 -0.30134419837E+02 -0.27260056305E+02  0.40659140480E+02  0.00000000000E+00 0.  1.
         11    1    3    3    0    0 -0.36717205934E+01  0.22285745553E+01 -0.18052682277E+01  0.46590847062E+01  0.51100000000E-03 0.  1.
        -11    1    3    3    0    0 -0.18155181486E+01  0.52312653676E+01  0.19572177893E+02  0.20340412760E+02  0.51100000000E-03 0. -1.
         12    1    3    3    0    0  0.68914381325E+01  0.22674579914E+02  0.94931466393E+01  0.25529362054E+02  0.00000000000E+00 0. -1.
</event>
<event>
 7    1  0.5441610E-013  0.5052885E+02  0.7816164E-02  0.1300439E+00
        -11   -1    0    0    0    0  0.00000000000E+00  0.00000000000E+00  0.45593999997E+02  0.45594000000E+02  0.51100000000E-03 0.  1.
         11   -1    0    0    0    0 -0.00000000000E+00 -0.00000000000E+00 -0.45593999997E+02  0.45594000000E+02  0.51100000000E-03 0. -1.
    9900012    2    1    2    0    0 -0.63018231151E+01  0.22566786837E+02 -0.33229403890E+02  0.50528854342E+02  0.29999983259E+02 0.  0.
        -12    1    1    2    0    0  0.63018231151E+01 -0.22566786837E+02  0.33229403890E+02  0.40659145658E+02  0.00000000000E+00 0.  1.
         11    1    3    3    0    0 -0.26757487870E+00  0.14530805409E+02 -0.11017177341E+02  0.18237162580E+02  0.51100000000E-03 0. -1.
        -11    1    3    3    0    0  0.73621575269E+01  0.52067494094E+01 -0.50436299555E+01  0.10331979784E+02  0.51100000000E-03 0.  1.
        -12    1    3    3    0    0 -0.13396405763E+02  0.28292320186E+01 -0.17168596594E+02  0.21959711979E+02  0.00000000000E+00 0.  1.
</event>
<event>
 7    1  0.5441610E-013  0.5052886E+02  0.7816164E-02  0.1300439E+00
        -11   -1    0    0    0    0  0.00000000000E+00  0.00000000000E+00  0.45593999997E+02  0.45594000000E+02  0.51100000000E-03 0.  1.
         11   -1    0    0    0    0 -0.00000000000E+00 -0.00000000000E+00 -0.45593999997E+02  0.45594000000E+02  0.51100000000E-03 0. -1.
    9900012    2    1    2    0    0 -0.23248552700E+01  0.29166200946E+02 -0.28232836065E+02  0.50528864963E+02  0.30000015541E+02 0.  0.
        -12    1    1    2    0    0  0.23248552700E+01 -0.29166200946E+02  0.28232836065E+02  0.40659135037E+02  0.00000000000E+00 0.  1.
         11    1    3    3    0    0  0.12854503204E+01  0.14162856369E+02 -0.25258886244E+02  0.28987069835E+02  0.51100000000E-03 0. -1.
        -11    1    3    3    0    0  0.34966739165E+01 -0.11454335548E+01 -0.79355492322E+00  0.37641036362E+01  0.51100000000E-03 0.  1.
        -12    1    3    3    0    0 -0.71069795068E+01  0.16148778132E+02 -0.21803948984E+01  0.17777691492E+02  0.00000000000E+00 0.  1.
</event>
<event>
 7    1  0.5441610E-013  0.5052889E+02  0.7816164E-02  0.1300439E+00
        -11   -1    0    0    0    0  0.00000000000E+00  0.00000000000E+00  0.45593999997E+02  0.45594000000E+02  0.51100000000E-03 0.  1.
         11   -1    0    0    0    0 -0.00000000000E+00 -0.00000000000E+00 -0.45593999997E+02  0.45594000000E+02  0.51100000000E-03 0. -1.
    9900012    2    1    2    0    0 -0.11002170502E+02 -0.37586520614E+02 -0.10925615699E+02  0.50528888278E+02  0.30000086409E+02 0.  0.
        -12    1    1    2    0    0  0.11002170502E+02  0.37586520614E+02  0.10925615699E+02  0.40659111722E+02  0.00000000000E+00 0.  1.
         11    1    3    3    0    0  0.32729402350E+01 -0.15213581687E+02 -0.54142909713E+00  0.15571074185E+02  0.51100000000E-03 0. -1.
        -11    1    3    3    0    0 -0.52211053842E+00 -0.11683142899E+02  0.40078721390E+01  0.12362502448E+02  0.51100000000E-03 0.  1.
         12    1    3    3    0    0 -0.13753000199E+02 -0.10689796027E+02 -0.14392058741E+02  0.22595311646E+02  0.00000000000E+00 0. -1.
</event>
<event>
 7    1  0.5441610E-013  0.5052886E+02  0.7816164E-02  0.1300439E+00
        -11   -1    0    0    0    0  0.00000000000E+00  0.00000000000E+00  0.45593999997E+02  0.45594000000E+02  0.51100000000E-03 0.  1.
         11   -1    0    0    0    0 -0.00000000000E+00 -0.00000000000E+00 -0.45593999997E+02  0.45594000000E+02  0.51100000000E-03 0. -1.
    9900012    2    1    2    0    0 -0.15086441355E+02  0.24945574658E+02 -0.28342251397E+02  0.50528860535E+02  0.30000002081E+02 0.  0.
        -12    1    1    2    0    0  0.15086441355E+02 -0.24945574658E+02  0.28342251397E+02  0.40659139465E+02  0.00000000000E+00 0.  1.
         11    1    3    3    0    0  0.39515654331E+01  0.15656400495E+02 -0.13510878032E+02  0.21054253046E+02  0.51100000000E-03 0. -1.
        -11    1    3    3    0    0 -0.25239599736E+01 -0.27215700932E+01 -0.63669536501E+01  0.73698993728E+01  0.51100000000E-03 0.  1.
         12    1    3    3    0    0 -0.16514046815E+02  0.12010744256E+02 -0.84644197148E+01  0.22104708116E+02  0.00000000000E+00 0. -1.
</event>
<event>
 7    1  0.5441610E-013  0.5052887E+02  0.7816164E-02  0.1300439E+00
        -11   -1    0    0    0    0  0.00000000000E+00  0.00000000000E+00  0.45593999997E+02  0.45594000000E+02  0.51100000000E-03 0. -1.
         11   -1    0    0    0    0 -0.00000000000E+00 -0.00000000000E+00 -0.45593999997E+02  0.45594000000E+02  0.51100000000E-03 0.  1.
    9900012    2    1    2    0    0 -0.36277598109E+02  0.19361820327E+01  0.18257920454E+02  0.50528873291E+02  0.30000040856E+02 0.  0.
        -12    1    1    2    0    0  0.36277598109E+02 -0.19361820327E+01 -0.18257920454E+02  0.40659126709E+02  0.00000000000E+00 0.  1.
         11    1    3    3    0    0 -0.63885573584E+01 -0.42721056656E+01  0.13169394851E+02  0.15247869128E+02  0.51100000000E-03 0. -1.
        -11    1    3    3    0    0 -0.29478395625E+02  0.16756353166E+01  0.70004268984E+01  0.30344514156E+02  0.51100000000E-03 0.  1.
         12    1    3    3    0    0 -0.41064512502E+00  0.45326523816E+01 -0.19119012952E+01  0.49364900075E+01  0.00000000000E+00 0. -1.
</event>
<event>
 7    1  0.5441610E-013  0.5052886E+02  0.7816164E-02  0.1300439E+00
        -11   -1    0    0    0    0  0.00000000000E+00  0.00000000000E+00  0.45593999997E+02  0.45594000000E+02  0.51100000000E-03 0. -1.
         11   -1    0    0    0    0 -0.00000000000E+00 -0.00000000000E+00 -0.45593999997E+02  0.45594000000E+02  0.51100000000E-03 0.  1.
    9900012    2    1    2    0    0  0.14695933120E+02 -0.39394950492E+01  0.37705114786E+02  0.50528858930E+02  0.29999997203E+02 0.  0.
        -12    1    1    2    0    0 -0.14695933120E+02  0.39394950492E+01 -0.37705114786E+02  0.40659141070E+02  0.00000000000E+00 0.  1.
         11    1    3    3    0    0  0.48295195681E+01 -0.61765727506E+01  0.21827867225E+02  0.23193320117E+02  0.51100000000E-03 0. -1.
        -11    1    3    3    0    0 -0.28283419958E+01 -0.62251492430E+01  0.64595141067E+01  0.94062385840E+01  0.51100000000E-03 0.  1.
        -12    1    3    3    0    0  0.12694755548E+02  0.84622269444E+01  0.94177334547E+01  0.17929300229E+02  0.00000000000E+00 0.  1.
</event>
<event>
 7    1  0.5441610E-013  0.5052886E+02  0.7816164E-02  0.1300439E+00
        -11   -1    0    0    0    0  0.00000000000E+00  0.00000000000E+00  0.45593999997E+02  0.45594000000E+02  0.51100000000E-03 0.  1.
         11   -1    0    0    0    0 -0.00000000000E+00 -0.00000000000E+00 -0.45593999997E+02  0.45594000000E+02  0.51100000000E-03 0. -1.
    9900012    2    1    2    0    0  0.23313018977E+02  0.48493875708E+01 -0.32956829348E+02  0.50528855711E+02  0.29999987420E+02 0.  0.
        -12    1    1    2    0    0 -0.23313018977E+02 -0.48493875708E+01  0.32956829348E+02  0.40659144289E+02  0.00000000000E+00 0.  1.
         11    1    3    3    0    0  0.70484404607E+01 -0.37068279429E+01 -0.54996240087E+01  0.96781687743E+01  0.51100000000E-03 0. -1.
        -11    1    3    3    0    0  0.17811244202E+02 -0.26903494787E+01 -0.11889343105E+02  0.21583208290E+02  0.51100000000E-03 0.  1.
        -12    1    3    3    0    0 -0.15466656864E+01  0.11246564992E+02 -0.15567862234E+02  0.19267478647E+02  0.00000000000E+00 0.  1.
</event>
<event>
 7    1  0.5441610E-013  0.5052884E+02  0.7816164E-02  0.1300439E+00
        -11   -1    0    0    0    0  0.00000000000E+00  0.00000000000E+00  0.45593999997E+02  0.45594000000E+02  0.51100000000E-03 0.  1.
         11   -1    0    0    0    0 -0.00000000000E+00 -0.00000000000E+00 -0.45593999997E+02  0.45594000000E+02  0.51100000000E-03 0. -1.
    9900012    2    1    2    0    0  0.27358444101E+02  0.11366407125E+02 -0.27847584658E+02  0.50528835647E+02  0.29999926434E+02 0.  0.
        -12    1    1    2    0    0 -0.27358444101E+02 -0.11366407125E+02  0.27847584658E+02  0.40659164353E+02  0.00000000000E+00 0.  1.
         11    1    3    3    0    0  0.14755438772E+01  0.65159684586E+01 -0.15189548853E+02  0.16593898556E+02  0.51100000000E-03 0. -1.
        -11    1    3    3    0    0  0.17340050358E+02  0.62526287088E+01 -0.16239576497E+02  0.24566166923E+02  0.51100000000E-03 0.  1.
        -12    1    3    3    0    0  0.85428498657E+01 -0.14021900427E+01  0.35815406919E+01  0.93687701685E+01  0.00000000000E+00 0.  1.
</event>
<event>
 7    1  0.5441610E-013  0.5052886E+02  0.7816164E-02  0.1300439E+00
        -11   -1    0    0    0    0  0.00000000000E+00  0.00000000000E+00  0.45593999997E+02  0.45594000000E+02  0.51100000000E-03 0. -1.
         11   -1    0    0    0    0 -0.00000000000E+00 -0.00000000000E+00 -0.45593999997E+02  0.45594000000E+02  0.51100000000E-03 0.  1.
    9900012    2    1    2    0    0  0.34268671751E+02 -0.13717471453E+02  0.17048600873E+02  0.50528859842E+02  0.29999999976E+02 0.  0.
        -12    1    1    2    0    0 -0.34268671751E+02  0.13717471453E+02 -0.17048600873E+02  0.40659140158E+02  0.00000000000E+00 0.  1.
         11    1    3    3    0    0  0.54469167422E+01 -0.84199307768E+01 -0.25156771728E+01  0.10338895888E+02  0.51100000000E-03 0. -1.
        -11    1    3    3    0    0  0.55467780477E+01  0.27172816869E+00 -0.38118204359E+01  0.67357670836E+01  0.51100000000E-03 0.  1.
        -12    1    3    3    0    0  0.23274976961E+02 -0.55692688446E+01  0.23376098482E+02  0.33454196870E+02  0.00000000000E+00 0.  1.
</event>
<event>
 7    1  0.5441610E-013  0.5052885E+02  0.7816164E-02  0.1300439E+00
        -11   -1    0    0    0    0  0.00000000000E+00  0.00000000000E+00  0.45593999997E+02  0.45594000000E+02  0.51100000000E-03 0.  1.
         11   -1    0    0    0    0 -0.00000000000E+00 -0.00000000000E+00 -0.45593999997E+02  0.45594000000E+02  0.51100000000E-03 0. -1.
    9900012    2    1    2    0    0 -0.29483531409E+02  0.27930129402E+02  0.19482564462E+01  0.50528850280E+02  0.29999970912E+02 0.  0.
        -12    1    1    2    0    0  0.29483531409E+02 -0.27930129402E+02 -0.19482564462E+01  0.40659149720E+02  0.00000000000E+00 0.  1.
         11    1    3    3    0    0 -0.11079245217E+02  0.15418054906E+02 -0.31928671770E+01  0.19252545098E+02  0.51100000000E-03 0. -1.
        -11    1    3    3    0    0 -0.19979022209E+01  0.14796083226E+01  0.10501454415E+02  0.10791728275E+02  0.51100000000E-03 0.  1.
         12    1    3    3    0    0 -0.16406383972E+02  0.11032466172E+02 -0.53603307921E+01  0.20484576907E+02  0.00000000000E+00 0. -1.
</event>
<event>
 7    1  0.5441610E-013  0.5052886E+02  0.7816164E-02  0.1300439E+00
        -11   -1    0    0    0    0  0.00000000000E+00  0.00000000000E+00  0.45593999997E+02  0.45594000000E+02  0.51100000000E-03 0.  1.
         11   -1    0    0    0    0 -0.00000000000E+00 -0.00000000000E+00 -0.45593999997E+02  0.45594000000E+02  0.51100000000E-03 0. -1.
    9900012    2    1    2    0    0 -0.54786341453E+01  0.40288149109E+02  0.12322237814E+00  0.50528861120E+02  0.30000003859E+02 0.  0.
        -12    1    1    2    0    0  0.54786341453E+01 -0.40288149109E+02 -0.12322237814E+00  0.40659138880E+02  0.00000000000E+00 0.  1.
         11    1    3    3    0    0  0.40417056671E+01  0.34912376668E+01 -0.11120483668E+01  0.54553438917E+01  0.51100000000E-03 0.  1.
        -11    1    3    3    0    0 -0.49987650075E+01  0.16803949444E+02 -0.11476470615E+02  0.20953991184E+02  0.51100000000E-03 0. -1.
        -12    1    3    3    0    0 -0.45215748049E+01  0.19992961998E+02  0.12711741360E+02  0.24119526044E+02  0.00000000000E+00 0.  1.
</event>
<event>
 7    1  0.5441610E-013  0.5052886E+02  0.7816164E-02  0.1300439E+00
        -11   -1    0    0    0    0  0.00000000000E+00  0.00000000000E+00  0.45593999997E+02  0.45594000000E+02  0.51100000000E-03 0. -1.
         11   -1    0    0    0    0 -0.00000000000E+00 -0.00000000000E+00 -0.45593999997E+02  0.45594000000E+02  0.51100000000E-03 0.  1.
    9900012    2    1    2    0    0 -0.38966747876E+02  0.11148906300E+02 -0.32341845565E+01  0.50528862018E+02  0.30000006590E+02 0.  0.
        -12    1    1    2    0    0  0.38966747876E+02 -0.11148906300E+02  0.32341845565E+01  0.40659137982E+02  0.00000000000E+00 0.  1.
         11    1    3    3    0    0 -0.53144954896E+01 -0.80893764567E+00  0.65519955960E+00  0.54154897422E+01  0.51100000000E-03 0. -1.
        -11    1    3    3    0    0 -0.23826167678E+00  0.92496554305E+01  0.48814648561E+01  0.10461433631E+02  0.51100000000E-03 0.  1.
         12    1    3    3    0    0 -0.33413990709E+02  0.27081885149E+01 -0.87708489722E+01  0.34651938645E+02  0.00000000000E+00 0. -1.
</event>
<event>
 7    1  0.5872911E-013  0.5052883E+02  0.7816164E-02  0.1300439E+00
        -11   -1    0    0    0    0  0.00000000000E+00  0.00000000000E+00  0.45593999997E+02  0.45594000000E+02  0.51100000000E-03 0.  1.
         11   -1    0    0    0    0 -0.00000000000E+00 -0.00000000000E+00 -0.45593999997E+02  0.45594000000E+02  0.51100000000E-03 0. -1.
    9900012    2    1    2    0    0 -0.28267297489E+02  0.28970569728E+02 -0.38515550845E+01  0.50528825214E+02  0.29999894721E+02 0.  0.
        -12    1    1    2    0    0  0.28267297489E+02 -0.28970569728E+02  0.38515550845E+01  0.40659174786E+02  0.00000000000E+00 0.  1.
         11    1    3    3    0    0 -0.10613651538E+02  0.99516976317E+01  0.15135393613E+01  0.14627941974E+02  0.51100000000E-03 0. -1.
        -11    1    3    3    0    0 -0.45057568376E+01  0.21286361026E+02 -0.70821125882E+00  0.21769533156E+02  0.51100000000E-03 0.  1.
        -12    1    3    3    0    0 -0.13147889113E+02 -0.22674889296E+01 -0.46568831869E+01  0.14131350084E+02  0.00000000000E+00 0.  1.
</event>
<event>
 7    1  0.5441610E-013  0.5052889E+02  0.7816164E-02  0.1300439E+00
        -11   -1    0    0    0    0  0.00000000000E+00  0.00000000000E+00  0.45593999997E+02  0.45594000000E+02  0.51100000000E-03 0. -1.
         11   -1    0    0    0    0 -0.00000000000E+00 -0.00000000000E+00 -0.45593999997E+02  0.45594000000E+02  0.51100000000E-03 0.  1.
    9900012    2    1    2    0    0 -0.94373156240E+01 -0.37711412207E+02  0.11914279794E+02  0.50528885403E+02  0.30000077671E+02 0.  0.
        -12    1    1    2    0    0  0.94373156240E+01  0.37711412207E+02 -0.11914279794E+02  0.40659114597E+02  0.00000000000E+00 0.  1.
         11    1    3    3    0    0 -0.11321365131E+02 -0.66131543659E+01  0.37253448820E+01  0.13630308648E+02  0.51100000000E-03 0. -1.
        -11    1    3    3    0    0  0.22253649084E+01 -0.26095421189E+00 -0.33000447758E+01  0.39888145933E+01  0.51100000000E-03 0.  1.
         12    1    3    3    0    0 -0.34131540185E+00 -0.30837303629E+02  0.11488979688E+02  0.32909762162E+02  0.00000000000E+00 0. -1.
</event>
<event>
 7    1  0.5441610E-013  0.5052885E+02  0.7816164E-02  0.1300439E+00
        -11   -1    0    0    0    0  0.00000000000E+00  0.00000000000E+00  0.45593999997E+02  0.45594000000E+02  0.51100000000E-03 0. -1.
         11   -1    0    0    0    0 -0.00000000000E+00 -0.00000000000E+00 -0.45593999997E+02  0.45594000000E+02  0.51100000000E-03 0.  1.
    9900012    2    1    2    0    0  0.32147916617E+01 -0.36446437570E+02  0.17733821490E+02  0.50528854391E+02  0.29999983407E+02 0.  0.
        -12    1    1    2    0    0 -0.32147916617E+01  0.36446437570E+02 -0.17733821490E+02  0.40659145609E+02  0.00000000000E+00 0.  1.
         11    1    3    3    0    0  0.25582516937E+01 -0.19990278941E+01  0.72815762951E+01  0.79725853932E+01  0.51100000000E-03 0. -1.
        -11    1    3    3    0    0  0.76441956462E+01 -0.46390747954E+01 -0.25426278696E+01  0.92962195961E+01  0.51100000000E-03 0.  1.
         12    1    3    3    0    0 -0.69876556782E+01 -0.29808334881E+02  0.12994873065E+02  0.33260049402E+02  0.00000000000E+00 0. -1.
</event>
<event>
 7    1  0.5441610E-013  0.5052886E+02  0.7816164E-02  0.1300439E+00
        -11   -1    0    0    0    0  0.00000000000E+00  0.00000000000E+00  0.45593999997E+02  0.45594000000E+02  0.51100000000E-03 0.  1.
         11   -1    0    0    0    0 -0.00000000000E+00 -0.00000000000E+00 -0.45593999997E+02  0.45594000000E+02  0.51100000000E-03 0. -1.
    9900012    2    1    2    0    0  0.21981245455E+02 -0.12660388298E+02 -0.31775853532E+02  0.50528862634E+02  0.30000008463E+02 0.  0.
        -12    1    1    2    0    0 -0.21981245455E+02  0.12660388298E+02  0.31775853532E+02  0.40659137366E+02  0.00000000000E+00 0.  1.
         11    1    3    3    0    0  0.40826964035E+00  0.27229085036E+01 -0.87746541982E+00  0.28897855703E+01  0.51100000000E-03 0. -1.
        -11    1    3    3    0    0  0.24819036420E+02 -0.18823144926E+02 -0.24230313840E+02  0.39463951434E+02  0.51100000000E-03 0.  1.
         12    1    3    3    0    0 -0.32460606055E+01  0.34398481237E+01 -0.66680742721E+01  0.81751256300E+01  0.00000000000E+00 0. -1.
</event>
<event>
 7    1  0.5441610E-013  0.5052886E+02  0.7816164E-02  0.1300439E+00
        -11   -1    0    0    0    0  0.00000000000E+00  0.00000000000E+00  0.45593999997E+02  0.45594000000E+02  0.51100000000E-03 0.  1.
         11   -1    0    0    0    0 -0.00000000000E+00 -0.00000000000E+00 -0.45593999997E+02  0.45594000000E+02  0.51100000000E-03 0. -1.
    9900012    2    1    2    0    0 -0.59335259354E+01  0.27745638977E+02 -0.29122815423E+02  0.50528860923E+02  0.30000003263E+02 0.  0.
        -12    1    1    2    0    0  0.59335259354E+01 -0.27745638977E+02  0.29122815423E+02  0.40659139077E+02  0.00000000000E+00 0.  1.
         11    1    3    3    0    0  0.22115489521E+01  0.30795769207E+01 -0.50463502220E+01  0.63119247145E+01  0.51100000000E-03 0. -1.
        -11    1    3    3    0    0  0.69302568665E+01  0.15520322479E+02 -0.19758046507E+02  0.26063178473E+02  0.51100000000E-03 0.  1.
         12    1    3    3    0    0 -0.15075331754E+02  0.91457395779E+01 -0.43184186939E+01  0.18153757736E+02  0.00000000000E+00 0. -1.
</event>
<event>
 7    1  0.5441610E-013  0.5052886E+02  0.7816164E-02  0.1300439E+00
        -11   -1    0    0    0    0  0.00000000000E+00  0.00000000000E+00  0.45593999997E+02  0.45594000000E+02  0.51100000000E-03 0.  1.
         11   -1    0    0    0    0 -0.00000000000E+00 -0.00000000000E+00 -0.45593999997E+02  0.45594000000E+02  0.51100000000E-03 0. -1.
    9900012    2    1    2    0    0 -0.23899949968E+00  0.35591368138E+02 -0.19656120403E+02  0.50528859871E+02  0.30000000064E+02 0.  0.
        -12    1    1    2    0    0  0.23899949968E+00 -0.35591368138E+02  0.19656120403E+02  0.40659140129E+02  0.00000000000E+00 0.  1.
         11    1    3    3    0    0  0.61996538801E+01  0.13721112254E+02 -0.19309291233E+02  0.24485778687E+02  0.51100000000E-03 0. -1.
        -11    1    3    3    0    0  0.30719811481E+01  0.11526447703E+02 -0.10428309604E+01  0.11974287515E+02  0.51100000000E-03 0.  1.
        -12    1    3    3    0    0 -0.95106345279E+01  0.10343808182E+02  0.69600178985E+00  0.14068793670E+02  0.00000000000E+00 0.  1.
</event>
<event>
 7    1  0.5441610E-013  0.5052887E+02  0.7816164E-02  0.1300439E+00
        -11   -1    0    0    0    0  0.00000000000E+00  0.00000000000E+00  0.45593999997E+02  0.45594000000E+02  0.51100000000E-03 0. -1.
         11   -1    0    0    0    0 -0.00000000000E+00 -0.00000000000E+00 -0.45593999997E+02  0.45594000000E+02  0.51100000000E-03 0.  1.
    9900012    2    1    2    0    0  0.22937741666E+02 -0.33305118164E+02 -0.42183228309E+01  0.50528866510E+02  0.30000020245E+02 0.  0.
        -12    1    1    2    0    0 -0.22937741666E+02  0.33305118164E+02  0.42183228309E+01  0.40659133490E+02  0.00000000000E+00 0.  1.
         11    1    3    3    0    0  0.12818332249E+02 -0.16304064216E+02 -0.74303786807E+00  0.20752933700E+02  0.51100000000E-03 0. -1.
        -11    1    3    3    0    0  0.16719041168E+02 -0.15105849340E+02 -0.40188848697E+01  0.22888085497E+02  0.51100000000E-03 0.  1.
        -12    1    3    3    0    0 -0.65996317513E+01 -0.18952046078E+01  0.54359990689E+00  0.68878473137E+01  0.00000000000E+00 0.  1.
</event>
<event>
 7    1  0.5441610E-013  0.5052891E+02  0.7816164E-02  0.1300439E+00
        -11   -1    0    0    0    0  0.00000000000E+00  0.00000000000E+00  0.45593999997E+02  0.45594000000E+02  0.51100000000E-03 0. -1.
         11   -1    0    0    0    0 -0.00000000000E+00 -0.00000000000E+00 -0.45593999997E+02  0.45594000000E+02  0.51100000000E-03 0.  1.
    9900012    2    1    2    0    0  0.15368142915E+02  0.29233465713E+02  0.23714676158E+02  0.50528914920E+02  0.30000167391E+02 0.  0.
        -12    1    1    2    0    0 -0.15368142915E+02 -0.29233465713E+02 -0.23714676158E+02  0.40659085080E+02  0.00000000000E+00 0.  1.
         11    1    3    3    0    0 -0.15126544015E+01  0.62682850463E+01  0.56563540907E+01  0.85775207735E+01  0.51100000000E-03 0. -1.
        -11    1    3    3    0    0 -0.42981098027E+01  0.13099003199E+02  0.10714494923E+02  0.17460184261E+02  0.51100000000E-03 0.  1.
        -12    1    3    3    0    0  0.21178907119E+02  0.98661774674E+01  0.73438271436E+01  0.24491209886E+02  0.00000000000E+00 0.  1.
</event>
<event>
 7    1  0.5441610E-013  0.5052886E+02  0.7816164E-02  0.1300439E+00
        -11   -1    0    0    0    0  0.00000000000E+00  0.00000000000E+00  0.45593999997E+02  0.45594000000E+02  0.51100000000E-03 0. -1.
         11   -1    0    0    0    0 -0.00000000000E+00 -0.00000000000E+00 -0.45593999997E+02  0.45594000000E+02  0.51100000000E-03 0.  1.
    9900012    2    1    2    0    0 -0.38857539599E+02 -0.11890377367E+02  0.13697418211E+01  0.50528860187E+02  0.30000001025E+02 0.  0.
        -12    1    1    2    0    0  0.38857539599E+02  0.11890377367E+02 -0.13697418211E+01  0.40659139813E+02  0.00000000000E+00 0.  1.
         11    1    3    3    0    0 -0.28474482411E+00  0.54294539575E+00  0.20094035292E+01  0.21008503330E+01  0.51100000000E-03 0.  1.
        -11    1    3    3    0    0 -0.36390225669E+02 -0.10547591820E+01 -0.32542375008E+01  0.36550664880E+02  0.51100000000E-03 0. -1.
         12    1    3    3    0    0 -0.21825691059E+01 -0.11378563581E+02  0.26145757928E+01  0.11877344974E+02  0.00000000000E+00 0. -1.
</event>
<event>
 7    1  0.5441610E-013  0.5052889E+02  0.7816164E-02  0.1300439E+00
        -11   -1    0    0    0    0  0.00000000000E+00  0.00000000000E+00  0.45593999997E+02  0.45594000000E+02  0.51100000000E-03 0.  1.
         11   -1    0    0    0    0 -0.00000000000E+00 -0.00000000000E+00 -0.45593999997E+02  0.45594000000E+02  0.51100000000E-03 0. -1.
    9900012    2    1    2    0    0  0.10087355987E+02 -0.27392352599E+02 -0.28303137796E+02  0.50528888588E+02  0.30000087351E+02 0.  0.
        -12    1    1    2    0    0 -0.10087355987E+02  0.27392352599E+02  0.28303137796E+02  0.40659111412E+02  0.00000000000E+00 0.  1.
         11    1    3    3    0    0  0.79870270915E+01 -0.13171009235E+02 -0.18292292380E+02  0.23913929974E+02  0.51100000000E-03 0. -1.
        -11    1    3    3    0    0 -0.63036129286E+01 -0.49783800205E+01 -0.11507145038E+02  0.14033324295E+02  0.51100000000E-03 0.  1.
        -12    1    3    3    0    0  0.84039418245E+01 -0.92429633435E+01  0.14962996225E+01  0.12581634318E+02  0.00000000000E+00 0.  1.
</event>
<event>
 7    1  0.5441610E-013  0.5052885E+02  0.7816164E-02  0.1300439E+00
        -11   -1    0    0    0    0  0.00000000000E+00  0.00000000000E+00  0.45593999997E+02  0.45594000000E+02  0.51100000000E-03 0. -1.
         11   -1    0    0    0    0 -0.00000000000E+00 -0.00000000000E+00 -0.45593999997E+02  0.45594000000E+02  0.51100000000E-03 0.  1.
    9900012    2    1    2    0    0 -0.13368394648E+02 -0.26952096714E+02  0.27350263928E+02  0.50528850603E+02  0.29999971893E+02 0.  0.
        -12    1    1    2    0    0  0.13368394648E+02  0.26952096714E+02 -0.27350263928E+02  0.40659149397E+02  0.00000000000E+00 0.  1.
         11    1    3    3    0    0 -0.95754069905E+01 -0.26857923581E+02  0.22504769131E+02  0.36324937880E+02  0.51100000000E-03 0. -1.
        -11    1    3    3    0    0 -0.13760576316E+01 -0.53239859780E+01 -0.14330545087E+01  0.56826056334E+01  0.51100000000E-03 0.  1.
        -12    1    3    3    0    0 -0.24169300259E+01  0.52298128441E+01  0.62785493051E+01  0.85213070893E+01  0.00000000000E+00 0.  1.
</event>
<event>
 7    1  0.5441610E-013  0.5052887E+02  0.7816164E-02  0.1300439E+00
        -11   -1    0    0    0    0  0.00000000000E+00  0.00000000000E+00  0.45593999997E+02  0.45594000000E+02  0.51100000000E-03 0.  1.
         11   -1    0    0    0    0 -0.00000000000E+00 -0.00000000000E+00 -0.45593999997E+02  0.45594000000E+02  0.51100000000E-03 0. -1.
    9900012    2    1    2    0    0 -0.32843068735E+02 -0.15048788131E+02  0.18655616511E+02  0.50528865533E+02  0.30000017275E+02 0.  0.
        -12    1    1    2    0    0  0.32843068735E+02  0.15048788131E+02 -0.18655616511E+02  0.40659134467E+02  0.00000000000E+00 0.  1.
         11    1    3    3    0    0 -0.17352171296E+01 -0.75780358684E+01  0.13093632402E+02  0.15227633298E+02  0.51100000000E-03 0. -1.
        -11    1    3    3    0    0 -0.50407077187E+01  0.36530690434E+01  0.27987395196E+01  0.68254370484E+01  0.51100000000E-03 0.  1.
         12    1    3    3    0    0 -0.26067143887E+02 -0.11123821306E+02  0.27632445892E+01  0.28475795187E+02  0.00000000000E+00 0. -1.
</event>
<event>
 7    1  0.5441610E-013  0.5052886E+02  0.7816164E-02  0.1300439E+00
        -11   -1    0    0    0    0  0.00000000000E+00  0.00000000000E+00  0.45593999997E+02  0.45594000000E+02  0.51100000000E-03 0.  1.
         11   -1    0    0    0    0 -0.00000000000E+00 -0.00000000000E+00 -0.45593999997E+02  0.45594000000E+02  0.51100000000E-03 0. -1.
    9900012    2    1    2    0    0  0.39171899930E+02 -0.31869547291E+01 -0.10419771321E+02  0.50528855162E+02  0.29999985752E+02 0.  0.
        -12    1    1    2    0    0 -0.39171899930E+02  0.31869547291E+01  0.10419771321E+02  0.40659144838E+02  0.00000000000E+00 0.  1.
         11    1    3    3    0    0  0.17546046864E+02 -0.64255445139E+01 -0.14528399275E+02  0.23669088884E+02  0.51100000000E-03 0. -1.
        -11    1    3    3    0    0  0.30388512973E+01  0.69338390803E+01  0.67613522096E+00  0.76006513337E+01  0.51100000000E-03 0.  1.
        -12    1    3    3    0    0  0.18587001768E+02 -0.36952492955E+01  0.34324927326E+01  0.19259114944E+02  0.00000000000E+00 0.  1.
</event>
<event>
 7    1  0.5441610E-013  0.5052886E+02  0.7816164E-02  0.1300439E+00
        -11   -1    0    0    0    0  0.00000000000E+00  0.00000000000E+00  0.45593999997E+02  0.45594000000E+02  0.51100000000E-03 0.  1.
         11   -1    0    0    0    0 -0.00000000000E+00 -0.00000000000E+00 -0.45593999997E+02  0.45594000000E+02  0.51100000000E-03 0. -1.
    9900012    2    1    2    0    0  0.71903959828E+01 -0.21431162447E+02 -0.33795988598E+02  0.50528863714E+02  0.30000011746E+02 0.  0.
        -12    1    1    2    0    0 -0.71903959828E+01  0.21431162447E+02  0.33795988598E+02  0.40659136286E+02  0.00000000000E+00 0.  1.
         11    1    3    3    0    0 -0.53358503863E+01  0.38657692684E+01 -0.56135230777E+01  0.86560448813E+01  0.51100000000E-03 0. -1.
        -11    1    3    3    0    0  0.38616435543E+01 -0.64402820202E+01 -0.85328098681E+00  0.75576194759E+01  0.51100000000E-03 0.  1.
        -12    1    3    3    0    0  0.86646028148E+01 -0.18856649695E+02 -0.27329184533E+02  0.34315199357E+02  0.00000000000E+00 0.  1.
</event>
<event>
 7    1  0.5441610E-013  0.5052886E+02  0.7816164E-02  0.1300439E+00
        -11   -1    0    0    0    0  0.00000000000E+00  0.00000000000E+00  0.45593999997E+02  0.45594000000E+02  0.51100000000E-03 0.  1.
         11   -1    0    0    0    0 -0.00000000000E+00 -0.00000000000E+00 -0.45593999997E+02  0.45594000000E+02  0.51100000000E-03 0. -1.
    9900012    2    1    2    0    0 -0.89721061667E+01  0.77285023228E+01 -0.38896494923E+02  0.50528858906E+02  0.29999997130E+02 0.  0.
        -12    1    1    2    0    0  0.89721061667E+01 -0.77285023228E+01  0.38896494923E+02  0.40659141094E+02  0.00000000000E+00 0.  1.
         11    1    3    3    0    0  0.66696018541E+01  0.62194533346E+01 -0.86821371043E+01  0.12591453198E+02  0.51100000000E-03 0. -1.
        -11    1    3    3    0    0  0.37514171364E+00 -0.36473743116E+01 -0.38143959706E+00  0.36864030031E+01  0.51100000000E-03 0.  1.
         12    1    3    3    0    0 -0.16016849734E+02  0.51564232997E+01 -0.29832918222E+02  0.34251002705E+02  0.00000000000E+00 0. -1.
</event>
<event>
 7    1  0.5441610E-013  0.5052883E+02  0.7816164E-02  0.1300439E+00
        -11   -1    0    0    0    0  0.00000000000E+00  0.00000000000E+00  0.45593999997E+02  0.45594000000E+02  0.51100000000E-03 0. -1.
         11   -1    0    0    0    0 -0.00000000000E+00 -0.00000000000E+00 -0.45593999997E+02  0.45594000000E+02  0.51100000000E-03 0.  1.
    9900012    2    1    2    0    0  0.12466435502E+02 -0.29366579985E+02  0.25206343771E+02  0.50528833746E+02  0.29999920655E+02 0.  0.
        -12    1    1    2    0    0 -0.12466435502E+02  0.29366579985E+02 -0.25206343771E+02  0.40659166254E+02  0.00000000000E+00 0.  1.
         11    1    3    3    0    0  0.10279968028E+02 -0.54651181202E+01  0.18158400265E+02  0.21570182178E+02  0.51100000000E-03 0. -1.
        -11    1    3    3    0    0  0.54039675220E+01 -0.15413373713E+02  0.10307510942E+02  0.19313718862E+02  0.51100000000E-03 0.  1.
        -12    1    3    3    0    0 -0.32175000489E+01 -0.84880881520E+01 -0.32595674361E+01  0.96449327064E+01  0.00000000000E+00 0.  1.
</event>
<event>
 7    1  0.5441610E-013  0.5052885E+02  0.7816164E-02  0.1300439E+00
        -11   -1    0    0    0    0  0.00000000000E+00  0.00000000000E+00  0.45593999997E+02  0.45594000000E+02  0.51100000000E-03 0.  1.
         11   -1    0    0    0    0 -0.00000000000E+00 -0.00000000000E+00 -0.45593999997E+02  0.45594000000E+02  0.51100000000E-03 0. -1.
    9900012    2    1    2    0    0 -0.10685282766E+02 -0.35041069921E+02 -0.17638443076E+02  0.50528849454E+02  0.29999968400E+02 0.  0.
        -12    1    1    2    0    0  0.10685282766E+02  0.35041069921E+02  0.17638443076E+02  0.40659150546E+02  0.00000000000E+00 0.  1.
         11    1    3    3    0    0  0.38877820882E+01 -0.10550894659E+02  0.17126549993E+01  0.11374067658E+02  0.51100000000E-03 0.  1.
        -11    1    3    3    0    0 -0.80321040036E+01 -0.19380704666E+02 -0.22041584273E+02  0.30429555462E+02  0.51100000000E-03 0. -1.
         12    1    3    3    0    0 -0.65409608504E+01 -0.51094705952E+01  0.26904861974E+01  0.87252263345E+01  0.00000000000E+00 0. -1.
</event>
<event>
 7    1  0.5441610E-013  0.5052889E+02  0.7816164E-02  0.1300439E+00
        -11   -1    0    0    0    0  0.00000000000E+00  0.00000000000E+00  0.45593999997E+02  0.45594000000E+02  0.51100000000E-03 0. -1.
         11   -1    0    0    0    0 -0.00000000000E+00 -0.00000000000E+00 -0.45593999997E+02  0.45594000000E+02  0.51100000000E-03 0.  1.
    9900012    2    1    2    0    0 -0.25202313754E+02 -0.29623291027E+02 -0.11851901861E+02  0.50528885799E+02  0.30000078876E+02 0.  0.
        -12    1    1    2    0    0  0.25202313754E+02  0.29623291027E+02  0.11851901861E+02  0.40659114201E+02  0.00000000000E+00 0.  1.
         11    1    3    3    0    0 -0.22119142457E+02 -0.16698977155E+02 -0.93181909034E+00  0.27730499241E+02  0.51100000000E-03 0. -1.
        -11    1    3    3    0    0 -0.27075026150E+01 -0.14426548584E+02 -0.13399812023E+02  0.19874879546E+02  0.51100000000E-03 0.  1.
         12    1    3    3    0    0 -0.37566868215E+00  0.15022347122E+01  0.24797292519E+01  0.29235070125E+01  0.00000000000E+00 0. -1.
</event>
<event>
 7    1  0.5441610E-013  0.5052888E+02  0.7816164E-02  0.1300439E+00
        -11   -1    0    0    0    0  0.00000000000E+00  0.00000000000E+00  0.45593999997E+02  0.45594000000E+02  0.51100000000E-03 0. -1.
         11   -1    0    0    0    0 -0.00000000000E+00 -0.00000000000E+00 -0.45593999997E+02  0.45594000000E+02  0.51100000000E-03 0.  1.
    9900012    2    1    2    0    0 -0.28589895190E+02 -0.27227242674E+02 -0.97190228040E+01  0.50528877348E+02  0.30000053187E+02 0.  0.
        -12    1    1    2    0    0  0.28589895190E+02  0.27227242674E+02  0.97190228040E+01  0.40659122652E+02  0.00000000000E+00 0.  1.
         11    1    3    3    0    0 -0.93683013833E+01 -0.99560039509E+01  0.91500462396E+01  0.16450241090E+02  0.51100000000E-03 0. -1.
        -11    1    3    3    0    0 -0.77193933021E+01 -0.35428463690E+01 -0.63094749685E+00  0.85169764795E+01  0.51100000000E-03 0.  1.
         12    1    3    3    0    0 -0.11502200504E+02 -0.13728392354E+02 -0.18238121547E+02  0.25561659778E+02  0.00000000000E+00 0. -1.
</event>
<event>
 7    1  0.5441610E-013  0.5052886E+02  0.7816164E-02  0.1300439E+00
        -11   -1    0    0    0    0  0.00000000000E+00  0.00000000000E+00  0.45593999997E+02  0.45594000000E+02  0.51100000000E-03 0.  1.
         11   -1    0    0    0    0 -0.00000000000E+00 -0.00000000000E+00 -0.45593999997E+02  0.45594000000E+02  0.51100000000E-03 0. -1.
    9900012    2    1    2    0    0  0.13217538739E+02  0.34895015435E+02 -0.16149298912E+02  0.50528864644E+02  0.30000014573E+02 0.  0.
        -12    1    1    2    0    0 -0.13217538739E+02 -0.34895015435E+02  0.16149298912E+02  0.40659135356E+02  0.00000000000E+00 0.  1.
         11    1    3    3    0    0  0.11963695988E+02  0.53480071658E+01 -0.28318725085E+01  0.13407113951E+02  0.51100000000E-03 0. -1.
        -11    1    3    3    0    0 -0.57275173700E+01  0.65851626819E+01  0.15870083248E+01  0.88705929032E+01  0.51100000000E-03 0.  1.
         12    1    3    3    0    0  0.69813601212E+01  0.22961845587E+02 -0.14904434728E+02  0.28251157790E+02  0.00000000000E+00 0. -1.
</event>
<event>
 7    1  0.5441610E-013  0.5052884E+02  0.7816164E-02  0.1300439E+00
        -11   -1    0    0    0    0  0.00000000000E+00  0.00000000000E+00  0.45593999997E+02  0.45594000000E+02  0.51100000000E-03 0.  1.
         11   -1    0    0    0    0 -0.00000000000E+00 -0.00000000000E+00 -0.45593999997E+02  0.45594000000E+02  0.51100000000E-03 0. -1.
    9900012    2    1    2    0    0  0.20769328408E+02 -0.34949525175E+02  0.57710876816E+00  0.50528839076E+02  0.29999936856E+02 0.  0.
        -12    1    1    2    0    0 -0.20769328408E+02  0.34949525175E+02 -0.57710876816E+00  0.40659160924E+02  0.00000000000E+00 0.  1.
         11    1    3    3    0    0  0.30677996295E+01 -0.97257151535E+01 -0.11551681269E+01  0.10263300808E+02  0.51100000000E-03 0. -1.
        -11    1    3    3    0    0 -0.51261808271E+01  0.79843426668E+00  0.22277719323E+01  0.56460778594E+01  0.51100000000E-03 0.  1.
         12    1    3    3    0    0  0.22827709606E+02 -0.26022244288E+02 -0.49549503726E+00  0.34619460409E+02  0.00000000000E+00 0. -1.
</event>
<event>
 7    1  0.5441610E-013  0.5052885E+02  0.7816164E-02  0.1300439E+00
        -11   -1    0    0    0    0  0.00000000000E+00  0.00000000000E+00  0.45593999997E+02  0.45594000000E+02  0.51100000000E-03 0.  1.
         11   -1    0    0    0    0 -0.00000000000E+00 -0.00000000000E+00 -0.45593999997E+02  0.45594000000E+02  0.51100000000E-03 0. -1.
    9900012    2    1    2    0    0 -0.21104652485E+02 -0.12022099419E+02 -0.32607196356E+02  0.50528849922E+02  0.29999969822E+02 0.  0.
        -12    1    1    2    0    0  0.21104652485E+02  0.12022099419E+02  0.32607196356E+02  0.40659150078E+02  0.00000000000E+00 0.  1.
         11    1    3    3    0    0 -0.88228433984E+01 -0.59641225451E+01 -0.20627117967E+02  0.23214032809E+02  0.51100000000E-03 0. -1.
        -11    1    3    3    0    0  0.27987480190E+01 -0.63334308613E+01 -0.99114032877E+01  0.12090543922E+02  0.51100000000E-03 0.  1.
         12    1    3    3    0    0 -0.15080557105E+02  0.27545398781E+00 -0.20686751009E+01  0.15224273190E+02  0.00000000000E+00 0. -1.
</event>
<event>
 7    1  0.5441610E-013  0.5052886E+02  0.7816164E-02  0.1300439E+00
        -11   -1    0    0    0    0  0.00000000000E+00  0.00000000000E+00  0.45593999997E+02  0.45594000000E+02  0.51100000000E-03 0.  1.
         11   -1    0    0    0    0 -0.00000000000E+00 -0.00000000000E+00 -0.45593999997E+02  0.45594000000E+02  0.51100000000E-03 0. -1.
    9900012    2    1    2    0    0  0.41751657363E+01  0.22099286474E+02 -0.33872632713E+02  0.50528859349E+02  0.29999998478E+02 0.  0.
        -12    1    1    2    0    0 -0.41751657363E+01 -0.22099286474E+02  0.33872632713E+02  0.40659140651E+02  0.00000000000E+00 0.  1.
         11    1    3    3    0    0  0.48563164969E+01  0.16407124588E+02 -0.27662141106E+02  0.32526475339E+02  0.51100000000E-03 0. -1.
        -11    1    3    3    0    0  0.67816605457E+01  0.56611633163E+01 -0.97813083572E+00  0.88879935893E+01  0.51100000000E-03 0.  1.
         12    1    3    3    0    0 -0.74628113064E+01  0.30998569509E-01 -0.52323607708E+01  0.91143904208E+01  0.00000000000E+00 0. -1.
</event>
<event>
 7    1  0.5441610E-013  0.5052877E+02  0.7816164E-02  0.1300439E+00
        -11   -1    0    0    0    0  0.00000000000E+00  0.00000000000E+00  0.45593999997E+02  0.45594000000E+02  0.51100000000E-03 0.  1.
         11   -1    0    0    0    0 -0.00000000000E+00 -0.00000000000E+00 -0.45593999997E+02  0.45594000000E+02  0.51100000000E-03 0. -1.
    9900012    2    1    2    0    0  0.23652665111E+02  0.29522565298E+02 -0.14904440320E+02  0.50528772636E+02  0.29999734903E+02 0.  0.
        -12    1    1    2    0    0 -0.23652665111E+02 -0.29522565298E+02  0.14904440320E+02  0.40659227364E+02  0.00000000000E+00 0.  1.
         11    1    3    3    0    0  0.16935120836E+02  0.31682444403E+02 -0.41743022451E+01  0.36166288178E+02  0.51100000000E-03 0. -1.
        -11    1    3    3    0    0  0.14549423408E+01 -0.71424511733E+00  0.64614521554E+00  0.17448516279E+01  0.51100000000E-03 0.  1.
         12    1    3    3    0    0  0.52626019340E+01 -0.14456339880E+01 -0.11376283290E+02  0.12617632830E+02  0.00000000000E+00 0. -1.
</event>
<event>
 7    1  0.5441610E-013  0.5052887E+02  0.7816164E-02  0.1300439E+00
        -11   -1    0    0    0    0  0.00000000000E+00  0.00000000000E+00  0.45593999997E+02  0.45594000000E+02  0.51100000000E-03 0. -1.
         11   -1    0    0    0    0 -0.00000000000E+00 -0.00000000000E+00 -0.45593999997E+02  0.45594000000E+02  0.51100000000E-03 0.  1.
    9900012    2    1    2    0    0 -0.11027297911E+02 -0.31042414173E+02  0.23831325899E+02  0.50528869770E+02  0.30000030154E+02 0.  0.
        -12    1    1    2    0    0  0.11027297911E+02  0.31042414173E+02 -0.23831325899E+02  0.40659130230E+02  0.00000000000E+00 0.  1.
         11    1    3    3    0    0 -0.84136126323E+00 -0.16625431041E+02  0.12944863272E+02  0.21087492300E+02  0.51100000000E-03 0. -1.
        -11    1    3    3    0    0 -0.16277692052E+01 -0.11098970455E+01 -0.59916049936E+01  0.63072049830E+01  0.51100000000E-03 0.  1.
         12    1    3    3    0    0 -0.85581674421E+01 -0.13307086087E+02  0.16878067620E+02  0.23134172488E+02  0.00000000000E+00 0. -1.
</event>
<event>
 7    1  0.5441610E-013  0.5052887E+02  0.7816164E-02  0.1300439E+00
        -11   -1    0    0    0    0  0.00000000000E+00  0.00000000000E+00  0.45593999997E+02  0.45594000000E+02  0.51100000000E-03 0.  1.
         11   -1    0    0    0    0 -0.00000000000E+00 -0.00000000000E+00 -0.45593999997E+02  0.45594000000E+02  0.51100000000E-03 0. -1.
    9900012    2    1    2    0    0  0.68574636120E+01 -0.32192185984E+02 -0.23870544161E+02  0.50528874036E+02  0.30000043120E+02 0.  0.
        -12    1    1    2    0    0 -0.68574636120E+01  0.32192185984E+02  0.23870544161E+02  0.40659125964E+02  0.00000000000E+00 0.  1.
         11    1    3    3    0    0  0.89484783911E+01 -0.20768762464E+02 -0.15048679074E+02  0.27163937526E+02  0.51100000000E-03 0. -1.
        -11    1    3    3    0    0  0.60839982578E+00 -0.39977404576E+01 -0.13561306450E+02  0.14151364316E+02  0.51100000000E-03 0.  1.
         12    1    3    3    0    0 -0.26994146049E+01 -0.74256830624E+01  0.47394413621E+01  0.92135721942E+01  0.00000000000E+00 0. -1.
</event>
<event>
 7    1  0.5441610E-013  0.5052882E+02  0.7816164E-02  0.1300439E+00
        -11   -1    0    0    0    0  0.00000000000E+00  0.00000000000E+00  0.45593999997E+02  0.45594000000E+02  0.51100000000E-03 0.  1.
         11   -1    0    0    0    0 -0.00000000000E+00 -0.00000000000E+00 -0.45593999997E+02  0.45594000000E+02  0.51100000000E-03 0. -1.
    9900012    2    1    2    0    0  0.13960069115E+02  0.22464669345E+02 -0.30880805120E+02  0.50528818708E+02  0.29999874944E+02 0.  0.
        -12    1    1    2    0    0 -0.13960069115E+02 -0.22464669345E+02  0.30880805120E+02  0.40659181292E+02  0.00000000000E+00 0.  1.
         11    1    3    3    0    0  0.96985506467E+01  0.14469351968E+02 -0.24604228319E+02  0.30146178571E+02  0.51100000000E-03 0. -1.
        -11    1    3    3    0    0 -0.46189521145E+01  0.84311695182E+01 -0.62955787963E+01  0.11491459904E+02  0.51100000000E-03 0.  1.
         12    1    3    3    0    0  0.88804705826E+01 -0.43585214104E+00  0.19001994783E-01  0.88911802328E+01  0.00000000000E+00 0. -1.
</event>
<event>
 7    1  0.5441610E-013  0.5052886E+02  0.7816164E-02  0.1300439E+00
        -11   -1    0    0    0    0  0.00000000000E+00  0.00000000000E+00  0.45593999997E+02  0.45594000000E+02  0.51100000000E-03 0.  1.
         11   -1    0    0    0    0 -0.00000000000E+00 -0.00000000000E+00 -0.45593999997E+02  0.45594000000E+02  0.51100000000E-03 0. -1.
    9900012    2    1    2    0    0 -0.66527461140E+01 -0.26394928950E+02 -0.30202888860E+02  0.50528858339E+02  0.29999995406E+02 0.  0.
        -12    1    1    2    0    0  0.66527461140E+01  0.26394928950E+02  0.30202888860E+02  0.40659141661E+02  0.00000000000E+00 0.  1.
         11    1    3    3    0    0  0.39298644576E+01 -0.16040490902E+02 -0.28321780782E+01  0.16755966578E+02  0.51100000000E-03 0. -1.
        -11    1    3    3    0    0 -0.40741421278E+01 -0.34818367743E+00 -0.19784617769E+00  0.40937769018E+01  0.51100000000E-03 0.  1.
         12    1    3    3    0    0 -0.65084684438E+01 -0.10006254370E+02 -0.27172864604E+02  0.29679114859E+02  0.00000000000E+00 0. -1.
</event>
<event>
 7    1  0.5441610E-013  0.5052886E+02  0.7816164E-02  0.1300439E+00
        -11   -1    0    0    0    0  0.00000000000E+00  0.00000000000E+00  0.45593999997E+02  0.45594000000E+02  0.51100000000E-03 0.  1.
         11   -1    0    0    0    0 -0.00000000000E+00 -0.00000000000E+00 -0.45593999997E+02  0.45594000000E+02  0.51100000000E-03 0. -1.
    9900012    2    1    2    0    0 -0.42266633058E+01  0.75157006012E+01 -0.39734309022E+02  0.50528858940E+02  0.29999997235E+02 0.  0.
        -12    1    1    2    0    0  0.42266633058E+01 -0.75157006012E+01  0.39734309022E+02  0.40659141060E+02  0.00000000000E+00 0.  1.
         11    1    3    3    0    0  0.15187785473E+01 -0.57063080374E+01 -0.42702855571E+01  0.72872476762E+01  0.51100000000E-03 0.  1.
        -11    1    3    3    0    0  0.42675424807E+01  0.12707133806E+02 -0.26903641769E+02  0.30058095566E+02  0.51100000000E-03 0. -1.
         12    1    3    3    0    0 -0.10012984334E+02  0.51487483249E+00 -0.85603816966E+01  0.13183515698E+02  0.00000000000E+00 0. -1.
</event>
<event>
 7    1  0.5441610E-013  0.5052886E+02  0.7816164E-02  0.1300439E+00
        -11   -1    0    0    0    0  0.00000000000E+00  0.00000000000E+00  0.45593999997E+02  0.45594000000E+02  0.51100000000E-03 0. -1.
         11   -1    0    0    0    0 -0.00000000000E+00 -0.00000000000E+00 -0.45593999997E+02  0.45594000000E+02  0.51100000000E-03 0.  1.
    9900012    2    1    2    0    0  0.14876880522E+02  0.32681648710E+02  0.19072335774E+02  0.50528859228E+02  0.29999998109E+02 0.  0.
        -12    1    1    2    0    0 -0.14876880522E+02 -0.32681648710E+02 -0.19072335774E+02  0.40659140772E+02  0.00000000000E+00 0.  1.
         11    1    3    3    0    0 -0.26172035287E+01  0.72908900786E+01  0.60853617301E+01  0.98508101238E+01  0.51100000000E-03 0. -1.
        -11    1    3    3    0    0  0.90030950470E+01  0.26775417100E+02  0.45210760804E+01  0.28608020037E+02  0.51100000000E-03 0.  1.
        -12    1    3    3    0    0  0.84909890038E+01 -0.13846584683E+01  0.84658979635E+01  0.12070029066E+02  0.00000000000E+00 0.  1.
</event>
<event>
 7    1  0.5441610E-013  0.5052884E+02  0.7816164E-02  0.1300439E+00
        -11   -1    0    0    0    0  0.00000000000E+00  0.00000000000E+00  0.45593999997E+02  0.45594000000E+02  0.51100000000E-03 0. -1.
         11   -1    0    0    0    0 -0.00000000000E+00 -0.00000000000E+00 -0.45593999997E+02  0.45594000000E+02  0.51100000000E-03 0.  1.
    9900012    2    1    2    0    0 -0.21632324506E+02  0.31026777066E+02  0.14918063616E+02  0.50528843827E+02  0.29999951295E+02 0.  0.
        -12    1    1    2    0    0  0.21632324506E+02 -0.31026777066E+02 -0.14918063616E+02  0.40659156173E+02  0.00000000000E+00 0.  1.
         11    1    3    3    0    0 -0.28791447436E+01  0.17544246810E+02  0.12907012526E+02  0.21970003259E+02  0.51100000000E-03 0. -1.
        -11    1    3    3    0    0 -0.12777503014E+02  0.17014544731E+02 -0.18287111951E+00  0.21278927552E+02  0.51100000000E-03 0.  1.
         12    1    3    3    0    0 -0.59756767492E+01 -0.35320144741E+01  0.21939222096E+01  0.72799130159E+01  0.00000000000E+00 0. -1.
</event>
<event>
 7    1  0.5441610E-013  0.5052885E+02  0.7816164E-02  0.1300439E+00
        -11   -1    0    0    0    0  0.00000000000E+00  0.00000000000E+00  0.45593999997E+02  0.45594000000E+02  0.51100000000E-03 0.  1.
         11   -1    0    0    0    0 -0.00000000000E+00 -0.00000000000E+00 -0.45593999997E+02  0.45594000000E+02  0.51100000000E-03 0. -1.
    9900012    2    1    2    0    0  0.22624559239E+02 -0.29323202851E+02 -0.16776329733E+02  0.50528854098E+02  0.29999982515E+02 0.  0.
        -12    1    1    2    0    0 -0.22624559239E+02  0.29323202851E+02  0.16776329733E+02  0.40659145902E+02  0.00000000000E+00 0.  1.
         11    1    3    3    0    0  0.14483921726E+02 -0.10121770455E+02 -0.24521028460E+01  0.17839479654E+02  0.51100000000E-03 0. -1.
        -11    1    3    3    0    0  0.31968509507E+01 -0.40487340529E+01  0.53078767097E+01  0.74017335036E+01  0.51100000000E-03 0.  1.
         12    1    3    3    0    0  0.49437865617E+01 -0.15152698343E+02 -0.19632103597E+02  0.25287640940E+02  0.00000000000E+00 0. -1.
</event>
<event>
 7    1  0.5441610E-013  0.5052886E+02  0.7816164E-02  0.1300439E+00
        -11   -1    0    0    0    0  0.00000000000E+00  0.00000000000E+00  0.45593999997E+02  0.45594000000E+02  0.51100000000E-03 0.  1.
         11   -1    0    0    0    0 -0.00000000000E+00 -0.00000000000E+00 -0.45593999997E+02  0.45594000000E+02  0.51100000000E-03 0. -1.
    9900012    2    1    2    0    0  0.28761304188E+02  0.28231336175E+02  0.53800402977E+01  0.50528858415E+02  0.29999995638E+02 0.  0.
        -12    1    1    2    0    0 -0.28761304188E+02 -0.28231336175E+02 -0.53800402977E+01  0.40659141585E+02  0.00000000000E+00 0.  1.
         11    1    3    3    0    0  0.11491258220E+02  0.57108859310E+01  0.13169178353E+02  0.18387237213E+02  0.51100000000E-03 0. -1.
        -11    1    3    3    0    0  0.32607511793E+01 -0.80969499068E+00 -0.30122200993E+01  0.45123801279E+01  0.51100000000E-03 0.  1.
         12    1    3    3    0    0  0.14009294789E+02  0.23330145235E+02 -0.47769179559E+01  0.27629241074E+02  0.00000000000E+00 0. -1.
</event>
<event>
 7    1  0.5441610E-013  0.5052892E+02  0.7816164E-02  0.1300439E+00
        -11   -1    0    0    0    0  0.00000000000E+00  0.00000000000E+00  0.45593999997E+02  0.45594000000E+02  0.51100000000E-03 0. -1.
         11   -1    0    0    0    0 -0.00000000000E+00 -0.00000000000E+00 -0.45593999997E+02  0.45594000000E+02  0.51100000000E-03 0.  1.
    9900012    2    1    2    0    0  0.29666474965E+02 -0.23844353988E+02 -0.14300632342E+02  0.50528916890E+02  0.30000173379E+02 0.  0.
        -12    1    1    2    0    0 -0.29666474965E+02  0.23844353988E+02  0.14300632342E+02  0.40659083110E+02  0.00000000000E+00 0.  1.
         11    1    3    3    0    0 -0.28054624100E+01  0.55419284623E+00 -0.14926767268E+01  0.32258073589E+01  0.51100000000E-03 0. -1.
        -11    1    3    3    0    0  0.11221585619E+02  0.13392397903E+01 -0.73549261900E+01  0.13483786061E+02  0.51100000000E-03 0.  1.
        -12    1    3    3    0    0  0.21250351756E+02 -0.25737786625E+02 -0.54530294247E+01  0.33819323471E+02  0.00000000000E+00 0.  1.
</event>
<event>
 7    1  0.5441610E-013  0.5052886E+02  0.7816164E-02  0.1300439E+00
        -11   -1    0    0    0    0  0.00000000000E+00  0.00000000000E+00  0.45593999997E+02  0.45594000000E+02  0.51100000000E-03 0.  1.
         11   -1    0    0    0    0 -0.00000000000E+00 -0.00000000000E+00 -0.45593999997E+02  0.45594000000E+02  0.51100000000E-03 0. -1.
    9900012    2    1    2    0    0 -0.21154839402E+02  0.14294095160E+02 -0.31643593777E+02  0.50528863097E+02  0.30000009869E+02 0.  0.
        -12    1    1    2    0    0  0.21154839402E+02 -0.14294095160E+02  0.31643593777E+02  0.40659136903E+02  0.00000000000E+00 0.  1.
         11    1    3    3    0    0 -0.12460454425E+01  0.40394558926E+01 -0.42438486797E+01  0.59899987505E+01  0.51100000000E-03 0. -1.
        -11    1    3    3    0    0  0.33877753450E+01 -0.42977579144E+01  0.36254794614E+00  0.54844494850E+01  0.51100000000E-03 0.  1.
         12    1    3    3    0    0 -0.23296569305E+02  0.14552397181E+02 -0.27762293044E+02  0.39054414861E+02  0.00000000000E+00 0. -1.
</event>
<event>
 7    1  0.5441610E-013  0.5052884E+02  0.7816164E-02  0.1300439E+00
        -11   -1    0    0    0    0  0.00000000000E+00  0.00000000000E+00  0.45593999997E+02  0.45594000000E+02  0.51100000000E-03 0.  1.
         11   -1    0    0    0    0 -0.00000000000E+00 -0.00000000000E+00 -0.45593999997E+02  0.45594000000E+02  0.51100000000E-03 0. -1.
    9900012    2    1    2    0    0  0.32340991620E+02  0.20024032925E+01 -0.24560491554E+02  0.50528842319E+02  0.29999946714E+02 0.  0.
        -12    1    1    2    0    0 -0.32340991620E+02 -0.20024032925E+01  0.24560491554E+02  0.40659157681E+02  0.00000000000E+00 0.  1.
         11    1    3    3    0    0  0.29016991575E+01  0.30614675980E+01 -0.66796321998E+01  0.78999954708E+01  0.51100000000E-03 0. -1.
        -11    1    3    3    0    0  0.92013106795E+01 -0.11884161976E+02 -0.31484741026E+01  0.15356116486E+02  0.51100000000E-03 0.  1.
         12    1    3    3    0    0  0.20237981783E+02  0.10825097671E+02 -0.14732385251E+02  0.27272730363E+02  0.00000000000E+00 0. -1.
</event>
<event>
 7    1  0.5441610E-013  0.5052885E+02  0.7816164E-02  0.1300439E+00
        -11   -1    0    0    0    0  0.00000000000E+00  0.00000000000E+00  0.45593999997E+02  0.45594000000E+02  0.51100000000E-03 0.  1.
         11   -1    0    0    0    0 -0.00000000000E+00 -0.00000000000E+00 -0.45593999997E+02  0.45594000000E+02  0.51100000000E-03 0. -1.
    9900012    2    1    2    0    0 -0.31545069173E+02  0.22906818850E+02 -0.11547831753E+02  0.50528853955E+02  0.29999982080E+02 0.  0.
        -12    1    1    2    0    0  0.31545069173E+02 -0.22906818850E+02  0.11547831753E+02  0.40659146045E+02  0.00000000000E+00 0.  1.
         11    1    3    3    0    0 -0.77142233933E+01  0.16662415120E+02 -0.74200830994E+01  0.19804114564E+02  0.51100000000E-03 0. -1.
        -11    1    3    3    0    0 -0.12250472238E+01  0.57765450204E+00 -0.71024349063E+01  0.72304223448E+01  0.51100000000E-03 0.  1.
        -12    1    3    3    0    0 -0.22605798556E+02  0.56667492279E+01  0.29746862529E+01  0.23494317046E+02  0.00000000000E+00 0.  1.
</event>
<event>
 7    1  0.5441610E-013  0.5052886E+02  0.7816164E-02  0.1300439E+00
        -11   -1    0    0    0    0  0.00000000000E+00  0.00000000000E+00  0.45593999997E+02  0.45594000000E+02  0.51100000000E-03 0. -1.
         11   -1    0    0    0    0 -0.00000000000E+00 -0.00000000000E+00 -0.45593999997E+02  0.45594000000E+02  0.51100000000E-03 0.  1.
    9900012    2    1    2    0    0  0.15554176524E+02  0.62740804530E+01  0.37038755323E+02  0.50528857255E+02  0.29999992114E+02 0.  0.
        -12    1    1    2    0    0 -0.15554176524E+02 -0.62740804530E+01 -0.37038755323E+02  0.40659142745E+02  0.00000000000E+00 0.  1.
         11    1    3    3    0    0 -0.24903820475E+01 -0.45024619792E+00  0.99930073566E+01  0.10308487797E+02  0.51100000000E-03 0. -1.
        -11    1    3    3    0    0  0.46528053401E+01  0.82099504343E+01 -0.61056875477E+00  0.94564622419E+01  0.51100000000E-03 0.  1.
         12    1    3    3    0    0  0.13391753232E+02 -0.14856237833E+01  0.27656316721E+02  0.30763907216E+02  0.00000000000E+00 0. -1.
</event>
<event>
 7    1  0.5441610E-013  0.5052887E+02  0.7816164E-02  0.1300439E+00
        -11   -1    0    0    0    0  0.00000000000E+00  0.00000000000E+00  0.45593999997E+02  0.45594000000E+02  0.51100000000E-03 0.  1.
         11   -1    0    0    0    0 -0.00000000000E+00 -0.00000000000E+00 -0.45593999997E+02  0.45594000000E+02  0.51100000000E-03 0. -1.
    9900012    2    1    2    0    0  0.19112559450E+02  0.34722920675E+02 -0.90660815189E+01  0.50528868393E+02  0.30000025967E+02 0.  0.
        -12    1    1    2    0    0 -0.19112559450E+02 -0.34722920675E+02  0.90660815189E+01  0.40659131607E+02  0.00000000000E+00 0.  1.
         11    1    3    3    0    0  0.83347236392E+01  0.21242186669E+02  0.19815378455E+01  0.22904685222E+02  0.51100000000E-03 0. -1.
        -11    1    3    3    0    0 -0.15395058022E+01  0.36843093077E+01  0.41407791710E+01  0.57524138928E+01  0.51100000000E-03 0.  1.
         12    1    3    3    0    0  0.12317341613E+02  0.97964246987E+01 -0.15188398535E+02  0.21871769278E+02  0.00000000000E+00 0. -1.
</event>
<event>
 7    1  0.5451583E-013  0.5052884E+02  0.7816164E-02  0.1300439E+00
        -11   -1    0    0    0    0  0.00000000000E+00  0.00000000000E+00  0.45593999997E+02  0.45594000000E+02  0.51100000000E-03 0. -1.
         11   -1    0    0    0    0 -0.00000000000E+00 -0.00000000000E+00 -0.45593999997E+02  0.45594000000E+02  0.51100000000E-03 0.  1.
    9900012    2    1    2    0    0  0.30195631675E+02 -0.29505409597E+00  0.27226896882E+02  0.50528841831E+02  0.29999945230E+02 0.  0.
        -12    1    1    2    0    0 -0.30195631675E+02  0.29505409597E+00 -0.27226896882E+02  0.40659158169E+02  0.00000000000E+00 0.  1.
         11    1    3    3    0    0  0.19388273897E+02 -0.41957685113E+01  0.22343084303E+02  0.29878471422E+02  0.51100000000E-03 0. -1.
        -11    1    3    3    0    0  0.56059777988E+01  0.58605785787E+01  0.10150899759E+02  0.12992849362E+02  0.51100000000E-03 0.  1.
        -12    1    3    3    0    0  0.52013799796E+01 -0.19598641633E+01 -0.52670871800E+01  0.76575210475E+01  0.00000000000E+00 0.  1.
</event>
<event>
 7    1  0.5441610E-013  0.5052886E+02  0.7816164E-02  0.1300439E+00
        -11   -1    0    0    0    0  0.00000000000E+00  0.00000000000E+00  0.45593999997E+02  0.45594000000E+02  0.51100000000E-03 0. -1.
         11   -1    0    0    0    0 -0.00000000000E+00 -0.00000000000E+00 -0.45593999997E+02  0.45594000000E+02  0.51100000000E-03 0.  1.
    9900012    2    1    2    0    0 -0.23206793945E+02 -0.13537722136E+02  0.30517874298E+02  0.50528857639E+02  0.29999993281E+02 0.  0.
        -12    1    1    2    0    0  0.23206793945E+02  0.13537722136E+02 -0.30517874298E+02  0.40659142361E+02  0.00000000000E+00 0.  1.
         11    1    3    3    0    0 -0.80478449318E+01 -0.49337742976E+01 -0.11409511117E+01  0.95085070630E+01  0.51100000000E-03 0. -1.
        -11    1    3    3    0    0 -0.13906970220E+01 -0.78272343283E+01  0.18294422535E+01  0.81576034874E+01  0.51100000000E-03 0.  1.
         12    1    3    3    0    0 -0.13768251991E+02 -0.77671351015E+00  0.29829383156E+02  0.32862747089E+02  0.00000000000E+00 0. -1.
</event>
<event>
 7    1  0.5441610E-013  0.5052886E+02  0.7816164E-02  0.1300439E+00
        -11   -1    0    0    0    0  0.00000000000E+00  0.00000000000E+00  0.45593999997E+02  0.45594000000E+02  0.51100000000E-03 0. -1.
         11   -1    0    0    0    0 -0.00000000000E+00 -0.00000000000E+00 -0.45593999997E+02  0.45594000000E+02  0.51100000000E-03 0.  1.
    9900012    2    1    2    0    0 -0.29207184276E+02 -0.21597945993E+02  0.18265663121E+02  0.50528864081E+02  0.30000012860E+02 0.  0.
        -12    1    1    2    0    0  0.29207184276E+02  0.21597945993E+02 -0.18265663121E+02  0.40659135919E+02  0.00000000000E+00 0.  1.
         11    1    3    3    0    0 -0.43525551800E+01  0.21049429723E+01  0.29103254734E+01  0.56431831562E+01  0.51100000000E-03 0. -1.
        -11    1    3    3    0    0 -0.47559284083E+01 -0.13812617469E+02 -0.41465231113E+01  0.15185549399E+02  0.51100000000E-03 0.  1.
         12    1    3    3    0    0 -0.20098700688E+02 -0.98902714965E+01  0.19501860759E+02  0.29700131526E+02  0.00000000000E+00 0. -1.
</event>
<event>
 7    1  0.5441610E-013  0.5052886E+02  0.7816164E-02  0.1300439E+00
        -11   -1    0    0    0    0  0.00000000000E+00  0.00000000000E+00  0.45593999997E+02  0.45594000000E+02  0.51100000000E-03 0.  1.
         11   -1    0    0    0    0 -0.00000000000E+00 -0.00000000000E+00 -0.45593999997E+02  0.45594000000E+02  0.51100000000E-03 0. -1.
    9900012    2    1    2    0    0 -0.11852811446E+02  0.34061317332E+02 -0.18775072572E+02  0.50528858006E+02  0.29999994396E+02 0.  0.
        -12    1    1    2    0    0  0.11852811446E+02 -0.34061317332E+02  0.18775072572E+02  0.40659141994E+02  0.00000000000E+00 0.  1.
         11    1    3    3    0    0 -0.45084438539E+00  0.62598138809E+01 -0.79122580456E+01  0.10099126602E+02  0.51100000000E-03 0. -1.
        -11    1    3    3    0    0 -0.17132292921E+01  0.28911496951E+02 -0.61918395202E+01  0.29616696093E+02  0.51100000000E-03 0.  1.
         12    1    3    3    0    0 -0.96887377687E+01 -0.11099935003E+01 -0.46709750064E+01  0.10813035311E+02  0.00000000000E+00 0. -1.
</event>
<event>
 7    1  0.5441610E-013  0.5052886E+02  0.7816164E-02  0.1300439E+00
        -11   -1    0    0    0    0  0.00000000000E+00  0.00000000000E+00  0.45593999997E+02  0.45594000000E+02  0.51100000000E-03 0. -1.
         11   -1    0    0    0    0 -0.00000000000E+00 -0.00000000000E+00 -0.45593999997E+02  0.45594000000E+02  0.51100000000E-03 0.  1.
    9900012    2    1    2    0    0  0.96445466348E+01  0.38368267085E+02 -0.93821451772E+01  0.50528857768E+02  0.29999993673E+02 0.  0.
        -12    1    1    2    0    0 -0.96445466348E+01 -0.38368267085E+02  0.93821451772E+01  0.40659142232E+02  0.00000000000E+00 0.  1.
         11    1    3    3    0    0  0.68936770975E+01  0.28910740632E+01 -0.10262347827E+01  0.75454788618E+01  0.51100000000E-03 0. -1.
        -11    1    3    3    0    0 -0.68200359096E+01  0.10161136319E+02  0.44761503620E+01  0.13030637108E+02  0.51100000000E-03 0.  1.
         12    1    3    3    0    0  0.95709054468E+01  0.25316056702E+02 -0.12832060756E+02  0.29952741799E+02  0.00000000000E+00 0. -1.
</event>
<event>
 7    1  0.5441610E-013  0.5052886E+02  0.7816164E-02  0.1300439E+00
        -11   -1    0    0    0    0  0.00000000000E+00  0.00000000000E+00  0.45593999997E+02  0.45594000000E+02  0.51100000000E-03 0.  1.
         11   -1    0    0    0    0 -0.00000000000E+00 -0.00000000000E+00 -0.45593999997E+02  0.45594000000E+02  0.51100000000E-03 0. -1.
    9900012    2    1    2    0    0  0.46278149377E+01 -0.94479194541E+01 -0.39274497454E+02  0.50528855846E+02  0.29999987828E+02 0.  0.
        -12    1    1    2    0    0 -0.46278149377E+01  0.94479194541E+01  0.39274497454E+02  0.40659144154E+02  0.00000000000E+00 0.  1.
         11    1    3    3    0    0 -0.33784021657E+01  0.95156165826E-01 -0.48519012492E+01  0.59130027804E+01  0.51100000000E-03 0. -1.
        -11    1    3    3    0    0  0.18446208763E+01 -0.13217283668E+02 -0.34961231831E+02  0.37421744282E+02  0.51100000000E-03 0.  1.
         12    1    3    3    0    0  0.61615962271E+01  0.36742080478E+01  0.53863562599E+00  0.71941087830E+01  0.00000000000E+00 0. -1.
</event>
<event>
 7    1  0.5441610E-013  0.5052882E+02  0.7816164E-02  0.1300439E+00
        -11   -1    0    0    0    0  0.00000000000E+00  0.00000000000E+00  0.45593999997E+02  0.45594000000E+02  0.51100000000E-03 0. -1.
         11   -1    0    0    0    0 -0.00000000000E+00 -0.00000000000E+00 -0.45593999997E+02  0.45594000000E+02  0.51100000000E-03 0.  1.
    9900012    2    1    2    0    0 -0.76980543887E+01 -0.48820587014E+01  0.39624159552E+02  0.50528824422E+02  0.29999892312E+02 0.  0.
        -12    1    1    2    0    0  0.76980543887E+01  0.48820587014E+01 -0.39624159552E+02  0.40659175578E+02  0.00000000000E+00 0.  1.
         11    1    3    3    0    0 -0.13013876777E+02 -0.30929934382E+00  0.19746318969E+02  0.23651083864E+02  0.51100000000E-03 0. -1.
        -11    1    3    3    0    0  0.19240483405E+01 -0.68037701362E+01  0.21403226579E+02  0.22540881934E+02  0.51100000000E-03 0.  1.
        -12    1    3    3    0    0  0.33917740474E+01  0.22310107786E+01 -0.15253859973E+01  0.43368586239E+01  0.00000000000E+00 0.  1.
</event>
<event>
 7    1  0.5441610E-013  0.5052885E+02  0.7816164E-02  0.1300439E+00
        -11   -1    0    0    0    0  0.00000000000E+00  0.00000000000E+00  0.45593999997E+02  0.45594000000E+02  0.51100000000E-03 0.  1.
         11   -1    0    0    0    0 -0.00000000000E+00 -0.00000000000E+00 -0.45593999997E+02  0.45594000000E+02  0.51100000000E-03 0. -1.
    9900012    2    1    2    0    0  0.14987078258E+02  0.26973098166E+02 -0.26476511877E+02  0.50528853175E+02  0.29999979710E+02 0.  0.
        -12    1    1    2    0    0 -0.14987078258E+02 -0.26973098166E+02  0.26476511877E+02  0.40659146825E+02  0.00000000000E+00 0.  1.
         11    1    3    3    0    0 -0.36873521669E+01  0.57875932273E+01 -0.80118692442E+01  0.10549068699E+02  0.51100000000E-03 0. -1.
        -11    1    3    3    0    0  0.38898108200E+01  0.19368408745E+02 -0.62620642712E+01  0.20723883196E+02  0.51100000000E-03 0.  1.
        -12    1    3    3    0    0  0.14784619605E+02  0.18170961939E+01 -0.12202578362E+02  0.19255901280E+02  0.00000000000E+00 0.  1.
</event>
<event>
 7    1  0.5441610E-013  0.5052884E+02  0.7816164E-02  0.1300439E+00
        -11   -1    0    0    0    0  0.00000000000E+00  0.00000000000E+00  0.45593999997E+02  0.45594000000E+02  0.51100000000E-03 0.  1.
         11   -1    0    0    0    0 -0.00000000000E+00 -0.00000000000E+00 -0.45593999997E+02  0.45594000000E+02  0.51100000000E-03 0. -1.
    9900012    2    1    2    0    0 -0.27647581550E+02  0.89739229177E+01 -0.28429691609E+02  0.50528838387E+02  0.29999934760E+02 0.  0.
        -12    1    1    2    0    0  0.27647581550E+02 -0.89739229177E+01  0.28429691609E+02  0.40659161613E+02  0.00000000000E+00 0.  1.
         11    1    3    3    0    0 -0.19781379758E+02  0.99665208919E+01 -0.18957754962E+02  0.29155291069E+02  0.51100000000E-03 0. -1.
        -11    1    3    3    0    0 -0.10618268902E+02 -0.65234867803E+01 -0.39104076914E+01  0.13061194541E+02  0.51100000000E-03 0.  1.
         12    1    3    3    0    0  0.27520671106E+01  0.55308888061E+01 -0.55615289559E+01  0.83123527773E+01  0.00000000000E+00 0. -1.
</event>
<event>
 7    1  0.5441610E-013  0.5052887E+02  0.7816164E-02  0.1300439E+00
        -11   -1    0    0    0    0  0.00000000000E+00  0.00000000000E+00  0.45593999997E+02  0.45594000000E+02  0.51100000000E-03 0.  1.
         11   -1    0    0    0    0 -0.00000000000E+00 -0.00000000000E+00 -0.45593999997E+02  0.45594000000E+02  0.51100000000E-03 0. -1.
    9900012    2    1    2    0    0  0.27324937603E+02 -0.29506136815E+02 -0.59917126704E+01  0.50528868854E+02  0.30000027369E+02 0.  0.
        -12    1    1    2    0    0 -0.27324937603E+02  0.29506136815E+02  0.59917126704E+01  0.40659131146E+02  0.00000000000E+00 0.  1.
         11    1    3    3    0    0 -0.51991225132E+01 -0.39167430469E+01 -0.58696087609E+01  0.87649334436E+01  0.51100000000E-03 0. -1.
        -11    1    3    3    0    0  0.39434219194E+01 -0.25661950093E+01  0.17399573676E+01  0.50163119084E+01  0.51100000000E-03 0.  1.
         12    1    3    3    0    0  0.28580638197E+02 -0.23023198759E+02 -0.18620612770E+01  0.36747623502E+02  0.00000000000E+00 0. -1.
</event>
<event>
 7    1  0.5441610E-013  0.5052886E+02  0.7816164E-02  0.1300439E+00
        -11   -1    0    0    0    0  0.00000000000E+00  0.00000000000E+00  0.45593999997E+02  0.45594000000E+02  0.51100000000E-03 0.  1.
         11   -1    0    0    0    0 -0.00000000000E+00 -0.00000000000E+00 -0.45593999997E+02  0.45594000000E+02  0.51100000000E-03 0. -1.
    9900012    2    1    2    0    0 -0.22533065208E+02  0.17653015853E+02 -0.28875557015E+02  0.50528858478E+02  0.29999995829E+02 0.  0.
        -12    1    1    2    0    0  0.22533065208E+02 -0.17653015853E+02  0.28875557015E+02  0.40659141522E+02  0.00000000000E+00 0.  1.
         11    1    3    3    0    0 -0.48301978132E+01  0.58233029807E+01 -0.72427895930E+01  0.10473761018E+02  0.51100000000E-03 0. -1.
        -11    1    3    3    0    0 -0.16732375592E+01  0.95795912113E+01 -0.21796522717E+02  0.23867481948E+02  0.51100000000E-03 0.  1.
        -12    1    3    3    0    0 -0.16029629836E+02  0.22501216610E+01  0.16375529501E+00  0.16187615512E+02  0.00000000000E+00 0.  1.
</event>
<event>
 7    1  0.5441610E-013  0.5052886E+02  0.7816164E-02  0.1300439E+00
        -11   -1    0    0    0    0  0.00000000000E+00  0.00000000000E+00  0.45593999997E+02  0.45594000000E+02  0.51100000000E-03 0. -1.
         11   -1    0    0    0    0 -0.00000000000E+00 -0.00000000000E+00 -0.45593999997E+02  0.45594000000E+02  0.51100000000E-03 0.  1.
    9900012    2    1    2    0    0  0.52361016414E+01 -0.39272545887E+02  0.91332289697E+01  0.50528862131E+02  0.30000006933E+02 0.  0.
        -12    1    1    2    0    0 -0.52361016414E+01  0.39272545887E+02 -0.91332289697E+01  0.40659137869E+02  0.00000000000E+00 0.  1.
         11    1    3    3    0    0 -0.99399358028E+01 -0.13191411717E+02  0.99155142736E+01  0.19264814830E+02  0.51100000000E-03 0. -1.
        -11    1    3    3    0    0  0.22552867475E+01 -0.10621171823E+02  0.16004408012E+01  0.10975291351E+02  0.51100000000E-03 0.  1.
        -12    1    3    3    0    0  0.12920750697E+02 -0.15459962347E+02 -0.23827261051E+01  0.20288755950E+02  0.00000000000E+00 0.  1.
</event>
<event>
 7    1  0.5441610E-013  0.5052887E+02  0.7816164E-02  0.1300439E+00
        -11   -1    0    0    0    0  0.00000000000E+00  0.00000000000E+00  0.45593999997E+02  0.45594000000E+02  0.51100000000E-03 0.  1.
         11   -1    0    0    0    0 -0.00000000000E+00 -0.00000000000E+00 -0.45593999997E+02  0.45594000000E+02  0.51100000000E-03 0. -1.
    9900012    2    1    2    0    0 -0.38381983262E+02 -0.82442809813E+01 -0.10583955946E+02  0.50528869027E+02  0.30000027893E+02 0.  0.
        -12    1    1    2    0    0  0.38381983262E+02  0.82442809813E+01  0.10583955946E+02  0.40659130973E+02  0.00000000000E+00 0.  1.
         11    1    3    3    0    0 -0.20843728254E+02 -0.49316243607E+01 -0.69496541663E+01  0.22518428446E+02  0.51100000000E-03 0. -1.
        -11    1    3    3    0    0 -0.16644979004E+02  0.64412424822E+01 -0.36424599886E+01  0.18215719743E+02  0.51100000000E-03 0.  1.
         12    1    3    3    0    0 -0.89327600464E+00 -0.97538991029E+01  0.81582086023E-02  0.97947208376E+01  0.00000000000E+00 0. -1.
</event>
<event>
 7    1  0.5441610E-013  0.5052886E+02  0.7816164E-02  0.1300439E+00
        -11   -1    0    0    0    0  0.00000000000E+00  0.00000000000E+00  0.45593999997E+02  0.45594000000E+02  0.51100000000E-03 0.  1.
         11   -1    0    0    0    0 -0.00000000000E+00 -0.00000000000E+00 -0.45593999997E+02  0.45594000000E+02  0.51100000000E-03 0. -1.
    9900012    2    1    2    0    0 -0.18928410305E+01  0.30697666096E+02 -0.26593910421E+02  0.50528860530E+02  0.30000002068E+02 0.  0.
        -12    1    1    2    0    0  0.18928410305E+01 -0.30697666096E+02  0.26593910421E+02  0.40659139470E+02  0.00000000000E+00 0.  1.
         11    1    3    3    0    0 -0.11028824922E+02  0.17869390668E+02 -0.25506652776E+02  0.33038453930E+02  0.51100000000E-03 0. -1.
        -11    1    3    3    0    0  0.47341819806E+00 -0.38253536664E+00  0.13734434799E+01  0.15022667375E+01  0.51100000000E-03 0.  1.
        -12    1    3    3    0    0  0.86625656932E+01  0.13210810795E+02 -0.24607011251E+01  0.15988139863E+02  0.00000000000E+00 0.  1.
</event>
<event>
 7    1  0.5441610E-013  0.5052886E+02  0.7816164E-02  0.1300439E+00
        -11   -1    0    0    0    0  0.00000000000E+00  0.00000000000E+00  0.45593999997E+02  0.45594000000E+02  0.51100000000E-03 0.  1.
         11   -1    0    0    0    0 -0.00000000000E+00 -0.00000000000E+00 -0.45593999997E+02  0.45594000000E+02  0.51100000000E-03 0. -1.
    9900012    2    1    2    0    0  0.38592773484E+02  0.11128884777E+02  0.63175360771E+01  0.50528861990E+02  0.30000006506E+02 0.  0.
        -12    1    1    2    0    0 -0.38592773484E+02 -0.11128884777E+02 -0.63175360771E+01  0.40659138010E+02  0.00000000000E+00 0.  1.
         11    1    3    3    0    0  0.20474967677E+02  0.93694578597E+01 -0.24244963285E+01  0.22647057748E+02  0.51100000000E-03 0. -1.
        -11    1    3    3    0    0  0.14123741542E+02 -0.42602566221E+01 -0.20509925831E+01  0.14894174447E+02  0.51100000000E-03 0.  1.
         12    1    3    3    0    0  0.39940642659E+01  0.60196835396E+01  0.10793024989E+02  0.12987629795E+02  0.00000000000E+00 0. -1.
</event>
<event>
 7    1  0.5441610E-013  0.5052886E+02  0.7816164E-02  0.1300439E+00
        -11   -1    0    0    0    0  0.00000000000E+00  0.00000000000E+00  0.45593999997E+02  0.45594000000E+02  0.51100000000E-03 0.  1.
         11   -1    0    0    0    0 -0.00000000000E+00 -0.00000000000E+00 -0.45593999997E+02  0.45594000000E+02  0.51100000000E-03 0. -1.
    9900012    2    1    2    0    0  0.36490102609E+02 -0.15410667393E+02 -0.91733061108E+01  0.50528858310E+02  0.29999995320E+02 0.  0.
        -12    1    1    2    0    0 -0.36490102609E+02  0.15410667393E+02  0.91733061108E+01  0.40659141690E+02  0.00000000000E+00 0.  1.
         11    1    3    3    0    0  0.30560248390E+02 -0.10191572969E+02  0.77104511675E+00  0.32224081865E+02  0.51100000000E-03 0. -1.
        -11    1    3    3    0    0  0.74940529559E+01 -0.86778804433E+01 -0.65064083723E+01  0.13183314790E+02  0.51100000000E-03 0.  1.
        -12    1    3    3    0    0 -0.15641987362E+01  0.34587860186E+01 -0.34379428553E+01  0.51214616551E+01  0.00000000000E+00 0.  1.
</event>
<event>
 7    1  0.5441610E-013  0.5052886E+02  0.7816164E-02  0.1300439E+00
        -11   -1    0    0    0    0  0.00000000000E+00  0.00000000000E+00  0.45593999997E+02  0.45594000000E+02  0.51100000000E-03 0.  1.
         11   -1    0    0    0    0 -0.00000000000E+00 -0.00000000000E+00 -0.45593999997E+02  0.45594000000E+02  0.51100000000E-03 0. -1.
    9900012    2    1    2    0    0  0.15962149055E+02 -0.29344413264E+01 -0.37279543524E+02  0.50528861867E+02  0.30000006130E+02 0.  0.
        -12    1    1    2    0    0 -0.15962149055E+02  0.29344413264E+01  0.37279543524E+02  0.40659138133E+02  0.00000000000E+00 0.  1.
         11    1    3    3    0    0 -0.96745367134E+00 -0.39639012682E+00 -0.24761568258E+02  0.24783630779E+02  0.51100000000E-03 0. -1.
        -11    1    3    3    0    0 -0.21230376572E+01 -0.90186439592E+00  0.80042510604E+00  0.24415832761E+01  0.51100000000E-03 0.  1.
         12    1    3    3    0    0  0.19052640383E+02 -0.16361868036E+01 -0.13318400372E+02  0.23303647811E+02  0.00000000000E+00 0. -1.
</event>
<event>
 7    1  0.5441610E-013  0.5052884E+02  0.7816164E-02  0.1300439E+00
        -11   -1    0    0    0    0  0.00000000000E+00  0.00000000000E+00  0.45593999997E+02  0.45594000000E+02  0.51100000000E-03 0.  1.
         11   -1    0    0    0    0 -0.00000000000E+00 -0.00000000000E+00 -0.45593999997E+02  0.45594000000E+02  0.51100000000E-03 0. -1.
    9900012    2    1    2    0    0  0.34774933020E+02  0.24017000457E+01 -0.20930910379E+02  0.50528841881E+02  0.29999945382E+02 0.  0.
        -12    1    1    2    0    0 -0.34774933020E+02 -0.24017000457E+01  0.20930910379E+02  0.40659158119E+02  0.00000000000E+00 0.  1.
         11    1    3    3    0    0  0.18514695180E+02 -0.34441379463E+01 -0.89395128923E+01  0.20846364547E+02  0.51100000000E-03 0. -1.
        -11    1    3    3    0    0  0.12545786210E+02  0.77791053722E+01  0.21650102030E+01  0.14919735301E+02  0.51100000000E-03 0.  1.
        -12    1    3    3    0    0  0.37144516302E+01 -0.19332673802E+01 -0.14156407689E+02  0.14762742033E+02  0.00000000000E+00 0.  1.
</event>
<event>
 7    1  0.5441610E-013  0.5052886E+02  0.7816164E-02  0.1300439E+00
        -11   -1    0    0    0    0  0.00000000000E+00  0.00000000000E+00  0.45593999997E+02  0.45594000000E+02  0.51100000000E-03 0.  1.
         11   -1    0    0    0    0 -0.00000000000E+00 -0.00000000000E+00 -0.45593999997E+02  0.45594000000E+02  0.51100000000E-03 0. -1.
    9900012    2    1    2    0    0  0.10573663725E+02 -0.38621961267E+02 -0.70503426153E+01  0.50528860958E+02  0.30000003367E+02 0.  0.
        -12    1    1    2    0    0 -0.10573663725E+02  0.38621961267E+02  0.70503426153E+01  0.40659139042E+02  0.00000000000E+00 0.  1.
         11    1    3    3    0    0 -0.10054556130E+01 -0.23850394505E+02 -0.43208646988E+01  0.24259475078E+02  0.51100000000E-03 0. -1.
        -11    1    3    3    0    0  0.51979902435E+01 -0.14301555642E+02  0.51995551028E+01  0.16080701785E+02  0.51100000000E-03 0.  1.
        -12    1    3    3    0    0  0.63811290946E+01 -0.47001111963E+00 -0.79290330194E+01  0.10188684095E+02  0.00000000000E+00 0.  1.
</event>
<event>
 7    1  0.5441610E-013  0.5052886E+02  0.7816164E-02  0.1300439E+00
        -11   -1    0    0    0    0  0.00000000000E+00  0.00000000000E+00  0.45593999997E+02  0.45594000000E+02  0.51100000000E-03 0.  1.
         11   -1    0    0    0    0 -0.00000000000E+00 -0.00000000000E+00 -0.45593999997E+02  0.45594000000E+02  0.51100000000E-03 0. -1.
    9900012    2    1    2    0    0 -0.11737711010E+02  0.37530704816E+02 -0.10336240437E+02  0.50528861665E+02  0.30000005517E+02 0.  0.
        -12    1    1    2    0    0  0.11737711010E+02 -0.37530704816E+02  0.10336240437E+02  0.40659138335E+02  0.00000000000E+00 0.  1.
         11    1    3    3    0    0  0.38888148348E+01  0.41916377612E+01 -0.23606549281E+01  0.61859033205E+01  0.51100000000E-03 0. -1.
        -11    1    3    3    0    0 -0.81126580365E+01  0.64486953570E+01  0.71481625652E+01  0.12589563954E+02  0.51100000000E-03 0.  1.
         12    1    3    3    0    0 -0.75138678086E+01  0.26890371698E+02 -0.15123748074E+02  0.31753394391E+02  0.00000000000E+00 0. -1.
</event>
<event>
 7    1  0.5441610E-013  0.5052887E+02  0.7816164E-02  0.1300439E+00
        -11   -1    0    0    0    0  0.00000000000E+00  0.00000000000E+00  0.45593999997E+02  0.45594000000E+02  0.51100000000E-03 0.  1.
         11   -1    0    0    0    0 -0.00000000000E+00 -0.00000000000E+00 -0.45593999997E+02  0.45594000000E+02  0.51100000000E-03 0. -1.
    9900012    2    1    2    0    0 -0.17177602644E-01 -0.33592542652E+02 -0.22906461802E+02  0.50528865612E+02  0.30000017515E+02 0.  0.
        -12    1    1    2    0    0  0.17177602644E-01  0.33592542652E+02  0.22906461802E+02  0.40659134388E+02  0.00000000000E+00 0.  1.
         11    1    3    3    0    0 -0.41053299378E+01 -0.16849578823E+02 -0.61250544255E+01  0.18392344396E+02  0.51100000000E-03 0. -1.
        -11    1    3    3    0    0  0.56567198804E+01  0.21045833015E+01  0.10698658101E+01  0.61296299881E+01  0.51100000000E-03 0.  1.
         12    1    3    3    0    0 -0.15685675453E+01 -0.18847547130E+02 -0.17851273187E+02  0.26006891228E+02  0.00000000000E+00 0. -1.
</event>
<event>
 7    1  0.5441610E-013  0.5052886E+02  0.7816164E-02  0.1300439E+00
        -11   -1    0    0    0    0  0.00000000000E+00  0.00000000000E+00  0.45593999997E+02  0.45594000000E+02  0.51100000000E-03 0. -1.
         11   -1    0    0    0    0 -0.00000000000E+00 -0.00000000000E+00 -0.45593999997E+02  0.45594000000E+02  0.51100000000E-03 0.  1.
    9900012    2    1    2    0    0 -0.24809507193E+02  0.12478522483E+02  0.29697482768E+02  0.50528860151E+02  0.30000000913E+02 0.  0.
        -12    1    1    2    0    0  0.24809507193E+02 -0.12478522483E+02 -0.29697482768E+02  0.40659139849E+02  0.00000000000E+00 0.  1.
         11    1    3    3    0    0  0.61932298993E+00  0.37051004814E+01  0.14847624448E+02  0.15315458940E+02  0.51100000000E-03 0. -1.
        -11    1    3    3    0    0 -0.24474450271E+01  0.84152824122E+01  0.24609875295E+01  0.91029349728E+01  0.51100000000E-03 0.  1.
        -12    1    3    3    0    0 -0.22981385156E+02  0.35813958948E+00  0.12388870790E+02  0.26110466237E+02  0.00000000000E+00 0.  1.
</event>
<event>
 7    1  0.5441610E-013  0.5052887E+02  0.7816164E-02  0.1300439E+00
        -11   -1    0    0    0    0  0.00000000000E+00  0.00000000000E+00  0.45593999997E+02  0.45594000000E+02  0.51100000000E-03 0.  1.
         11   -1    0    0    0    0 -0.00000000000E+00 -0.00000000000E+00 -0.45593999997E+02  0.45594000000E+02  0.51100000000E-03 0. -1.
    9900012    2    1    2    0    0  0.18102231322E+02 -0.31341422291E+02  0.18525359734E+02  0.50528874538E+02  0.30000044646E+02 0.  0.
        -12    1    1    2    0    0 -0.18102231322E+02  0.31341422291E+02 -0.18525359734E+02  0.40659125462E+02  0.00000000000E+00 0.  1.
         11    1    3    3    0    0 -0.31651517710E+01  0.21108880065E+01 -0.19152272064E+01  0.42593578651E+01  0.51100000000E-03 0.  1.
        -11    1    3    3    0    0  0.65577102080E+01 -0.20407807802E+02  0.73980605408E+01  0.22676275763E+02  0.51100000000E-03 0. -1.
        -12    1    3    3    0    0  0.14709672885E+02 -0.13044502496E+02  0.13042526400E+02  0.23593240910E+02  0.00000000000E+00 0.  1.
</event>
<event>
 7    1  0.5441610E-013  0.5052886E+02  0.7816164E-02  0.1300439E+00
        -11   -1    0    0    0    0  0.00000000000E+00  0.00000000000E+00  0.45593999997E+02  0.45594000000E+02  0.51100000000E-03 0.  1.
         11   -1    0    0    0    0 -0.00000000000E+00 -0.00000000000E+00 -0.45593999997E+02  0.45594000000E+02  0.51100000000E-03 0. -1.
    9900012    2    1    2    0    0 -0.53864809621E+01  0.32341056049E+02 -0.24045943140E+02  0.50528862466E+02  0.30000007950E+02 0.  0.
        -12    1    1    2    0    0  0.53864809621E+01 -0.32341056049E+02  0.24045943140E+02  0.40659137534E+02  0.00000000000E+00 0.  1.
         11    1    3    3    0    0 -0.32691694817E+01  0.17320838657E+02  0.14628929868E+01  0.17687254649E+02  0.51100000000E-03 0. -1.
        -11    1    3    3    0    0  0.44974895241E+01  0.80494686876E+00 -0.88812504276E+01  0.99875903451E+01  0.51100000000E-03 0.  1.
         12    1    3    3    0    0 -0.66148010046E+01  0.14215270524E+02 -0.16627585699E+02  0.22854017471E+02  0.00000000000E+00 0. -1.
</event>
<event>
 7    1  0.5441610E-013  0.5052886E+02  0.7816164E-02  0.1300439E+00
        -11   -1    0    0    0    0  0.00000000000E+00  0.00000000000E+00  0.45593999997E+02  0.45594000000E+02  0.51100000000E-03 0. -1.
         11   -1    0    0    0    0 -0.00000000000E+00 -0.00000000000E+00 -0.45593999997E+02  0.45594000000E+02  0.51100000000E-03 0.  1.
    9900012    2    1    2    0    0 -0.25711029335E+02  0.30688153728E+02  0.70954775273E+01  0.50528860683E+02  0.30000002531E+02 0.  0.
        -12    1    1    2    0    0  0.25711029335E+02 -0.30688153728E+02 -0.70954775273E+01  0.40659139317E+02  0.00000000000E+00 0.  1.
         11    1    3    3    0    0 -0.12203068879E+02  0.19611394746E+02 -0.77179890870E+01  0.24353419673E+02  0.51100000000E-03 0. -1.
        -11    1    3    3    0    0 -0.57422348791E+01  0.46054350579E+01 -0.97802685962E+00  0.74256198583E+01  0.51100000000E-03 0.  1.
        -12    1    3    3    0    0 -0.77657255771E+01  0.64713239234E+01  0.15791493474E+02  0.18749821151E+02  0.00000000000E+00 0.  1.
</event>
<event>
 7    1  0.5441610E-013  0.5052886E+02  0.7816164E-02  0.1300439E+00
        -11   -1    0    0    0    0  0.00000000000E+00  0.00000000000E+00  0.45593999997E+02  0.45594000000E+02  0.51100000000E-03 0.  1.
         11   -1    0    0    0    0 -0.00000000000E+00 -0.00000000000E+00 -0.45593999997E+02  0.45594000000E+02  0.51100000000E-03 0. -1.
    9900012    2    1    2    0    0 -0.36818505169E+01  0.25513612468E+02 -0.31443049429E+02  0.50528858324E+02  0.29999995361E+02 0.  0.
        -12    1    1    2    0    0  0.36818505169E+01 -0.25513612468E+02  0.31443049429E+02  0.40659141676E+02  0.00000000000E+00 0.  1.
         11    1    3    3    0    0  0.17770403843E+01  0.16778914768E+02 -0.18575715849E+01  0.16974699578E+02  0.51100000000E-03 0. -1.
        -11    1    3    3    0    0 -0.42417863088E+01  0.89525703516E+01 -0.10526256574E+02  0.14454872698E+02  0.51100000000E-03 0.  1.
        -12    1    3    3    0    0 -0.12171045924E+01 -0.21787265128E+00 -0.19059221271E+02  0.19099286048E+02  0.00000000000E+00 0.  1.
</event>
<event>
 7    1  0.5441610E-013  0.5052886E+02  0.7816164E-02  0.1300439E+00
        -11   -1    0    0    0    0  0.00000000000E+00  0.00000000000E+00  0.45593999997E+02  0.45594000000E+02  0.51100000000E-03 0. -1.
         11   -1    0    0    0    0 -0.00000000000E+00 -0.00000000000E+00 -0.45593999997E+02  0.45594000000E+02  0.51100000000E-03 0.  1.
    9900012    2    1    2    0    0  0.40913141223E+01  0.27214402180E+02  0.29929976705E+02  0.50528855361E+02  0.29999986354E+02 0.  0.
        -12    1    1    2    0    0 -0.40913141223E+01 -0.27214402180E+02 -0.29929976705E+02  0.40659144639E+02  0.00000000000E+00 0.  1.
         11    1    3    3    0    0  0.71280053539E-01  0.12196202445E+02  0.89492124351E+01  0.15127486189E+02  0.51100000000E-03 0. -1.
        -11    1    3    3    0    0  0.78135384038E+01  0.14152977663E+02  0.23115407349E+01  0.16330994457E+02  0.51100000000E-03 0.  1.
        -12    1    3    3    0    0 -0.37935043351E+01  0.86522207202E+00  0.18669223535E+02  0.19070374715E+02  0.00000000000E+00 0.  1.
</event>
<event>
 7    1  0.5441610E-013  0.5052887E+02  0.7816164E-02  0.1300439E+00
        -11   -1    0    0    0    0  0.00000000000E+00  0.00000000000E+00  0.45593999997E+02  0.45594000000E+02  0.51100000000E-03 0.  1.
         11   -1    0    0    0    0 -0.00000000000E+00 -0.00000000000E+00 -0.45593999997E+02  0.45594000000E+02  0.51100000000E-03 0. -1.
    9900012    2    1    2    0    0  0.23606576896E+02 -0.28036716435E+02 -0.17602179785E+02  0.50528872188E+02  0.30000037504E+02 0.  0.
        -12    1    1    2    0    0 -0.23606576896E+02  0.28036716435E+02  0.17602179785E+02  0.40659127812E+02  0.00000000000E+00 0.  1.
         11    1    3    3    0    0  0.91011158743E+01 -0.17487855547E+02 -0.25682585413E+01  0.19880929404E+02  0.51100000000E-03 0. -1.
        -11    1    3    3    0    0  0.12907660865E+01 -0.12366332754E+02 -0.11287182766E+02  0.16792639993E+02  0.51100000000E-03 0.  1.
        -12    1    3    3    0    0  0.13214694935E+02  0.18174718659E+01 -0.37467384781E+01  0.13855302791E+02  0.00000000000E+00 0.  1.
</event>
<event>
 7    1  0.5441610E-013  0.5052885E+02  0.7816164E-02  0.1300439E+00
        -11   -1    0    0    0    0  0.00000000000E+00  0.00000000000E+00  0.45593999997E+02  0.45594000000E+02  0.51100000000E-03 0. -1.
         11   -1    0    0    0    0 -0.00000000000E+00 -0.00000000000E+00 -0.45593999997E+02  0.45594000000E+02  0.51100000000E-03 0.  1.
    9900012    2    1    2    0    0 -0.28777263336E+02 -0.19189017483E+02 -0.21373290407E+02  0.50528845805E+02  0.29999957309E+02 0.  0.
        -12    1    1    2    0    0  0.28777263336E+02  0.19189017483E+02  0.21373290407E+02  0.40659154195E+02  0.00000000000E+00 0.  1.
         11    1    3    3    0    0 -0.12430314847E+02 -0.37898492863E-01 -0.13201296408E+02  0.18132523007E+02  0.51100000000E-03 0. -1.
        -11    1    3    3    0    0 -0.10234511818E+01  0.15700930162E+01  0.36035982588E+01  0.40618425711E+01  0.51100000000E-03 0.  1.
         12    1    3    3    0    0 -0.15323497307E+02 -0.20721212006E+02 -0.11775592258E+02  0.28334480227E+02  0.00000000000E+00 0. -1.
</event>
<event>
 7    1  0.5441610E-013  0.5052877E+02  0.7816164E-02  0.1300439E+00
        -11   -1    0    0    0    0  0.00000000000E+00  0.00000000000E+00  0.45593999997E+02  0.45594000000E+02  0.51100000000E-03 0.  1.
         11   -1    0    0    0    0 -0.00000000000E+00 -0.00000000000E+00 -0.45593999997E+02  0.45594000000E+02  0.51100000000E-03 0. -1.
    9900012    2    1    2    0    0  0.13555564341E+01  0.27389587329E+02 -0.30019089258E+02  0.50528772914E+02  0.29999735749E+02 0.  0.
        -12    1    1    2    0    0 -0.13555564341E+01 -0.27389587329E+02  0.30019089258E+02  0.40659227086E+02  0.00000000000E+00 0.  1.
         11    1    3    3    0    0  0.55220239920E+01  0.23191225126E+02 -0.18726560309E+02  0.30315173315E+02  0.51100000000E-03 0. -1.
        -11    1    3    3    0    0  0.42807074665E+00  0.64322349582E+01  0.13425345961E+01  0.65847771811E+01  0.51100000000E-03 0.  1.
         12    1    3    3    0    0 -0.45945383046E+01 -0.22338727556E+01 -0.12635063545E+02  0.13628822418E+02  0.00000000000E+00 0. -1.
</event>
<event>
 7    1  0.5441610E-013  0.5052886E+02  0.7816164E-02  0.1300439E+00
        -11   -1    0    0    0    0  0.00000000000E+00  0.00000000000E+00  0.45593999997E+02  0.45594000000E+02  0.51100000000E-03 0.  1.
         11   -1    0    0    0    0 -0.00000000000E+00 -0.00000000000E+00 -0.45593999997E+02  0.45594000000E+02  0.51100000000E-03 0. -1.
    9900012    2    1    2    0    0 -0.49635910431E+01  0.13184802644E+02 -0.38140386242E+02  0.50528864255E+02  0.30000013390E+02 0.  0.
        -12    1    1    2    0    0  0.49635910431E+01 -0.13184802644E+02  0.38140386242E+02  0.40659135745E+02  0.00000000000E+00 0.  1.
         11    1    3    3    0    0 -0.38945059695E+01  0.12019621952E+02 -0.21331392029E+02  0.24792474156E+02  0.51100000000E-03 0. -1.
        -11    1    3    3    0    0  0.70749091539E+01  0.13781787242E+01 -0.16001146235E+02  0.17549655189E+02  0.51100000000E-03 0.  1.
        -12    1    3    3    0    0 -0.81439942276E+01 -0.21299803242E+00 -0.80784797802E+00  0.81867349106E+01  0.00000000000E+00 0.  1.
</event>
<event>
 7    1  0.5441610E-013  0.5052885E+02  0.7816164E-02  0.1300439E+00
        -11   -1    0    0    0    0  0.00000000000E+00  0.00000000000E+00  0.45593999997E+02  0.45594000000E+02  0.51100000000E-03 0. -1.
         11   -1    0    0    0    0 -0.00000000000E+00 -0.00000000000E+00 -0.45593999997E+02  0.45594000000E+02  0.51100000000E-03 0.  1.
    9900012    2    1    2    0    0  0.10884107701E+02  0.35482476675E+02  0.16604109193E+02  0.50528851047E+02  0.29999973244E+02 0.  0.
        -12    1    1    2    0    0 -0.10884107701E+02 -0.35482476675E+02 -0.16604109193E+02  0.40659148953E+02  0.00000000000E+00 0.  1.
         11    1    3    3    0    0  0.10309572317E+02  0.22534887648E+02  0.52127626787E+00  0.24786693444E+02  0.51100000000E-03 0. -1.
        -11    1    3    3    0    0 -0.31944799546E+01 -0.10089943906E+01 -0.87115997668E+00  0.34614580493E+01  0.51100000000E-03 0.  1.
        -12    1    3    3    0    0  0.37690153390E+01  0.13956583418E+02  0.16953992901E+02  0.22280699554E+02  0.00000000000E+00 0.  1.
</event>
<event>
 7    1  0.5441610E-013  0.5052886E+02  0.7816164E-02  0.1300439E+00
        -11   -1    0    0    0    0  0.00000000000E+00  0.00000000000E+00  0.45593999997E+02  0.45594000000E+02  0.51100000000E-03 0.  1.
         11   -1    0    0    0    0 -0.00000000000E+00 -0.00000000000E+00 -0.45593999997E+02  0.45594000000E+02  0.51100000000E-03 0. -1.
    9900012    2    1    2    0    0  0.22799638016E+02 -0.17322597520E+02 -0.28866417562E+02  0.50528856608E+02  0.29999990145E+02 0.  0.
        -12    1    1    2    0    0 -0.22799638016E+02  0.17322597520E+02  0.28866417562E+02  0.40659143392E+02  0.00000000000E+00 0.  1.
         11    1    3    3    0    0  0.15371131529E+02 -0.13805182985E+02 -0.16131037403E+02  0.26211927241E+02  0.51100000000E-03 0. -1.
        -11    1    3    3    0    0  0.18088238230E+01 -0.74530457996E+01  0.21172502554E+01  0.79562858306E+01  0.51100000000E-03 0.  1.
        -12    1    3    3    0    0  0.56196826638E+01  0.39356312643E+01 -0.14852630414E+02  0.16360643536E+02  0.00000000000E+00 0.  1.
</event>
<event>
 7    1  0.5441610E-013  0.5052887E+02  0.7816164E-02  0.1300439E+00
        -11   -1    0    0    0    0  0.00000000000E+00  0.00000000000E+00  0.45593999997E+02  0.45594000000E+02  0.51100000000E-03 0.  1.
         11   -1    0    0    0    0 -0.00000000000E+00 -0.00000000000E+00 -0.45593999997E+02  0.45594000000E+02  0.51100000000E-03 0. -1.
    9900012    2    1    2    0    0 -0.78166502327E+01  0.36801442484E+02 -0.15418127064E+02  0.50528870251E+02  0.30000031615E+02 0.  0.
        -12    1    1    2    0    0  0.78166502327E+01 -0.36801442484E+02  0.15418127064E+02  0.40659129749E+02  0.00000000000E+00 0.  1.
         11    1    3    3    0    0 -0.27790998284E+01  0.16515211637E+02 -0.14984788150E+01  0.16814310877E+02  0.51100000000E-03 0. -1.
        -11    1    3    3    0    0  0.85784737618E+01  0.11852589035E+02 -0.56001614456E+01  0.15666393567E+02  0.51100000000E-03 0.  1.
        -12    1    3    3    0    0 -0.13616024166E+02  0.84336418128E+01 -0.83194868032E+01  0.18048165807E+02  0.00000000000E+00 0.  1.
</event>
<event>
 7    1  0.5441610E-013  0.5052886E+02  0.7816164E-02  0.1300439E+00
        -11   -1    0    0    0    0  0.00000000000E+00  0.00000000000E+00  0.45593999997E+02  0.45594000000E+02  0.51100000000E-03 0.  1.
         11   -1    0    0    0    0 -0.00000000000E+00 -0.00000000000E+00 -0.45593999997E+02  0.45594000000E+02  0.51100000000E-03 0. -1.
    9900012    2    1    2    0    0 -0.37172076368E+02  0.15164918917E+02 -0.64364471497E+01  0.50528857373E+02  0.29999992471E+02 0.  0.
        -12    1    1    2    0    0  0.37172076368E+02 -0.15164918917E+02  0.64364471497E+01  0.40659142627E+02  0.00000000000E+00 0.  1.
         11    1    3    3    0    0 -0.37664090328E+02  0.15632866270E+02 -0.98397508793E+00  0.40791401242E+02  0.51100000000E-03 0. -1.
        -11    1    3    3    0    0  0.12801836585E+00  0.34931705175E+01 -0.44062164492E+01  0.56243553075E+01  0.51100000000E-03 0.  1.
        -12    1    3    3    0    0  0.36399559494E+00 -0.39611178702E+01 -0.10462556125E+01  0.41131008232E+01  0.00000000000E+00 0.  1.
</event>
<event>
 7    1  0.5441610E-013  0.5052886E+02  0.7816164E-02  0.1300439E+00
        -11   -1    0    0    0    0  0.00000000000E+00  0.00000000000E+00  0.45593999997E+02  0.45594000000E+02  0.51100000000E-03 0.  1.
         11   -1    0    0    0    0 -0.00000000000E+00 -0.00000000000E+00 -0.45593999997E+02  0.45594000000E+02  0.51100000000E-03 0. -1.
    9900012    2    1    2    0    0 -0.87167627507E+01  0.84467923997E+01 -0.38805092361E+02  0.50528862677E+02  0.30000008593E+02 0.  0.
        -12    1    1    2    0    0  0.87167627507E+01 -0.84467923997E+01  0.38805092361E+02  0.40659137323E+02  0.00000000000E+00 0.  1.
         11    1    3    3    0    0 -0.11289491578E+01 -0.43693966606E+01 -0.59986136204E+01  0.75066316685E+01  0.51100000000E-03 0. -1.
        -11    1    3    3    0    0 -0.17685880645E+01  0.42101939358E+01  0.31809793947E+01  0.55652732987E+01  0.51100000000E-03 0.  1.
         12    1    3    3    0    0 -0.58192255283E+01  0.86059951246E+01 -0.35987458135E+02  0.37456957710E+02  0.00000000000E+00 0. -1.
</event>
<event>
 7    1  0.5441610E-013  0.5052886E+02  0.7816164E-02  0.1300439E+00
        -11   -1    0    0    0    0  0.00000000000E+00  0.00000000000E+00  0.45593999997E+02  0.45594000000E+02  0.51100000000E-03 0.  1.
         11   -1    0    0    0    0 -0.00000000000E+00 -0.00000000000E+00 -0.45593999997E+02  0.45594000000E+02  0.51100000000E-03 0. -1.
    9900012    2    1    2    0    0  0.30261480028E+02 -0.11630456591E+02 -0.24538557643E+02  0.50528861972E+02  0.30000006450E+02 0.  0.
        -12    1    1    2    0    0 -0.30261480028E+02  0.11630456591E+02  0.24538557643E+02  0.40659138028E+02  0.00000000000E+00 0.  1.
         11    1    3    3    0    0  0.32988254320E+02 -0.16055114488E+02 -0.22363039341E+02  0.42966232708E+02  0.51100000000E-03 0. -1.
        -11    1    3    3    0    0  0.39861633111E-02 -0.32677439565E+00  0.11207556868E+01  0.11674292123E+01  0.51100000000E-03 0.  1.
         12    1    3    3    0    0 -0.27307604549E+01  0.47514322927E+01 -0.32962739880E+01  0.63952000515E+01  0.00000000000E+00 0. -1.
</event>
<event>
 7    1  0.5441610E-013  0.5052886E+02  0.7816164E-02  0.1300439E+00
        -11   -1    0    0    0    0  0.00000000000E+00  0.00000000000E+00  0.45593999997E+02  0.45594000000E+02  0.51100000000E-03 0.  1.
         11   -1    0    0    0    0 -0.00000000000E+00 -0.00000000000E+00 -0.45593999997E+02  0.45594000000E+02  0.51100000000E-03 0. -1.
    9900012    2    1    2    0    0  0.60879038839E+01  0.27511203386E+02 -0.29312739898E+02  0.50528860735E+02  0.30000002690E+02 0.  0.
        -12    1    1    2    0    0 -0.60879038839E+01 -0.27511203386E+02  0.29312739898E+02  0.40659139265E+02  0.00000000000E+00 0.  1.
         11    1    3    3    0    0 -0.16574639584E+01  0.23789094344E+01 -0.11229701046E+02  0.11597955971E+02  0.51100000000E-03 0. -1.
        -11    1    3    3    0    0  0.14886103051E+02  0.11432854652E+02 -0.12270707767E+02  0.22424908002E+02  0.51100000000E-03 0.  1.
        -12    1    3    3    0    0 -0.71407352088E+01  0.13699439299E+02 -0.58123310846E+01  0.16505996761E+02  0.00000000000E+00 0.  1.
</event>
<event>
 7    1  0.5441610E-013  0.5052885E+02  0.7816164E-02  0.1300439E+00
        -11   -1    0    0    0    0  0.00000000000E+00  0.00000000000E+00  0.45593999997E+02  0.45594000000E+02  0.51100000000E-03 0. -1.
         11   -1    0    0    0    0 -0.00000000000E+00 -0.00000000000E+00 -0.45593999997E+02  0.45594000000E+02  0.51100000000E-03 0.  1.
    9900012    2    1    2    0    0  0.70644355086E+01  0.40031056660E+02 -0.87997933611E+00  0.50528854534E+02  0.29999983842E+02 0.  0.
        -12    1    1    2    0    0 -0.70644355086E+01 -0.40031056660E+02  0.87997933611E+00  0.40659145466E+02  0.00000000000E+00 0.  1.
         11    1    3    3    0    0  0.17556405745E+01 -0.25951368592E+00 -0.12989923850E+01  0.21993186803E+01  0.51100000000E-03 0. -1.
        -11    1    3    3    0    0 -0.10079436620E+02  0.12141955023E+02 -0.30154821598E+01  0.16065965494E+02  0.51100000000E-03 0.  1.
         12    1    3    3    0    0  0.15388231554E+02  0.28148615324E+02  0.34344952086E+01  0.32263570359E+02  0.00000000000E+00 0. -1.
</event>
<event>
 7    1  0.5441610E-013  0.5052886E+02  0.7816164E-02  0.1300439E+00
        -11   -1    0    0    0    0  0.00000000000E+00  0.00000000000E+00  0.45593999997E+02  0.45594000000E+02  0.51100000000E-03 0.  1.
         11   -1    0    0    0    0 -0.00000000000E+00 -0.00000000000E+00 -0.45593999997E+02  0.45594000000E+02  0.51100000000E-03 0. -1.
    9900012    2    1    2    0    0 -0.31454448091E+02  0.15976547181E+02 -0.20212203192E+02  0.50528861760E+02  0.30000005806E+02 0.  0.
        -12    1    1    2    0    0  0.31454448091E+02 -0.15976547181E+02  0.20212203192E+02  0.40659138240E+02  0.00000000000E+00 0.  1.
         11    1    3    3    0    0 -0.27073215013E+02  0.97102063230E+01 -0.19969296434E+02  0.35014566659E+02  0.51100000000E-03 0. -1.
        -11    1    3    3    0    0  0.36780938344E+01  0.12955338180E+01 -0.37563332868E+01  0.54145010989E+01  0.51100000000E-03 0.  1.
        -12    1    3    3    0    0 -0.80593269126E+01  0.49708070398E+01  0.35134265290E+01  0.10099794002E+02  0.00000000000E+00 0.  1.
</event>
<event>
 7    1  0.5441610E-013  0.5052889E+02  0.7816164E-02  0.1300439E+00
        -11   -1    0    0    0    0  0.00000000000E+00  0.00000000000E+00  0.45593999997E+02  0.45594000000E+02  0.51100000000E-03 0.  1.
         11   -1    0    0    0    0 -0.00000000000E+00 -0.00000000000E+00 -0.45593999997E+02  0.45594000000E+02  0.51100000000E-03 0. -1.
    9900012    2    1    2    0    0  0.49414031603E+01 -0.22980989998E+02 -0.33175592733E+02  0.50528888848E+02  0.30000088142E+02 0.  0.
        -12    1    1    2    0    0 -0.49414031603E+01  0.22980989998E+02  0.33175592733E+02  0.40659111152E+02  0.00000000000E+00 0.  1.
         11    1    3    3    0    0  0.77901246481E+01 -0.24297710223E+01 -0.15181990685E+02  0.17236086293E+02  0.51100000000E-03 0. -1.
        -11    1    3    3    0    0  0.78479750259E+01 -0.11629759401E+02 -0.80096575989E+01  0.16155390149E+02  0.51100000000E-03 0.  1.
        -12    1    3    3    0    0 -0.10696696514E+02 -0.89214595748E+01 -0.99839444487E+01  0.17137412407E+02  0.00000000000E+00 0.  1.
</event>
<event>
 7    1  0.5441610E-013  0.5052886E+02  0.7816164E-02  0.1300439E+00
        -11   -1    0    0    0    0  0.00000000000E+00  0.00000000000E+00  0.45593999997E+02  0.45594000000E+02  0.51100000000E-03 0. -1.
         11   -1    0    0    0    0 -0.00000000000E+00 -0.00000000000E+00 -0.45593999997E+02  0.45594000000E+02  0.51100000000E-03 0.  1.
    9900012    2    1    2    0    0 -0.20478838691E+02 -0.68850924521E+01  0.34443841236E+02  0.50528861651E+02  0.30000005474E+02 0.  0.
        -12    1    1    2    0    0  0.20478838691E+02  0.68850924521E+01 -0.34443841236E+02  0.40659138349E+02  0.00000000000E+00 0.  1.
         11    1    3    3    0    0 -0.11349944829E+02  0.24809296328E+01  0.15951396313E+02  0.19733811189E+02  0.51100000000E-03 0. -1.
        -11    1    3    3    0    0  0.39040619378E+01 -0.17390440168E+01  0.14583277318E+02  0.15196642764E+02  0.51100000000E-03 0.  1.
        -12    1    3    3    0    0 -0.13032955800E+02 -0.76269780680E+01  0.39091676054E+01  0.15598407698E+02  0.00000000000E+00 0.  1.
</event>
<event>
 7    1  0.5441610E-013  0.5052890E+02  0.7816164E-02  0.1300439E+00
        -11   -1    0    0    0    0  0.00000000000E+00  0.00000000000E+00  0.45593999997E+02  0.45594000000E+02  0.51100000000E-03 0. -1.
         11   -1    0    0    0    0 -0.00000000000E+00 -0.00000000000E+00 -0.45593999997E+02  0.45594000000E+02  0.51100000000E-03 0.  1.
    9900012    2    1    2    0    0 -0.48697865112E-01  0.40553758296E+02  0.29245030016E+01  0.50528900143E+02  0.30000122474E+02 0.  0.
        -12    1    1    2    0    0  0.48697865112E-01 -0.40553758296E+02 -0.29245030016E+01  0.40659099857E+02  0.00000000000E+00 0.  1.
         11    1    3    3    0    0  0.73798056922E+00  0.11265634118E+02 -0.14502050498E+01  0.11382540241E+02  0.51100000000E-03 0. -1.
        -11    1    3    3    0    0 -0.81106890194E+01 -0.10245458819E-01 -0.18324816245E+01  0.83151290130E+01  0.51100000000E-03 0.  1.
         12    1    3    3    0    0  0.73240105850E+01  0.29298369637E+02  0.62071896759E+01  0.30831230889E+02  0.00000000000E+00 0. -1.
</event>
<event>
 7    1  0.5477739E-013  0.5052883E+02  0.7816164E-02  0.1300439E+00
        -11   -1    0    0    0    0  0.00000000000E+00  0.00000000000E+00  0.45593999997E+02  0.45594000000E+02  0.51100000000E-03 0. -1.
         11   -1    0    0    0    0 -0.00000000000E+00 -0.00000000000E+00 -0.45593999997E+02  0.45594000000E+02  0.51100000000E-03 0.  1.
    9900012    2    1    2    0    0  0.23128985729E+02 -0.62630592835E+01  0.32848016801E+02  0.50528830060E+02  0.29999909450E+02 0.  0.
        -12    1    1    2    0    0 -0.23128985729E+02  0.62630592835E+01 -0.32848016801E+02  0.40659169940E+02  0.00000000000E+00 0.  1.
         11    1    3    3    0    0  0.15174622852E+02 -0.35251902806E+01  0.91789175285E+01  0.18081722055E+02  0.51100000000E-03 0.  1.
        -11    1    3    3    0    0 -0.71531296052E+00 -0.16190542832E+01 -0.34914483085E+01  0.39144885944E+01  0.51100000000E-03 0. -1.
         12    1    3    3    0    0  0.86696758379E+01 -0.11188147197E+01  0.27160547581E+02  0.28532619411E+02  0.00000000000E+00 0. -1.
</event>
<event>
 7    1  0.5441610E-013  0.5052887E+02  0.7816164E-02  0.1300439E+00
        -11   -1    0    0    0    0  0.00000000000E+00  0.00000000000E+00  0.45593999997E+02  0.45594000000E+02  0.51100000000E-03 0.  1.
         11   -1    0    0    0    0 -0.00000000000E+00 -0.00000000000E+00 -0.45593999997E+02  0.45594000000E+02  0.51100000000E-03 0. -1.
    9900012    2    1    2    0    0  0.59070716533E+01 -0.89849103756E+01 -0.39211515521E+02  0.50528867453E+02  0.30000023112E+02 0.  0.
        -12    1    1    2    0    0 -0.59070716533E+01  0.89849103756E+01  0.39211515521E+02  0.40659132547E+02  0.00000000000E+00 0.  1.
         11    1    3    3    0    0  0.10187050554E+02 -0.54427807819E+01 -0.20654739493E+02  0.23664702099E+02  0.51100000000E-03 0. -1.
        -11    1    3    3    0    0 -0.93838399187E+01 -0.64756835035E+01 -0.17495189611E+02  0.20882351119E+02  0.51100000000E-03 0.  1.
         12    1    3    3    0    0  0.51038610180E+01  0.29335539098E+01 -0.10615864166E+01  0.59818142359E+01  0.00000000000E+00 0. -1.
</event>
<event>
 7    1  0.5441610E-013  0.5052886E+02  0.7816164E-02  0.1300439E+00
        -11   -1    0    0    0    0  0.00000000000E+00  0.00000000000E+00  0.45593999997E+02  0.45594000000E+02  0.51100000000E-03 0. -1.
         11   -1    0    0    0    0 -0.00000000000E+00 -0.00000000000E+00 -0.45593999997E+02  0.45594000000E+02  0.51100000000E-03 0.  1.
    9900012    2    1    2    0    0 -0.21553621090E+02  0.53500923134E+01  0.34058534272E+02  0.50528858020E+02  0.29999994436E+02 0.  0.
        -12    1    1    2    0    0  0.21553621090E+02 -0.53500923134E+01 -0.34058534272E+02  0.40659141980E+02  0.00000000000E+00 0.  1.
         11    1    3    3    0    0  0.12575831365E+01  0.92665583836E+00 -0.59266612780E+00  0.16707662278E+01  0.51100000000E-03 0. -1.
        -11    1    3    3    0    0 -0.13484791698E+02 -0.98272568765E+01  0.12162336853E+02  0.20647930231E+02  0.51100000000E-03 0.  1.
         12    1    3    3    0    0 -0.93264125286E+01  0.14250693351E+02  0.22488863546E+02  0.28210161560E+02  0.00000000000E+00 0. -1.
</event>
<event>
 7    1  0.5441610E-013  0.5052887E+02  0.7816164E-02  0.1300439E+00
        -11   -1    0    0    0    0  0.00000000000E+00  0.00000000000E+00  0.45593999997E+02  0.45594000000E+02  0.51100000000E-03 0. -1.
         11   -1    0    0    0    0 -0.00000000000E+00 -0.00000000000E+00 -0.45593999997E+02  0.45594000000E+02  0.51100000000E-03 0.  1.
    9900012    2    1    2    0    0 -0.12120333575E+01  0.26874583004E+02  0.30486929274E+02  0.50528867040E+02  0.30000021854E+02 0.  0.
        -12    1    1    2    0    0  0.12120333575E+01 -0.26874583004E+02 -0.30486929274E+02  0.40659132960E+02  0.00000000000E+00 0.  1.
         11    1    3    3    0    0 -0.34737010346E+01  0.83873601420E+00  0.58743308973E+01  0.68758883594E+01  0.51100000000E-03 0. -1.
        -11    1    3    3    0    0 -0.11206247584E+02  0.10075249663E+02  0.11927513122E+02  0.19218642257E+02  0.51100000000E-03 0.  1.
        -12    1    3    3    0    0  0.13467915261E+02  0.15960597327E+02  0.12685085255E+02  0.24434336423E+02  0.00000000000E+00 0.  1.
</event>
<event>
 7    1  0.5441610E-013  0.5052886E+02  0.7816164E-02  0.1300439E+00
        -11   -1    0    0    0    0  0.00000000000E+00  0.00000000000E+00  0.45593999997E+02  0.45594000000E+02  0.51100000000E-03 0.  1.
         11   -1    0    0    0    0 -0.00000000000E+00 -0.00000000000E+00 -0.45593999997E+02  0.45594000000E+02  0.51100000000E-03 0. -1.
    9900012    2    1    2    0    0 -0.64792573656E+01 -0.37253616192E+02 -0.14944998738E+02  0.50528859789E+02  0.29999999815E+02 0.  0.
        -12    1    1    2    0    0  0.64792573656E+01  0.37253616192E+02  0.14944998738E+02  0.40659140211E+02  0.00000000000E+00 0.  1.
         11    1    3    3    0    0 -0.35298471844E+01 -0.30647154753E+02 -0.13212698197E+02  0.33560144658E+02  0.51100000000E-03 0. -1.
        -11    1    3    3    0    0 -0.24129867051E+01 -0.10598005034E+02  0.24718599648E+01  0.11146762197E+02  0.51100000000E-03 0.  1.
        -12    1    3    3    0    0 -0.53642347608E+00  0.39915435938E+01 -0.42041605060E+01  0.58219529341E+01  0.00000000000E+00 0.  1.
</event>
<event>
 7    1  0.5441610E-013  0.5052888E+02  0.7816164E-02  0.1300439E+00
        -11   -1    0    0    0    0  0.00000000000E+00  0.00000000000E+00  0.45593999997E+02  0.45594000000E+02  0.51100000000E-03 0.  1.
         11   -1    0    0    0    0 -0.00000000000E+00 -0.00000000000E+00 -0.45593999997E+02  0.45594000000E+02  0.51100000000E-03 0. -1.
    9900012    2    1    2    0    0  0.84473112632E+01 -0.31704408301E+02 -0.24013284234E+02  0.50528875649E+02  0.30000048023E+02 0.  0.
        -12    1    1    2    0    0 -0.84473112632E+01  0.31704408301E+02  0.24013284234E+02  0.40659124351E+02  0.00000000000E+00 0.  1.
         11    1    3    3    0    0  0.23262114037E+01 -0.10835117830E+02 -0.15780489527E+02  0.19283020714E+02  0.51100000000E-03 0. -1.
        -11    1    3    3    0    0 -0.97030237312E+00 -0.17458762883E+02  0.27855086489E+01  0.17706183857E+02  0.51100000000E-03 0.  1.
         12    1    3    3    0    0  0.70914022325E+01 -0.34105275881E+01 -0.11018303355E+02  0.13539671077E+02  0.00000000000E+00 0. -1.
</event>
<event>
 7    1  0.5441610E-013  0.5052885E+02  0.7816164E-02  0.1300439E+00
        -11   -1    0    0    0    0  0.00000000000E+00  0.00000000000E+00  0.45593999997E+02  0.45594000000E+02  0.51100000000E-03 0.  1.
         11   -1    0    0    0    0 -0.00000000000E+00 -0.00000000000E+00 -0.45593999997E+02  0.45594000000E+02  0.51100000000E-03 0. -1.
    9900012    2    1    2    0    0 -0.16535131820E+02  0.26720030138E+02 -0.25803026619E+02  0.50528846325E+02  0.29999958889E+02 0.  0.
        -12    1    1    2    0    0  0.16535131820E+02 -0.26720030138E+02  0.25803026619E+02  0.40659153675E+02  0.00000000000E+00 0.  1.
         11    1    3    3    0    0 -0.35844741262E+01  0.37640454807E+01 -0.16869994087E+02  0.17652569045E+02  0.51100000000E-03 0. -1.
        -11    1    3    3    0    0  0.24038544663E+01  0.95664465277E+01 -0.76147265161E+01  0.12461118555E+02  0.51100000000E-03 0.  1.
         12    1    3    3    0    0 -0.15354512160E+02  0.13389538129E+02 -0.13183060158E+01  0.20415158725E+02  0.00000000000E+00 0. -1.
</event>
<event>
 7    1  0.5441610E-013  0.5052887E+02  0.7816164E-02  0.1300439E+00
        -11   -1    0    0    0    0  0.00000000000E+00  0.00000000000E+00  0.45593999997E+02  0.45594000000E+02  0.51100000000E-03 0.  1.
         11   -1    0    0    0    0 -0.00000000000E+00 -0.00000000000E+00 -0.45593999997E+02  0.45594000000E+02  0.51100000000E-03 0. -1.
    9900012    2    1    2    0    0 -0.34825084099E+02 -0.11689739893E+02 -0.17427804362E+02  0.50528869830E+02  0.30000030337E+02 0.  0.
        -12    1    1    2    0    0  0.34825084099E+02  0.11689739893E+02  0.17427804362E+02  0.40659130170E+02  0.00000000000E+00 0.  1.
         11    1    3    3    0    0 -0.76501532952E+01 -0.10274947653E+02 -0.63234005628E+01  0.14285824780E+02  0.51100000000E-03 0. -1.
        -11    1    3    3    0    0 -0.14715942928E+02 -0.85234271395E+01 -0.13483450386E+02  0.21702792932E+02  0.51100000000E-03 0.  1.
        -12    1    3    3    0    0 -0.12458987875E+02  0.71086348990E+01  0.23790465870E+01  0.14540252118E+02  0.00000000000E+00 0.  1.
</event>
<event>
 7    1  0.5441610E-013  0.5052884E+02  0.7816164E-02  0.1300439E+00
        -11   -1    0    0    0    0  0.00000000000E+00  0.00000000000E+00  0.45593999997E+02  0.45594000000E+02  0.51100000000E-03 0.  1.
         11   -1    0    0    0    0 -0.00000000000E+00 -0.00000000000E+00 -0.45593999997E+02  0.45594000000E+02  0.51100000000E-03 0. -1.
    9900012    2    1    2    0    0  0.17319456061E+02 -0.31425056354E+02 -0.19122497433E+02  0.50528835803E+02  0.29999926908E+02 0.  0.
        -12    1    1    2    0    0 -0.17319456061E+02  0.31425056354E+02  0.19122497433E+02  0.40659164197E+02  0.00000000000E+00 0.  1.
         11    1    3    3    0    0  0.17258645058E+01 -0.26146670125E+02 -0.92748637643E+01  0.27796583694E+02  0.51100000000E-03 0. -1.
        -11    1    3    3    0    0  0.17438481636E+01 -0.50925420810E+00  0.28280764656E+01  0.33613037682E+01  0.51100000000E-03 0.  1.
         12    1    3    3    0    0  0.13849743392E+02 -0.47691320206E+01 -0.12675710134E+02  0.19370948342E+02  0.00000000000E+00 0. -1.
</event>
<event>
 7    1  0.5441610E-013  0.5052885E+02  0.7816164E-02  0.1300439E+00
        -11   -1    0    0    0    0  0.00000000000E+00  0.00000000000E+00  0.45593999997E+02  0.45594000000E+02  0.51100000000E-03 0.  1.
         11   -1    0    0    0    0 -0.00000000000E+00 -0.00000000000E+00 -0.45593999997E+02  0.45594000000E+02  0.51100000000E-03 0. -1.
    9900012    2    1    2    0    0 -0.22499472943E+01  0.32504898001E+02 -0.24321506065E+02  0.50528852023E+02  0.29999976210E+02 0.  0.
        -12    1    1    2    0    0  0.22499472943E+01 -0.32504898001E+02  0.24321506065E+02  0.40659147977E+02  0.00000000000E+00 0.  1.
         11    1    3    3    0    0  0.33489024971E+01  0.20622966690E+02 -0.11722495589E+02  0.23957019976E+02  0.51100000000E-03 0. -1.
        -11    1    3    3    0    0  0.42203912486E+01  0.33849666454E+00  0.27127311459E+01  0.50284384071E+01  0.51100000000E-03 0.  1.
        -12    1    3    3    0    0 -0.98192410401E+01  0.11543434647E+02 -0.15311741622E+02  0.21543393641E+02  0.00000000000E+00 0.  1.
</event>
<event>
 7    1  0.5441610E-013  0.5052885E+02  0.7816164E-02  0.1300439E+00
        -11   -1    0    0    0    0  0.00000000000E+00  0.00000000000E+00  0.45593999997E+02  0.45594000000E+02  0.51100000000E-03 0.  1.
         11   -1    0    0    0    0 -0.00000000000E+00 -0.00000000000E+00 -0.45593999997E+02  0.45594000000E+02  0.51100000000E-03 0. -1.
    9900012    2    1    2    0    0 -0.31296291837E+02 -0.55187743951E+01 -0.25362399718E+02  0.50528854989E+02  0.29999985224E+02 0.  0.
        -12    1    1    2    0    0  0.31296291837E+02  0.55187743951E+01  0.25362399718E+02  0.40659145011E+02  0.00000000000E+00 0.  1.
         11    1    3    3    0    0 -0.14298824476E+02 -0.53081723327E+01  0.30501125097E+00  0.15255363222E+02  0.51100000000E-03 0.  1.
        -11    1    3    3    0    0  0.29708587441E+01 -0.16447314357E+01 -0.10733088204E+01  0.35613389699E+01  0.51100000000E-03 0. -1.
         12    1    3    3    0    0 -0.19968326105E+02  0.14341293733E+01 -0.24594102149E+02  0.31712152797E+02  0.00000000000E+00 0. -1.
</event>
<event>
 7    1  0.6459480E-013  0.5052887E+02  0.7816164E-02  0.1300439E+00
        -11   -1    0    0    0    0  0.00000000000E+00  0.00000000000E+00  0.45593999997E+02  0.45594000000E+02  0.51100000000E-03 0. -1.
         11   -1    0    0    0    0 -0.00000000000E+00 -0.00000000000E+00 -0.45593999997E+02  0.45594000000E+02  0.51100000000E-03 0.  1.
    9900012    2    1    2    0    0 -0.51675839634E+00 -0.21223617971E+02  0.34676445947E+02  0.50528869384E+02  0.30000028978E+02 0.  0.
        -12    1    1    2    0    0  0.51675839634E+00  0.21223617971E+02 -0.34676445947E+02  0.40659130616E+02  0.00000000000E+00 0.  1.
         11    1    3    3    0    0  0.21323516927E+00 -0.42986202652E+01  0.19184560644E+02  0.19661408210E+02  0.51100000000E-03 0. -1.
        -11    1    3    3    0    0 -0.84468626167E+01 -0.51229709531E+00  0.37082090872E+01  0.92391964627E+01  0.51100000000E-03 0.  1.
        -12    1    3    3    0    0  0.77168690511E+01 -0.16412700610E+02  0.11783676215E+02  0.21628264711E+02  0.00000000000E+00 0.  1.
</event>
<event>
 7    1  0.5441610E-013  0.5052886E+02  0.7816164E-02  0.1300439E+00
        -11   -1    0    0    0    0  0.00000000000E+00  0.00000000000E+00  0.45593999997E+02  0.45594000000E+02  0.51100000000E-03 0. -1.
         11   -1    0    0    0    0 -0.00000000000E+00 -0.00000000000E+00 -0.45593999997E+02  0.45594000000E+02  0.51100000000E-03 0.  1.
    9900012    2    1    2    0    0 -0.23575812073E+02  0.18844856348E+02  0.27243677859E+02  0.50528861925E+02  0.30000006306E+02 0.  0.
        -12    1    1    2    0    0  0.23575812073E+02 -0.18844856348E+02 -0.27243677859E+02  0.40659138075E+02  0.00000000000E+00 0.  1.
         11    1    3    3    0    0 -0.37702139307E+00 -0.41281854686E+01  0.51810765652E+01  0.66353308154E+01  0.51100000000E-03 0. -1.
        -11    1    3    3    0    0 -0.71164075100E+01  0.88733903343E+01 -0.21621080756E+01  0.11578213311E+02  0.51100000000E-03 0.  1.
        -12    1    3    3    0    0 -0.16082383170E+02  0.14099651483E+02  0.24224709370E+02  0.32315317799E+02  0.00000000000E+00 0.  1.
</event>
<event>
 7    1  0.5441610E-013  0.5052886E+02  0.7816164E-02  0.1300439E+00
        -11   -1    0    0    0    0  0.00000000000E+00  0.00000000000E+00  0.45593999997E+02  0.45594000000E+02  0.51100000000E-03 0.  1.
         11   -1    0    0    0    0 -0.00000000000E+00 -0.00000000000E+00 -0.45593999997E+02  0.45594000000E+02  0.51100000000E-03 0. -1.
    9900012    2    1    2    0    0  0.51590094999E+01 -0.37897243973E+02 -0.13796723667E+02  0.50528855103E+02  0.29999985572E+02 0.  0.
        -12    1    1    2    0    0 -0.51590094999E+01  0.37897243973E+02  0.13796723667E+02  0.40659144897E+02  0.00000000000E+00 0.  1.
         11    1    3    3    0    0  0.22676487704E+00 -0.37270999951E+02 -0.51621786648E+01  0.37627475978E+02  0.51100000000E-03 0. -1.
        -11    1    3    3    0    0 -0.15305683023E+01 -0.11862363440E+01 -0.52262995971E+01  0.55735091040E+01  0.51100000000E-03 0.  1.
        -12    1    3    3    0    0  0.64628129251E+01  0.55999232142E+00 -0.34082454054E+01  0.73278700213E+01  0.00000000000E+00 0.  1.
</event>
<event>
 7    1  0.5441610E-013  0.5052889E+02  0.7816164E-02  0.1300439E+00
        -11   -1    0    0    0    0  0.00000000000E+00  0.00000000000E+00  0.45593999997E+02  0.45594000000E+02  0.51100000000E-03 0.  1.
         11   -1    0    0    0    0 -0.00000000000E+00 -0.00000000000E+00 -0.45593999997E+02  0.45594000000E+02  0.51100000000E-03 0. -1.
    9900012    2    1    2    0    0 -0.48099939868E+01  0.36151258036E+02  0.17975374333E+02  0.50528885620E+02  0.30000078329E+02 0.  0.
        -12    1    1    2    0    0  0.48099939868E+01 -0.36151258036E+02 -0.17975374333E+02  0.40659114380E+02  0.00000000000E+00 0.  1.
         11    1    3    3    0    0 -0.44131675899E+01  0.62528314162E+01 -0.12885086124E+01  0.77610697459E+01  0.51100000000E-03 0. -1.
        -11    1    3    3    0    0 -0.30019562794E+01  0.31867626392E+02  0.10940615522E+02  0.33826829908E+02  0.51100000000E-03 0.  1.
        -12    1    3    3    0    0  0.26051298825E+01 -0.19691997713E+01  0.83232674233E+01  0.89409859660E+01  0.00000000000E+00 0.  1.
</event>
<event>
 7    1  0.5441610E-013  0.5052886E+02  0.7816164E-02  0.1300439E+00
        -11   -1    0    0    0    0  0.00000000000E+00  0.00000000000E+00  0.45593999997E+02  0.45594000000E+02  0.51100000000E-03 0.  1.
         11   -1    0    0    0    0 -0.00000000000E+00 -0.00000000000E+00 -0.45593999997E+02  0.45594000000E+02  0.51100000000E-03 0. -1.
    9900012    2    1    2    0    0  0.79817264727E+01  0.12859171782E+02 -0.37737242859E+02  0.50528858900E+02  0.29999997113E+02 0.  0.
        -12    1    1    2    0    0 -0.79817264727E+01 -0.12859171782E+02  0.37737242859E+02  0.40659141100E+02  0.00000000000E+00 0.  1.
         11    1    3    3    0    0  0.19506482377E+01  0.17832482492E+01 -0.22233384602E+02  0.22389917239E+02  0.51100000000E-03 0. -1.
        -11    1    3    3    0    0  0.77341495517E+01 -0.33967393769E+01 -0.30863081355E+01  0.89933423071E+01  0.51100000000E-03 0.  1.
         12    1    3    3    0    0 -0.17030713167E+01  0.14472662909E+02 -0.12417550122E+02  0.19145599354E+02  0.00000000000E+00 0. -1.
</event>
<event>
 7    1  0.5441610E-013  0.5052886E+02  0.7816164E-02  0.1300439E+00
        -11   -1    0    0    0    0  0.00000000000E+00  0.00000000000E+00  0.45593999997E+02  0.45594000000E+02  0.51100000000E-03 0.  1.
         11   -1    0    0    0    0 -0.00000000000E+00 -0.00000000000E+00 -0.45593999997E+02  0.45594000000E+02  0.51100000000E-03 0. -1.
    9900012    2    1    2    0    0  0.21264068526E+02  0.12805979192E+02 -0.32202666668E+02  0.50528862603E+02  0.30000008369E+02 0.  0.
        -12    1    1    2    0    0 -0.21264068526E+02 -0.12805979192E+02  0.32202666668E+02  0.40659137397E+02  0.00000000000E+00 0.  1.
         11    1    3    3    0    0  0.12589297138E+02  0.52218278057E+01 -0.33557593099E+02  0.36219745208E+02  0.51100000000E-03 0. -1.
        -11    1    3    3    0    0  0.21184444603E+01  0.46063544671E+01 -0.30024959928E+01  0.58924774803E+01  0.51100000000E-03 0.  1.
        -12    1    3    3    0    0  0.65563269278E+01  0.29777969191E+01  0.43574224243E+01  0.84166399151E+01  0.00000000000E+00 0.  1.
</event>
<event>
 7    1  0.5441610E-013  0.5052886E+02  0.7816164E-02  0.1300439E+00
        -11   -1    0    0    0    0  0.00000000000E+00  0.00000000000E+00  0.45593999997E+02  0.45594000000E+02  0.51100000000E-03 0.  1.
         11   -1    0    0    0    0 -0.00000000000E+00 -0.00000000000E+00 -0.45593999997E+02  0.45594000000E+02  0.51100000000E-03 0. -1.
    9900012    2    1    2    0    0  0.11587741117E+02 -0.30993102320E+02 -0.23628742069E+02  0.50528860961E+02  0.30000003378E+02 0.  0.
        -12    1    1    2    0    0 -0.11587741117E+02  0.30993102320E+02  0.23628742069E+02  0.40659139039E+02  0.00000000000E+00 0.  1.
         11    1    3    3    0    0  0.42548941765E+01 -0.11063178536E+02  0.21412458377E+01  0.12045039551E+02  0.51100000000E-03 0. -1.
        -11    1    3    3    0    0  0.12917086699E+02 -0.81885674544E+01 -0.11201017124E+02  0.18956965754E+02  0.51100000000E-03 0.  1.
        -12    1    3    3    0    0 -0.55842397589E+01 -0.11741356329E+02 -0.14568970783E+02  0.19526855656E+02  0.00000000000E+00 0.  1.
</event>
<event>
 7    1  0.5441610E-013  0.5052886E+02  0.7816164E-02  0.1300439E+00
        -11   -1    0    0    0    0  0.00000000000E+00  0.00000000000E+00  0.45593999997E+02  0.45594000000E+02  0.51100000000E-03 0. -1.
         11   -1    0    0    0    0 -0.00000000000E+00 -0.00000000000E+00 -0.45593999997E+02  0.45594000000E+02  0.51100000000E-03 0.  1.
    9900012    2    1    2    0    0  0.17440544723E+02 -0.14735793129E+02  0.33642972271E+02  0.50528858561E+02  0.29999996081E+02 0.  0.
        -12    1    1    2    0    0 -0.17440544723E+02  0.14735793129E+02 -0.33642972271E+02  0.40659141439E+02  0.00000000000E+00 0.  1.
         11    1    3    3    0    0 -0.16978493097E+01 -0.10656203752E+02  0.16194277761E+02  0.19460010358E+02  0.51100000000E-03 0. -1.
        -11    1    3    3    0    0  0.76343208955E+01 -0.31620224784E+01 -0.19560931877E+01  0.84916160129E+01  0.51100000000E-03 0.  1.
        -12    1    3    3    0    0  0.11504073137E+02 -0.91756689846E+00  0.19404787698E+02  0.22577232190E+02  0.00000000000E+00 0.  1.
</event>
<event>
 7    1  0.5441610E-013  0.5052887E+02  0.7816164E-02  0.1300439E+00
        -11   -1    0    0    0    0  0.00000000000E+00  0.00000000000E+00  0.45593999997E+02  0.45594000000E+02  0.51100000000E-03 0. -1.
         11   -1    0    0    0    0 -0.00000000000E+00 -0.00000000000E+00 -0.45593999997E+02  0.45594000000E+02  0.51100000000E-03 0.  1.
    9900012    2    1    2    0    0  0.36497946500E+01  0.30314819016E+02  0.26848759877E+02  0.50528866218E+02  0.30000019356E+02 0.  0.
        -12    1    1    2    0    0 -0.36497946500E+01 -0.30314819016E+02 -0.26848759877E+02  0.40659133782E+02  0.00000000000E+00 0.  1.
         11    1    3    3    0    0 -0.80468870425E+00  0.20279238377E+02  0.24700335476E+02  0.31968759844E+02  0.51100000000E-03 0. -1.
        -11    1    3    3    0    0  0.78804217444E+01  0.91733936966E+01  0.58579140794E+01  0.13437535355E+02  0.51100000000E-03 0.  1.
        -12    1    3    3    0    0 -0.34259383901E+01  0.86218694276E+00 -0.37094896785E+01  0.51225710197E+01  0.00000000000E+00 0.  1.
</event>
<event>
 7    1  0.5441610E-013  0.5052885E+02  0.7816164E-02  0.1300439E+00
        -11   -1    0    0    0    0  0.00000000000E+00  0.00000000000E+00  0.45593999997E+02  0.45594000000E+02  0.51100000000E-03 0.  1.
         11   -1    0    0    0    0 -0.00000000000E+00 -0.00000000000E+00 -0.45593999997E+02  0.45594000000E+02  0.51100000000E-03 0. -1.
    9900012    2    1    2    0    0 -0.22529521863E+01  0.17793005725E+02 -0.36489716725E+02  0.50528852530E+02  0.29999977750E+02 0.  0.
        -12    1    1    2    0    0  0.22529521863E+01 -0.17793005725E+02  0.36489716725E+02  0.40659147470E+02  0.00000000000E+00 0.  1.
         11    1    3    3    0    0  0.14330565187E+01  0.21866145609E+02 -0.32777071568E+02  0.39427381293E+02  0.51100000000E-03 0. -1.
        -11    1    3    3    0    0  0.17901935577E+01 -0.26629625155E+01 -0.43558664147E+01  0.54101510901E+01  0.51100000000E-03 0.  1.
        -12    1    3    3    0    0 -0.54762022627E+01 -0.14101773678E+01  0.64322125726E+00  0.56913201471E+01  0.00000000000E+00 0.  1.
</event>
<event>
 7    1  0.5441610E-013  0.5052886E+02  0.7816164E-02  0.1300439E+00
        -11   -1    0    0    0    0  0.00000000000E+00  0.00000000000E+00  0.45593999997E+02  0.45594000000E+02  0.51100000000E-03 0.  1.
         11   -1    0    0    0    0 -0.00000000000E+00 -0.00000000000E+00 -0.45593999997E+02  0.45594000000E+02  0.51100000000E-03 0. -1.
    9900012    2    1    2    0    0 -0.37074631392E+02 -0.40351293422E+01 -0.16197382889E+02  0.50528858665E+02  0.29999996398E+02 0.  0.
        -12    1    1    2    0    0  0.37074631392E+02  0.40351293422E+01  0.16197382889E+02  0.40659141335E+02  0.00000000000E+00 0.  1.
         11    1    3    3    0    0 -0.17542532899E+02  0.36764890282E+01 -0.11652629014E+02  0.21378512467E+02  0.51100000000E-03 0. -1.
        -11    1    3    3    0    0 -0.23102028938E+02 -0.36572936058E+01 -0.35536451371E+01  0.23658147257E+02  0.51100000000E-03 0.  1.
         12    1    3    3    0    0  0.35699304458E+01 -0.40543247646E+01 -0.99110873816E+00  0.54921989417E+01  0.00000000000E+00 0. -1.
</event>
<event>
 7    1  0.5441610E-013  0.5052886E+02  0.7816164E-02  0.1300439E+00
        -11   -1    0    0    0    0  0.00000000000E+00  0.00000000000E+00  0.45593999997E+02  0.45594000000E+02  0.51100000000E-03 0.  1.
         11   -1    0    0    0    0 -0.00000000000E+00 -0.00000000000E+00 -0.45593999997E+02  0.45594000000E+02  0.51100000000E-03 0. -1.
    9900012    2    1    2    0    0 -0.22521089766E+02  0.98971054359E+01 -0.32373037819E+02  0.50528858864E+02  0.29999997004E+02 0.  0.
        -12    1    1    2    0    0  0.22521089766E+02 -0.98971054359E+01  0.32373037819E+02  0.40659141136E+02  0.00000000000E+00 0.  1.
         11    1    3    3    0    0 -0.24027100629E+01 -0.74964091679E+01 -0.10568714089E+02  0.13178273172E+02  0.51100000000E-03 0.  1.
        -11    1    3    3    0    0 -0.98775686117E+01  0.49911940385E-01 -0.97416313957E+01  0.13873292161E+02  0.51100000000E-03 0. -1.
        -12    1    3    3    0    0 -0.10240811092E+02  0.17343602663E+02 -0.12062692335E+02  0.23477293531E+02  0.00000000000E+00 0.  1.
</event>
<event>
 7    1  0.5441610E-013  0.5052890E+02  0.7816164E-02  0.1300439E+00
        -11   -1    0    0    0    0  0.00000000000E+00  0.00000000000E+00  0.45593999997E+02  0.45594000000E+02  0.51100000000E-03 0.  1.
         11   -1    0    0    0    0 -0.00000000000E+00 -0.00000000000E+00 -0.45593999997E+02  0.45594000000E+02  0.51100000000E-03 0. -1.
    9900012    2    1    2    0    0  0.18497369190E+02  0.12558552088E+02 -0.33960164104E+02  0.50528897164E+02  0.30000113419E+02 0.  0.
        -12    1    1    2    0    0 -0.18497369190E+02 -0.12558552088E+02  0.33960164104E+02  0.40659102836E+02  0.00000000000E+00 0.  1.
         11    1    3    3    0    0  0.16990274938E+02  0.16777924928E+02 -0.23153796765E+02  0.33260584965E+02  0.51100000000E-03 0. -1.
        -11    1    3    3    0    0  0.57984356522E+01 -0.12872954817E+01 -0.80076092968E+00  0.59933466442E+01  0.51100000000E-03 0.  1.
        -12    1    3    3    0    0 -0.42913414000E+01 -0.29320773576E+01 -0.10005606409E+02  0.11274965555E+02  0.00000000000E+00 0.  1.
</event>
<event>
 7    1  0.5441610E-013  0.5052883E+02  0.7816164E-02  0.1300439E+00
        -11   -1    0    0    0    0  0.00000000000E+00  0.00000000000E+00  0.45593999997E+02  0.45594000000E+02  0.51100000000E-03 0. -1.
         11   -1    0    0    0    0 -0.00000000000E+00 -0.00000000000E+00 -0.45593999997E+02  0.45594000000E+02  0.51100000000E-03 0.  1.
    9900012    2    1    2    0    0  0.27744245869E+02 -0.18641494855E+02  0.23149937077E+02  0.50528830113E+02  0.29999909610E+02 0.  0.
        -12    1    1    2    0    0 -0.27744245869E+02  0.18641494855E+02 -0.23149937077E+02  0.40659169887E+02  0.00000000000E+00 0.  1.
         11    1    3    3    0    0  0.11328441339E+02 -0.20363040840E+02  0.15090405671E+02  0.27761616649E+02  0.51100000000E-03 0.  1.
        -11    1    3    3    0    0 -0.35833368683E+00 -0.32068117772E+01  0.33707113250E+01  0.46662340172E+01  0.51100000000E-03 0. -1.
         12    1    3    3    0    0  0.16774138217E+02  0.49283577617E+01  0.46888200810E+01  0.18100979446E+02  0.00000000000E+00 0. -1.
</event>
<event>
 7    1  0.5441610E-013  0.5052885E+02  0.7816164E-02  0.1300439E+00
        -11   -1    0    0    0    0  0.00000000000E+00  0.00000000000E+00  0.45593999997E+02  0.45594000000E+02  0.51100000000E-03 0. -1.
         11   -1    0    0    0    0 -0.00000000000E+00 -0.00000000000E+00 -0.45593999997E+02  0.45594000000E+02  0.51100000000E-03 0.  1.
    9900012    2    1    2    0    0 -0.16207309644E+02 -0.35500351404E+02  0.11411146251E+02  0.50528854725E+02  0.29999984423E+02 0.  0.
        -12    1    1    2    0    0  0.16207309644E+02  0.35500351404E+02 -0.11411146251E+02  0.40659145275E+02  0.00000000000E+00 0.  1.
         11    1    3    3    0    0  0.37248105730E+00  0.12393442123E+01 -0.21685651684E+01  0.25253497511E+01  0.51100000000E-03 0. -1.
        -11    1    3    3    0    0  0.55264822805E+00 -0.41987579170E+01 -0.52033975660E+01  0.67089741840E+01  0.51100000000E-03 0.  1.
         12    1    3    3    0    0 -0.17132438929E+02 -0.32540937699E+02  0.18783108986E+02  0.41294530790E+02  0.00000000000E+00 0. -1.
</event>
<event>
 7    1  0.5441610E-013  0.5052887E+02  0.7816164E-02  0.1300439E+00
        -11   -1    0    0    0    0  0.00000000000E+00  0.00000000000E+00  0.45593999997E+02  0.45594000000E+02  0.51100000000E-03 0.  1.
         11   -1    0    0    0    0 -0.00000000000E+00 -0.00000000000E+00 -0.45593999997E+02  0.45594000000E+02  0.51100000000E-03 0. -1.
    9900012    2    1    2    0    0  0.17972859461E+02 -0.24965487046E+02 -0.26586951637E+02  0.50528865503E+02  0.30000017184E+02 0.  0.
        -12    1    1    2    0    0 -0.17972859461E+02  0.24965487046E+02  0.26586951637E+02  0.40659134497E+02  0.00000000000E+00 0.  1.
         11    1    3    3    0    0  0.78769980500E+01 -0.56213601737E+01 -0.68699683795E+01  0.11867740066E+02  0.51100000000E-03 0. -1.
        -11    1    3    3    0    0  0.83503855448E+01 -0.12007620479E+01  0.35090330181E+01  0.91369623632E+01  0.51100000000E-03 0.  1.
        -12    1    3    3    0    0  0.17454758664E+01 -0.18143364824E+02 -0.23226016276E+02  0.29524163074E+02  0.00000000000E+00 0.  1.
</event>
<event>
 7    1  0.5441610E-013  0.5052886E+02  0.7816164E-02  0.1300439E+00
        -11   -1    0    0    0    0  0.00000000000E+00  0.00000000000E+00  0.45593999997E+02  0.45594000000E+02  0.51100000000E-03 0. -1.
         11   -1    0    0    0    0 -0.00000000000E+00 -0.00000000000E+00 -0.45593999997E+02  0.45594000000E+02  0.51100000000E-03 0.  1.
    9900012    2    1    2    0    0 -0.37404715024E+02  0.88379672159E+01  0.13264352451E+02  0.50528863063E+02  0.30000009765E+02 0.  0.
        -12    1    1    2    0    0  0.37404715024E+02 -0.88379672159E+01 -0.13264352451E+02  0.40659136937E+02  0.00000000000E+00 0.  1.
         11    1    3    3    0    0  0.77003915222E+00  0.36471627063E+01  0.31089105700E+01  0.48538728141E+01  0.51100000000E-03 0. -1.
        -11    1    3    3    0    0 -0.12669298160E+02 -0.87963656794E+01  0.28834173366E+01  0.15690801791E+02  0.51100000000E-03 0.  1.
         12    1    3    3    0    0 -0.25505456016E+02  0.13987170189E+02  0.72720245442E+01  0.29984188458E+02  0.00000000000E+00 0. -1.
</event>
<event>
 7    1  0.5441610E-013  0.5052886E+02  0.7816164E-02  0.1300439E+00
        -11   -1    0    0    0    0  0.00000000000E+00  0.00000000000E+00  0.45593999997E+02  0.45594000000E+02  0.51100000000E-03 0. -1.
         11   -1    0    0    0    0 -0.00000000000E+00 -0.00000000000E+00 -0.45593999997E+02  0.45594000000E+02  0.51100000000E-03 0.  1.
    9900012    2    1    2    0    0  0.14004262032E+02  0.38058011665E+02 -0.29384036288E+01  0.50528858065E+02  0.29999994575E+02 0.  0.
        -12    1    1    2    0    0 -0.14004262032E+02 -0.38058011665E+02  0.29384036288E+01  0.40659141935E+02  0.00000000000E+00 0.  1.
         11    1    3    3    0    0  0.50145790483E+01  0.10255497904E+02 -0.58623002884E+01  0.12833074660E+02  0.51100000000E-03 0. -1.
        -11    1    3    3    0    0 -0.25623556572E+01  0.25552123268E+02  0.53084072265E+00  0.25685763803E+02  0.51100000000E-03 0.  1.
        -12    1    3    3    0    0  0.11552038641E+02  0.22503904934E+01  0.23930559370E+01  0.12010019603E+02  0.00000000000E+00 0.  1.
</event>
<event>
 7    1  0.5441610E-013  0.5052887E+02  0.7816164E-02  0.1300439E+00
        -11   -1    0    0    0    0  0.00000000000E+00  0.00000000000E+00  0.45593999997E+02  0.45594000000E+02  0.51100000000E-03 0. -1.
         11   -1    0    0    0    0 -0.00000000000E+00 -0.00000000000E+00 -0.45593999997E+02  0.45594000000E+02  0.51100000000E-03 0.  1.
    9900012    2    1    2    0    0 -0.17087842259E+01  0.37848796019E+01  0.40446507116E+02  0.50528865786E+02  0.30000018042E+02 0.  0.
        -12    1    1    2    0    0  0.17087842259E+01 -0.37848796019E+01 -0.40446507116E+02  0.40659134214E+02  0.00000000000E+00 0.  1.
         11    1    3    3    0    0  0.53007524307E+00 -0.20932883919E+01 -0.23858897181E+01  0.32179661376E+01  0.51100000000E-03 0.  1.
        -11    1    3    3    0    0 -0.79015551994E+01  0.24109807015E+01  0.68811394818E+01  0.10751627009E+02  0.51100000000E-03 0. -1.
         12    1    3    3    0    0  0.56626957304E+01  0.34671872923E+01  0.35951257353E+02  0.36559272639E+02  0.00000000000E+00 0. -1.
</event>
<event>
 7    1  0.5441610E-013  0.5052885E+02  0.7816164E-02  0.1300439E+00
        -11   -1    0    0    0    0  0.00000000000E+00  0.00000000000E+00  0.45593999997E+02  0.45594000000E+02  0.51100000000E-03 0.  1.
         11   -1    0    0    0    0 -0.00000000000E+00 -0.00000000000E+00 -0.45593999997E+02  0.45594000000E+02  0.51100000000E-03 0. -1.
    9900012    2    1    2    0    0  0.15451486367E+02 -0.32721451254E+02 -0.18539805644E+02  0.50528853471E+02  0.29999980611E+02 0.  0.
        -12    1    1    2    0    0 -0.15451486367E+02  0.32721451254E+02  0.18539805644E+02  0.40659146529E+02  0.00000000000E+00 0.  1.
         11    1    3    3    0    0  0.94097941078E+01 -0.15598985178E+02  0.65016887821E+01  0.19342815746E+02  0.51100000000E-03 0.  1.
        -11    1    3    3    0    0 -0.44090749680E+00 -0.31009096347E+01 -0.45652542325E+01  0.55363874912E+01  0.51100000000E-03 0. -1.
        -12    1    3    3    0    0  0.64825997565E+01 -0.14021556442E+02 -0.20476240193E+02  0.25649650234E+02  0.00000000000E+00 0.  1.
</event>
<event>
 7    1  0.5441610E-013  0.5052886E+02  0.7816164E-02  0.1300439E+00
        -11   -1    0    0    0    0  0.00000000000E+00  0.00000000000E+00  0.45593999997E+02  0.45594000000E+02  0.51100000000E-03 0. -1.
         11   -1    0    0    0    0 -0.00000000000E+00 -0.00000000000E+00 -0.45593999997E+02  0.45594000000E+02  0.51100000000E-03 0.  1.
    9900012    2    1    2    0    0 -0.42825839286E+01 -0.34041851018E+02  0.21816903323E+02  0.50528863063E+02  0.30000009768E+02 0.  0.
        -12    1    1    2    0    0  0.42825839286E+01  0.34041851018E+02 -0.21816903323E+02  0.40659136937E+02  0.00000000000E+00 0.  1.
         11    1    3    3    0    0 -0.87110201111E+01 -0.83801385905E+01  0.14088658314E+02  0.18563374895E+02  0.51100000000E-03 0. -1.
        -11    1    3    3    0    0 -0.31996419607E+01 -0.30566235319E+01  0.67711835925E+01  0.80888555184E+01  0.51100000000E-03 0.  1.
        -12    1    3    3    0    0  0.76280781432E+01 -0.22605088895E+02  0.95706141684E+00  0.23876632650E+02  0.00000000000E+00 0.  1.
</event>
<event>
 7    1  0.5441610E-013  0.5052886E+02  0.7816164E-02  0.1300439E+00
        -11   -1    0    0    0    0  0.00000000000E+00  0.00000000000E+00  0.45593999997E+02  0.45594000000E+02  0.51100000000E-03 0.  1.
         11   -1    0    0    0    0 -0.00000000000E+00 -0.00000000000E+00 -0.45593999997E+02  0.45594000000E+02  0.51100000000E-03 0. -1.
    9900012    2    1    2    0    0  0.74804863283E+01 -0.17195331270E+02 -0.36076702566E+02  0.50528861283E+02  0.30000004355E+02 0.  0.
        -12    1    1    2    0    0 -0.74804863283E+01  0.17195331270E+02  0.36076702566E+02  0.40659138717E+02  0.00000000000E+00 0.  1.
         11    1    3    3    0    0  0.81728480671E+01 -0.91585533294E+01 -0.27415930556E+02  0.30038438594E+02  0.51100000000E-03 0. -1.
        -11    1    3    3    0    0  0.56901170305E+00  0.50482273460E+01 -0.42531130553E+01  0.66255071185E+01  0.51100000000E-03 0.  1.
        -12    1    3    3    0    0 -0.12613734418E+01 -0.13085005287E+02 -0.44076589543E+01  0.13864915570E+02  0.00000000000E+00 0.  1.
</event>
<event>
 7    1  0.5441610E-013  0.5052886E+02  0.7816164E-02  0.1300439E+00
        -11   -1    0    0    0    0  0.00000000000E+00  0.00000000000E+00  0.45593999997E+02  0.45594000000E+02  0.51100000000E-03 0.  1.
         11   -1    0    0    0    0 -0.00000000000E+00 -0.00000000000E+00 -0.45593999997E+02  0.45594000000E+02  0.51100000000E-03 0. -1.
    9900012    2    1    2    0    0  0.34462860631E+02 -0.21533212045E+02  0.13408591758E+01  0.50528857274E+02  0.29999992170E+02 0.  0.
        -12    1    1    2    0    0 -0.34462860631E+02  0.21533212045E+02 -0.13408591758E+01  0.40659142726E+02  0.00000000000E+00 0.  1.
         11    1    3    3    0    0  0.33362134996E+01 -0.95439235377E+01  0.55613971418E+00  0.10125516710E+02  0.51100000000E-03 0. -1.
        -11    1    3    3    0    0  0.24244992628E+02 -0.17191145037E+02 -0.48290857225E+01  0.30111047879E+02  0.51100000000E-03 0.  1.
        -12    1    3    3    0    0  0.68816545041E+01  0.52018565292E+01  0.56138051842E+01  0.10292292685E+02  0.00000000000E+00 0.  1.
</event>
<event>
 7    1  0.5670394E-013  0.5052886E+02  0.7816164E-02  0.1300439E+00
        -11   -1    0    0    0    0  0.00000000000E+00  0.00000000000E+00  0.45593999997E+02  0.45594000000E+02  0.51100000000E-03 0.  1.
         11   -1    0    0    0    0 -0.00000000000E+00 -0.00000000000E+00 -0.45593999997E+02  0.45594000000E+02  0.51100000000E-03 0. -1.
    9900012    2    1    2    0    0  0.97396862908E+01  0.34488237791E+02  0.19205881795E+02  0.50528856742E+02  0.29999990552E+02 0.  0.
        -12    1    1    2    0    0 -0.97396862908E+01 -0.34488237791E+02 -0.19205881795E+02  0.40659143258E+02  0.00000000000E+00 0.  1.
         11    1    3    3    0    0  0.30896442010E+01  0.11652822650E+02  0.21615009916E+01  0.12247704430E+02  0.51100000000E-03 0. -1.
        -11    1    3    3    0    0  0.16188417209E+01  0.22885971223E+02  0.21587198074E+02  0.31502308618E+02  0.51100000000E-03 0.  1.
        -12    1    3    3    0    0  0.50312003689E+01 -0.50556081767E-01 -0.45428172705E+01  0.67788436936E+01  0.00000000000E+00 0.  1.
</event>
<event>
 7    1  0.5441610E-013  0.5052885E+02  0.7816164E-02  0.1300439E+00
        -11   -1    0    0    0    0  0.00000000000E+00  0.00000000000E+00  0.45593999997E+02  0.45594000000E+02  0.51100000000E-03 0.  1.
         11   -1    0    0    0    0 -0.00000000000E+00 -0.00000000000E+00 -0.45593999997E+02  0.45594000000E+02  0.51100000000E-03 0. -1.
    9900012    2    1    2    0    0 -0.11000619714E+02 -0.14242321289E+02 -0.36459687743E+02  0.50528853672E+02  0.29999981223E+02 0.  0.
        -12    1    1    2    0    0  0.11000619714E+02  0.14242321289E+02  0.36459687743E+02  0.40659146328E+02  0.00000000000E+00 0.  1.
         11    1    3    3    0    0 -0.24863267400E+01 -0.29396700755E+01 -0.33320220970E+02  0.33541923120E+02  0.51100000000E-03 0. -1.
        -11    1    3    3    0    0  0.11716935775E+01 -0.43714279590E+01 -0.22202410422E+01  0.50410037480E+01  0.51100000000E-03 0.  1.
        -12    1    3    3    0    0 -0.96859865513E+01 -0.69312232548E+01 -0.91922573037E+00  0.11945926805E+02  0.00000000000E+00 0.  1.
</event>
<event>
 7    1  0.5441610E-013  0.5052886E+02  0.7816164E-02  0.1300439E+00
        -11   -1    0    0    0    0  0.00000000000E+00  0.00000000000E+00  0.45593999997E+02  0.45594000000E+02  0.51100000000E-03 0.  1.
         11   -1    0    0    0    0 -0.00000000000E+00 -0.00000000000E+00 -0.45593999997E+02  0.45594000000E+02  0.51100000000E-03 0. -1.
    9900012    2    1    2    0    0  0.26026610683E+02  0.20136527517E+02 -0.23880989003E+02  0.50528857856E+02  0.29999993940E+02 0.  0.
        -12    1    1    2    0    0 -0.26026610683E+02 -0.20136527517E+02  0.23880989003E+02  0.40659142144E+02  0.00000000000E+00 0.  1.
         11    1    3    3    0    0  0.89085986063E+01  0.77226581414E+01 -0.17840064028E+01  0.11924145965E+02  0.51100000000E-03 0. -1.
        -11    1    3    3    0    0 -0.25612115107E+01  0.31640169322E+01  0.32497274646E+01  0.52087941411E+01  0.51100000000E-03 0.  1.
         12    1    3    3    0    0  0.19679223587E+02  0.92498524438E+01 -0.25346710065E+02  0.33395917750E+02  0.00000000000E+00 0. -1.
</event>
<event>
 7    1  0.5441610E-013  0.5052887E+02  0.7816164E-02  0.1300439E+00
        -11   -1    0    0    0    0  0.00000000000E+00  0.00000000000E+00  0.45593999997E+02  0.45594000000E+02  0.51100000000E-03 0.  1.
         11   -1    0    0    0    0 -0.00000000000E+00 -0.00000000000E+00 -0.45593999997E+02  0.45594000000E+02  0.51100000000E-03 0. -1.
    9900012    2    1    2    0    0  0.10793202877E+02 -0.36866840009E+02  0.13323189314E+02  0.50528874406E+02  0.30000044244E+02 0.  0.
        -12    1    1    2    0    0 -0.10793202877E+02  0.36866840009E+02 -0.13323189314E+02  0.40659125594E+02  0.00000000000E+00 0.  1.
         11    1    3    3    0    0  0.50660440669E+01 -0.62358414987E+01  0.10492273968E+02  0.13215079832E+02  0.51100000000E-03 0. -1.
        -11    1    3    3    0    0 -0.16385043057E+01  0.93696156358E+00  0.44744660513E+01  0.48562784142E+01  0.51100000000E-03 0.  1.
         12    1    3    3    0    0  0.73656631159E+01 -0.31567960073E+02 -0.16435507049E+01  0.32457516160E+02  0.00000000000E+00 0. -1.
</event>
<event>
 7    1  0.5441610E-013  0.5052886E+02  0.7816164E-02  0.1300439E+00
        -11   -1    0    0    0    0  0.00000000000E+00  0.00000000000E+00  0.45593999997E+02  0.45594000000E+02  0.51100000000E-03 0.  1.
         11   -1    0    0    0    0 -0.00000000000E+00 -0.00000000000E+00 -0.45593999997E+02  0.45594000000E+02  0.51100000000E-03 0. -1.
    9900012    2    1    2    0    0  0.33042774358E+02  0.18133126441E+02  0.15248940239E+02  0.50528863386E+02  0.30000010748E+02 0.  0.
        -12    1    1    2    0    0 -0.33042774358E+02 -0.18133126441E+02 -0.15248940239E+02  0.40659136614E+02  0.00000000000E+00 0.  1.
         11    1    3    3    0    0  0.22241930961E+02  0.92927857944E+01  0.44426269464E+01  0.24511146345E+02  0.51100000000E-03 0. -1.
        -11    1    3    3    0    0  0.64018047961E+01  0.13198091843E+02  0.13718948746E+01  0.14732780754E+02  0.51100000000E-03 0.  1.
        -12    1    3    3    0    0  0.43990386004E+01 -0.43577511966E+01  0.94344184181E+01  0.11284936286E+02  0.00000000000E+00 0.  1.
</event>
<event>
 7    1  0.5441610E-013  0.5052886E+02  0.7816164E-02  0.1300439E+00
        -11   -1    0    0    0    0  0.00000000000E+00  0.00000000000E+00  0.45593999997E+02  0.45594000000E+02  0.51100000000E-03 0. -1.
         11   -1    0    0    0    0 -0.00000000000E+00 -0.00000000000E+00 -0.45593999997E+02  0.45594000000E+02  0.51100000000E-03 0.  1.
    9900012    2    1    2    0    0 -0.95442303924E+00 -0.31321929502E+02  0.25907359529E+02  0.50528862419E+02  0.30000007808E+02 0.  0.
        -12    1    1    2    0    0  0.95442303924E+00  0.31321929502E+02 -0.25907359529E+02  0.40659137581E+02  0.00000000000E+00 0.  1.
         11    1    3    3    0    0 -0.52400589354E+01 -0.16798938298E+01  0.31837355022E+01  0.63573919916E+01  0.51100000000E-03 0. -1.
        -11    1    3    3    0    0  0.77617310104E+01 -0.15707584283E+02  0.24042903948E+02  0.29749519371E+02  0.51100000000E-03 0.  1.
         12    1    3    3    0    0 -0.34760951143E+01 -0.13934451389E+02 -0.13192799209E+01  0.14421951056E+02  0.00000000000E+00 0. -1.
</event>
<event>
 7    1  0.5441610E-013  0.5052885E+02  0.7816164E-02  0.1300439E+00
        -11   -1    0    0    0    0  0.00000000000E+00  0.00000000000E+00  0.45593999997E+02  0.45594000000E+02  0.51100000000E-03 0.  1.
         11   -1    0    0    0    0 -0.00000000000E+00 -0.00000000000E+00 -0.45593999997E+02  0.45594000000E+02  0.51100000000E-03 0. -1.
    9900012    2    1    2    0    0 -0.16806273182E+02 -0.34445611327E+01 -0.36862590491E+02  0.50528851001E+02  0.29999973101E+02 0.  0.
        -12    1    1    2    0    0  0.16806273182E+02  0.34445611327E+01  0.36862590491E+02  0.40659148999E+02  0.00000000000E+00 0.  1.
         11    1    3    3    0    0 -0.69226108388E+01 -0.83960593011E+01 -0.23575057227E+02  0.25965355305E+02  0.51100000000E-03 0. -1.
        -11    1    3    3    0    0 -0.62108238754E+01 -0.61499768087E+01 -0.74957609709E+01  0.11514468323E+02  0.51100000000E-03 0.  1.
         12    1    3    3    0    0 -0.36728384676E+01  0.11101474977E+02 -0.57917722929E+01  0.13049027373E+02  0.00000000000E+00 0. -1.
</event>
<event>
 7    1  0.5441610E-013  0.5052885E+02  0.7816164E-02  0.1300439E+00
        -11   -1    0    0    0    0  0.00000000000E+00  0.00000000000E+00  0.45593999997E+02  0.45594000000E+02  0.51100000000E-03 0.  1.
         11   -1    0    0    0    0 -0.00000000000E+00 -0.00000000000E+00 -0.45593999997E+02  0.45594000000E+02  0.51100000000E-03 0. -1.
    9900012    2    1    2    0    0 -0.33421347414E+02  0.19776117836E+02 -0.12045133543E+02  0.50528849226E+02  0.29999967708E+02 0.  0.
        -12    1    1    2    0    0  0.33421347414E+02 -0.19776117836E+02  0.12045133543E+02  0.40659150774E+02  0.00000000000E+00 0.  1.
         11    1    3    3    0    0 -0.65123137107E+01  0.11066451337E+02 -0.69384326142E+01  0.14595150649E+02  0.51100000000E-03 0. -1.
        -11    1    3    3    0    0 -0.66317850893E+01 -0.58665623708E+01 -0.64039404302E+01  0.10927377582E+02  0.51100000000E-03 0.  1.
        -12    1    3    3    0    0 -0.20277248614E+02  0.14576228869E+02  0.12972395018E+01  0.25006320995E+02  0.00000000000E+00 0.  1.
</event>
<event>
 7    1  0.5441610E-013  0.5052886E+02  0.7816164E-02  0.1300439E+00
        -11   -1    0    0    0    0  0.00000000000E+00  0.00000000000E+00  0.45593999997E+02  0.45594000000E+02  0.51100000000E-03 0. -1.
         11   -1    0    0    0    0 -0.00000000000E+00 -0.00000000000E+00 -0.45593999997E+02  0.45594000000E+02  0.51100000000E-03 0.  1.
    9900012    2    1    2    0    0  0.12968783321E+02 -0.14247268920E+02  0.35804913510E+02  0.50528857806E+02  0.29999993786E+02 0.  0.
        -12    1    1    2    0    0 -0.12968783321E+02  0.14247268920E+02 -0.35804913510E+02  0.40659142194E+02  0.00000000000E+00 0.  1.
         11    1    3    3    0    0  0.40282613176E+01  0.11823078628E+01  0.13587245750E+02  0.14221040343E+02  0.51100000000E-03 0. -1.
        -11    1    3    3    0    0 -0.31958531598E+01  0.12921555098E+01 -0.23761083467E+01  0.41867689710E+01  0.51100000000E-03 0.  1.
         12    1    3    3    0    0  0.12136375163E+02 -0.16721732292E+02  0.24593776107E+02  0.32121048491E+02  0.00000000000E+00 0. -1.
</event>
<event>
 7    1  0.5441610E-013  0.5052886E+02  0.7816164E-02  0.1300439E+00
        -11   -1    0    0    0    0  0.00000000000E+00  0.00000000000E+00  0.45593999997E+02  0.45594000000E+02  0.51100000000E-03 0.  1.
         11   -1    0    0    0    0 -0.00000000000E+00 -0.00000000000E+00 -0.45593999997E+02  0.45594000000E+02  0.51100000000E-03 0. -1.
    9900012    2    1    2    0    0 -0.25052144984E+02  0.61654732895E+01 -0.31425195998E+02  0.50528856223E+02  0.29999988976E+02 0.  0.
        -12    1    1    2    0    0  0.25052144984E+02 -0.61654732895E+01  0.31425195998E+02  0.40659143777E+02  0.00000000000E+00 0.  1.
         11    1    3    3    0    0 -0.20951490285E+02  0.78353319270E+01 -0.18686014625E+02  0.29146603823E+02  0.51100000000E-03 0. -1.
        -11    1    3    3    0    0 -0.69432599672E+01 -0.73978124970E+01 -0.49036905516E+01  0.11268658749E+02  0.51100000000E-03 0.  1.
        -12    1    3    3    0    0  0.28426052689E+01  0.57279538595E+01 -0.78354908217E+01  0.10113593652E+02  0.00000000000E+00 0.  1.
</event>
<event>
 7    1  0.5441610E-013  0.5052885E+02  0.7816164E-02  0.1300439E+00
        -11   -1    0    0    0    0  0.00000000000E+00  0.00000000000E+00  0.45593999997E+02  0.45594000000E+02  0.51100000000E-03 0.  1.
         11   -1    0    0    0    0 -0.00000000000E+00 -0.00000000000E+00 -0.45593999997E+02  0.45594000000E+02  0.51100000000E-03 0. -1.
    9900012    2    1    2    0    0 -0.28070247697E+02  0.65416559771E+01 -0.28678112271E+02  0.50528853525E+02  0.29999980773E+02 0.  0.
        -12    1    1    2    0    0  0.28070247697E+02 -0.65416559771E+01  0.28678112271E+02  0.40659146475E+02  0.00000000000E+00 0.  1.
         11    1    3    3    0    0 -0.11448870767E+02  0.11049849132E+01 -0.14622446722E+01  0.11594645024E+02  0.51100000000E-03 0. -1.
        -11    1    3    3    0    0  0.34502210287E+01  0.32064938639E+01 -0.14069805063E+02  0.14837285561E+02  0.51100000000E-03 0.  1.
         12    1    3    3    0    0 -0.20071597958E+02  0.22301772000E+01 -0.13146062536E+02  0.24096922939E+02  0.00000000000E+00 0. -1.
</event>
<event>
 7    1  0.5441610E-013  0.5052886E+02  0.7816164E-02  0.1300439E+00
        -11   -1    0    0    0    0  0.00000000000E+00  0.00000000000E+00  0.45593999997E+02  0.45594000000E+02  0.51100000000E-03 0.  1.
         11   -1    0    0    0    0 -0.00000000000E+00 -0.00000000000E+00 -0.45593999997E+02  0.45594000000E+02  0.51100000000E-03 0. -1.
    9900012    2    1    2    0    0  0.30449464681E+02  0.64578486811E+00 -0.26936571860E+02  0.50528857842E+02  0.29999993897E+02 0.  0.
        -12    1    1    2    0    0 -0.30449464681E+02 -0.64578486811E+00  0.26936571860E+02  0.40659142158E+02  0.00000000000E+00 0.  1.
         11    1    3    3    0    0  0.23067315816E+02  0.10475851496E+01 -0.14627729488E+02  0.27334391595E+02  0.51100000000E-03 0. -1.
        -11    1    3    3    0    0  0.62214684768E+01  0.30131402224E+00 -0.17108269697E+02  0.18206876515E+02  0.51100000000E-03 0.  1.
        -12    1    3    3    0    0  0.11606803878E+01 -0.70311430370E+00  0.47994273254E+01  0.49875897324E+01  0.00000000000E+00 0.  1.
</event>
<event>
 7    1  0.5441610E-013  0.5052890E+02  0.7816164E-02  0.1300439E+00
        -11   -1    0    0    0    0  0.00000000000E+00  0.00000000000E+00  0.45593999997E+02  0.45594000000E+02  0.51100000000E-03 0.  1.
         11   -1    0    0    0    0 -0.00000000000E+00 -0.00000000000E+00 -0.45593999997E+02  0.45594000000E+02  0.51100000000E-03 0. -1.
    9900012    2    1    2    0    0 -0.40435341580E+01  0.31738157226E+02 -0.25089873669E+02  0.50528898272E+02  0.30000116788E+02 0.  0.
        -12    1    1    2    0    0  0.40435341580E+01 -0.31738157226E+02  0.25089873669E+02  0.40659101728E+02  0.00000000000E+00 0.  1.
         11    1    3    3    0    0 -0.68626668448E+00  0.18865891398E+02 -0.32519818262E+01  0.19156414233E+02  0.51100000000E-03 0. -1.
        -11    1    3    3    0    0  0.70542739225E+01  0.54304761328E+01 -0.49587958674E+01  0.10190314437E+02  0.51100000000E-03 0.  1.
         12    1    3    3    0    0 -0.10411541396E+02  0.74417896944E+01 -0.16879095976E+02  0.21182169602E+02  0.00000000000E+00 0. -1.
</event>
<event>
 7    1  0.5441610E-013  0.5052886E+02  0.7816164E-02  0.1300439E+00
        -11   -1    0    0    0    0  0.00000000000E+00  0.00000000000E+00  0.45593999997E+02  0.45594000000E+02  0.51100000000E-03 0.  1.
         11   -1    0    0    0    0 -0.00000000000E+00 -0.00000000000E+00 -0.45593999997E+02  0.45594000000E+02  0.51100000000E-03 0. -1.
    9900012    2    1    2    0    0  0.24595431335E+02 -0.39179358302E+01 -0.32138451470E+02  0.50528861708E+02  0.30000005648E+02 0.  0.
        -12    1    1    2    0    0 -0.24595431335E+02  0.39179358302E+01  0.32138451470E+02  0.40659138292E+02  0.00000000000E+00 0.  1.
         11    1    3    3    0    0  0.13064517472E+02 -0.13546191650E+02 -0.93818675750E+01  0.21028560684E+02  0.51100000000E-03 0. -1.
        -11    1    3    3    0    0  0.55820877008E+01  0.52682241484E+01 -0.27098936067E+01  0.81398656254E+01  0.51100000000E-03 0.  1.
        -12    1    3    3    0    0  0.59488261624E+01  0.43600316717E+01 -0.20046690289E+02  0.21360435399E+02  0.00000000000E+00 0.  1.
</event>
<event>
 7    1  0.5441610E-013  0.5052889E+02  0.7816164E-02  0.1300439E+00
        -11   -1    0    0    0    0  0.00000000000E+00  0.00000000000E+00  0.45593999997E+02  0.45594000000E+02  0.51100000000E-03 0.  1.
         11   -1    0    0    0    0 -0.00000000000E+00 -0.00000000000E+00 -0.45593999997E+02  0.45594000000E+02  0.51100000000E-03 0. -1.
    9900012    2    1    2    0    0  0.11495968976E+02 -0.33473214034E+02  0.20013748890E+02  0.50528886568E+02  0.30000081211E+02 0.  0.
        -12    1    1    2    0    0 -0.11495968976E+02  0.33473214034E+02 -0.20013748890E+02  0.40659113432E+02  0.00000000000E+00 0.  1.
         11    1    3    3    0    0 -0.50507888458E+00 -0.23140875016E+02  0.17392231121E+02  0.28952459392E+02  0.51100000000E-03 0. -1.
        -11    1    3    3    0    0  0.13055942661E+02 -0.80859690736E+01  0.67375834954E+01  0.16770079495E+02  0.51100000000E-03 0.  1.
        -12    1    3    3    0    0 -0.10548948009E+01 -0.22463699444E+01 -0.41160657268E+01  0.48063476815E+01  0.00000000000E+00 0.  1.
</event>
<event>
 7    1  0.5441610E-013  0.5052879E+02  0.7816164E-02  0.1300439E+00
        -11   -1    0    0    0    0  0.00000000000E+00  0.00000000000E+00  0.45593999997E+02  0.45594000000E+02  0.51100000000E-03 0.  1.
         11   -1    0    0    0    0 -0.00000000000E+00 -0.00000000000E+00 -0.45593999997E+02  0.45594000000E+02  0.51100000000E-03 0. -1.
    9900012    2    1    2    0    0 -0.14283056942E+02 -0.24781141965E+02 -0.28897420523E+02  0.50528786707E+02  0.29999777674E+02 0.  0.
        -12    1    1    2    0    0  0.14283056942E+02  0.24781141965E+02  0.28897420523E+02  0.40659213293E+02  0.00000000000E+00 0.  1.
         11    1    3    3    0    0 -0.19592315540E+01 -0.73058617485E+01 -0.31372523619E+01  0.81888068004E+01  0.51100000000E-03 0.  1.
        -11    1    3    3    0    0 -0.83635378599E+01 -0.12078311821E+02 -0.30690888789E+02  0.34025946524E+02  0.51100000000E-03 0. -1.
         12    1    3    3    0    0 -0.39602875284E+01 -0.53969683956E+01  0.49307206276E+01  0.83140333820E+01  0.00000000000E+00 0. -1.
</event>
<event>
 7    1  0.5441610E-013  0.5052883E+02  0.7816164E-02  0.1300439E+00
        -11   -1    0    0    0    0  0.00000000000E+00  0.00000000000E+00  0.45593999997E+02  0.45594000000E+02  0.51100000000E-03 0. -1.
         11   -1    0    0    0    0 -0.00000000000E+00 -0.00000000000E+00 -0.45593999997E+02  0.45594000000E+02  0.51100000000E-03 0.  1.
    9900012    2    1    2    0    0  0.31790452836E+02 -0.21166941457E+02 -0.13946165290E+02  0.50528833402E+02  0.29999919608E+02 0.  0.
        -12    1    1    2    0    0 -0.31790452836E+02  0.21166941457E+02  0.13946165290E+02  0.40659166598E+02  0.00000000000E+00 0.  1.
         11    1    3    3    0    0  0.40760650918E+01 -0.12856632206E+02 -0.54385803081E+01  0.14542539474E+02  0.51100000000E-03 0. -1.
        -11    1    3    3    0    0 -0.11113647262E+01 -0.43636720410E+01 -0.49227596094E+01  0.66716060787E+01  0.51100000000E-03 0.  1.
        -12    1    3    3    0    0  0.28825752471E+02 -0.39466372097E+01 -0.35848253722E+01  0.29314687850E+02  0.00000000000E+00 0.  1.
</event>
<event>
 7    1  0.5441610E-013  0.5052891E+02  0.7816164E-02  0.1300439E+00
        -11   -1    0    0    0    0  0.00000000000E+00  0.00000000000E+00  0.45593999997E+02  0.45594000000E+02  0.51100000000E-03 0. -1.
         11   -1    0    0    0    0 -0.00000000000E+00 -0.00000000000E+00 -0.45593999997E+02  0.45594000000E+02  0.51100000000E-03 0.  1.
    9900012    2    1    2    0    0 -0.30720176230E+01  0.15587770801E+02  0.37426542014E+02  0.50528905839E+02  0.30000139789E+02 0.  0.
        -12    1    1    2    0    0  0.30720176230E+01 -0.15587770801E+02 -0.37426542014E+02  0.40659094161E+02  0.00000000000E+00 0.  1.
         11    1    3    3    0    0  0.45033525248E+01  0.95099756552E+01  0.81007807888E+01  0.13279400234E+02  0.51100000000E-03 0. -1.
        -11    1    3    3    0    0  0.62673064805E+01 -0.23427554306E+01  0.72465501345E+01  0.98630686220E+01  0.51100000000E-03 0.  1.
         12    1    3    3    0    0 -0.13842676628E+02  0.84205505760E+01  0.22079211091E+02  0.27386436983E+02  0.00000000000E+00 0. -1.
</event>
<event>
 7    1  0.5441610E-013  0.5052887E+02  0.7816164E-02  0.1300439E+00
        -11   -1    0    0    0    0  0.00000000000E+00  0.00000000000E+00  0.45593999997E+02  0.45594000000E+02  0.51100000000E-03 0.  1.
         11   -1    0    0    0    0 -0.00000000000E+00 -0.00000000000E+00 -0.45593999997E+02  0.45594000000E+02  0.51100000000E-03 0. -1.
    9900012    2    1    2    0    0 -0.33291585266E+02  0.23492849946E+01 -0.23223172393E+02  0.50528874019E+02  0.30000043068E+02 0.  0.
        -12    1    1    2    0    0  0.33291585266E+02 -0.23492849946E+01  0.23223172393E+02  0.40659125981E+02  0.00000000000E+00 0.  1.
         11    1    3    3    0    0 -0.36721998718E+01  0.41196950196E+01 -0.66278860991E+01  0.86247210597E+01  0.51100000000E-03 0. -1.
        -11    1    3    3    0    0  0.27536141164E+01  0.46579267767E+01 -0.31847674812E+01  0.62786476832E+01  0.51100000000E-03 0.  1.
        -12    1    3    3    0    0 -0.32372999511E+02 -0.64283368016E+01 -0.13410518813E+02  0.35625505276E+02  0.00000000000E+00 0.  1.
</event>
<event>
 7    1  0.5441610E-013  0.5052886E+02  0.7816164E-02  0.1300439E+00
        -11   -1    0    0    0    0  0.00000000000E+00  0.00000000000E+00  0.45593999997E+02  0.45594000000E+02  0.51100000000E-03 0.  1.
         11   -1    0    0    0    0 -0.00000000000E+00 -0.00000000000E+00 -0.45593999997E+02  0.45594000000E+02  0.51100000000E-03 0. -1.
    9900012    2    1    2    0    0 -0.22911576032E+02  0.50770602244E+00 -0.33585231232E+02  0.50528857872E+02  0.29999993986E+02 0.  0.
        -12    1    1    2    0    0  0.22911576032E+02 -0.50770602244E+00  0.33585231232E+02  0.40659142128E+02  0.00000000000E+00 0.  1.
         11    1    3    3    0    0 -0.97005133114E+01 -0.64663391404E+01 -0.10138177759E+02  0.15449794462E+02  0.51100000000E-03 0. -1.
        -11    1    3    3    0    0  0.22640660511E+01 -0.44034740482E+01 -0.24391856529E+00  0.49574262783E+01  0.51100000000E-03 0.  1.
         12    1    3    3    0    0 -0.15475128772E+02  0.11377519211E+02 -0.23203134908E+02  0.30121637131E+02  0.00000000000E+00 0. -1.
</event>
<event>
 7    1  0.5441610E-013  0.5052887E+02  0.7816164E-02  0.1300439E+00
        -11   -1    0    0    0    0  0.00000000000E+00  0.00000000000E+00  0.45593999997E+02  0.45594000000E+02  0.51100000000E-03 0.  1.
         11   -1    0    0    0    0 -0.00000000000E+00 -0.00000000000E+00 -0.45593999997E+02  0.45594000000E+02  0.51100000000E-03 0. -1.
    9900012    2    1    2    0    0  0.30769113321E+02  0.21397659550E+02 -0.15766001021E+02  0.50528868714E+02  0.30000026942E+02 0.  0.
        -12    1    1    2    0    0 -0.30769113321E+02 -0.21397659550E+02  0.15766001021E+02  0.40659131286E+02  0.00000000000E+00 0.  1.
         11    1    3    3    0    0  0.69826711472E+00 -0.39639268128E+01 -0.51992363038E+01  0.65751312644E+01  0.51100000000E-03 0. -1.
        -11    1    3    3    0    0  0.50668881886E+01  0.12506403090E+02  0.10471281765E+01  0.13534398836E+02  0.51100000000E-03 0.  1.
        -12    1    3    3    0    0  0.25003958018E+02  0.12855183272E+02 -0.11613892893E+02  0.30419338613E+02  0.00000000000E+00 0.  1.
</event>
<event>
 7    1  0.5441610E-013  0.5052887E+02  0.7816164E-02  0.1300439E+00
        -11   -1    0    0    0    0  0.00000000000E+00  0.00000000000E+00  0.45593999997E+02  0.45594000000E+02  0.51100000000E-03 0. -1.
         11   -1    0    0    0    0 -0.00000000000E+00 -0.00000000000E+00 -0.45593999997E+02  0.45594000000E+02  0.51100000000E-03 0.  1.
    9900012    2    1    2    0    0 -0.10562785172E+02 -0.37118202282E+02 -0.12799662113E+02  0.50528871609E+02  0.30000035744E+02 0.  0.
        -12    1    1    2    0    0  0.10562785172E+02  0.37118202282E+02  0.12799662113E+02  0.40659128391E+02  0.00000000000E+00 0.  1.
         11    1    3    3    0    0 -0.71390293653E+01  0.18487333579E+01 -0.10313098340E+01  0.74462846804E+01  0.51100000000E-03 0. -1.
        -11    1    3    3    0    0 -0.23595701930E+01 -0.85668123082E+01 -0.88221342975E+01  0.12521497452E+02  0.51100000000E-03 0.  1.
         12    1    3    3    0    0 -0.10641856142E+01 -0.30400123332E+02 -0.29462179817E+01  0.30561089477E+02  0.00000000000E+00 0. -1.
</event>
<event>
 7    1  0.5441610E-013  0.5052886E+02  0.7816164E-02  0.1300439E+00
        -11   -1    0    0    0    0  0.00000000000E+00  0.00000000000E+00  0.45593999997E+02  0.45594000000E+02  0.51100000000E-03 0.  1.
         11   -1    0    0    0    0 -0.00000000000E+00 -0.00000000000E+00 -0.45593999997E+02  0.45594000000E+02  0.51100000000E-03 0. -1.
    9900012    2    1    2    0    0 -0.23565527804E+01  0.54065754831E+01 -0.40229105826E+02  0.50528863818E+02  0.30000012063E+02 0.  0.
        -12    1    1    2    0    0  0.23565527804E+01 -0.54065754831E+01  0.40229105826E+02  0.40659136182E+02  0.00000000000E+00 0.  1.
         11    1    3    3    0    0  0.71358856405E+01  0.16488319758E+01 -0.51492216904E+01  0.89528763555E+01  0.51100000000E-03 0.  1.
        -11    1    3    3    0    0 -0.11377018417E+01 -0.74706808688E+01 -0.17810852422E+02  0.19347658834E+02  0.51100000000E-03 0. -1.
         12    1    3    3    0    0 -0.83547365792E+01  0.11228424376E+02 -0.17269031714E+02  0.22228328629E+02  0.00000000000E+00 0. -1.
</event>
<event>
 7    1  0.5441610E-013  0.5052886E+02  0.7816164E-02  0.1300439E+00
        -11   -1    0    0    0    0  0.00000000000E+00  0.00000000000E+00  0.45593999997E+02  0.45594000000E+02  0.51100000000E-03 0.  1.
         11   -1    0    0    0    0 -0.00000000000E+00 -0.00000000000E+00 -0.45593999997E+02  0.45594000000E+02  0.51100000000E-03 0. -1.
    9900012    2    1    2    0    0 -0.63721463093E+01 -0.16488622107E+02 -0.36615385031E+02  0.50528864144E+02  0.30000013052E+02 0.  0.
        -12    1    1    2    0    0  0.63721463093E+01  0.16488622107E+02  0.36615385031E+02  0.40659135856E+02  0.00000000000E+00 0.  1.
         11    1    3    3    0    0 -0.17700710695E+01  0.37739478728E+01 -0.13178235146E+02  0.13821784109E+02  0.51100000000E-03 0. -1.
        -11    1    3    3    0    0  0.65527491453E+01 -0.85076769359E+01 -0.41423408758E+01  0.11509912093E+02  0.51100000000E-03 0.  1.
        -12    1    3    3    0    0 -0.11154824385E+02 -0.11754893044E+02 -0.19294809009E+02  0.25197167941E+02  0.00000000000E+00 0.  1.
</event>
<event>
 7    1  0.5441610E-013  0.5052883E+02  0.7816164E-02  0.1300439E+00
        -11   -1    0    0    0    0  0.00000000000E+00  0.00000000000E+00  0.45593999997E+02  0.45594000000E+02  0.51100000000E-03 0.  1.
         11   -1    0    0    0    0 -0.00000000000E+00 -0.00000000000E+00 -0.45593999997E+02  0.45594000000E+02  0.51100000000E-03 0. -1.
    9900012    2    1    2    0    0  0.43694460251E+00  0.37714381269E+02 -0.15185613924E+02  0.50528827045E+02  0.29999900287E+02 0.  0.
        -12    1    1    2    0    0 -0.43694460251E+00 -0.37714381269E+02  0.15185613924E+02  0.40659172955E+02  0.00000000000E+00 0.  1.
         11    1    3    3    0    0 -0.70549377930E+01  0.12452666670E+02 -0.97412264501E+01  0.17312785665E+02  0.51100000000E-03 0. -1.
        -11    1    3    3    0    0  0.55011076672E+01  0.18432288728E+00 -0.58823507490E+01  0.80559425947E+01  0.51100000000E-03 0.  1.
        -12    1    3    3    0    0  0.19907747283E+01  0.25077391712E+02  0.43796327548E+00  0.25160098786E+02  0.00000000000E+00 0.  1.
</event>
<event>
 7    1  0.5441610E-013  0.5052888E+02  0.7816164E-02  0.1300439E+00
        -11   -1    0    0    0    0  0.00000000000E+00  0.00000000000E+00  0.45593999997E+02  0.45594000000E+02  0.51100000000E-03 0.  1.
         11   -1    0    0    0    0 -0.00000000000E+00 -0.00000000000E+00 -0.45593999997E+02  0.45594000000E+02  0.51100000000E-03 0. -1.
    9900012    2    1    2    0    0 -0.35281055772E+02  0.82552481999E+01  0.18446203333E+02  0.50528875112E+02  0.30000046390E+02 0.  0.
        -12    1    1    2    0    0  0.35281055772E+02 -0.82552481999E+01 -0.18446203333E+02  0.40659124888E+02  0.00000000000E+00 0.  1.
         11    1    3    3    0    0 -0.13982331448E+02  0.14563842344E+02  0.89085683384E+01  0.22067480297E+02  0.51100000000E-03 0. -1.
        -11    1    3    3    0    0 -0.60963485676E+01  0.96631991601E+00  0.98279499022E+01  0.11605509019E+02  0.51100000000E-03 0.  1.
         12    1    3    3    0    0 -0.15202375757E+02 -0.72749140603E+01 -0.29031490720E+00  0.16855885796E+02  0.00000000000E+00 0. -1.
</event>
<event>
 7    1  0.5441610E-013  0.5052886E+02  0.7816164E-02  0.1300439E+00
        -11   -1    0    0    0    0  0.00000000000E+00  0.00000000000E+00  0.45593999997E+02  0.45594000000E+02  0.51100000000E-03 0.  1.
         11   -1    0    0    0    0 -0.00000000000E+00 -0.00000000000E+00 -0.45593999997E+02  0.45594000000E+02  0.51100000000E-03 0. -1.
    9900012    2    1    2    0    0  0.11838895120E+02  0.29508188589E+02 -0.25343107192E+02  0.50528859409E+02  0.29999998659E+02 0.  0.
        -12    1    1    2    0    0 -0.11838895120E+02 -0.29508188589E+02  0.25343107192E+02  0.40659140591E+02  0.00000000000E+00 0.  1.
         11    1    3    3    0    0  0.54433897863E+01  0.10587436453E+02 -0.19884286914E+02  0.23175615836E+02  0.51100000000E-03 0. -1.
        -11    1    3    3    0    0 -0.43116537110E+01  0.87733516797E+01 -0.76847664238E+01  0.12434536287E+02  0.51100000000E-03 0.  1.
         12    1    3    3    0    0  0.10707159045E+02  0.10147400456E+02  0.22259461463E+01  0.14918707286E+02  0.00000000000E+00 0. -1.
</event>
<event>
 7    1  0.5441610E-013  0.5052887E+02  0.7816164E-02  0.1300439E+00
        -11   -1    0    0    0    0  0.00000000000E+00  0.00000000000E+00  0.45593999997E+02  0.45594000000E+02  0.51100000000E-03 0.  1.
         11   -1    0    0    0    0 -0.00000000000E+00 -0.00000000000E+00 -0.45593999997E+02  0.45594000000E+02  0.51100000000E-03 0. -1.
    9900012    2    1    2    0    0 -0.11079027216E+02 -0.38985035066E+02 -0.32537904761E+01  0.50528868730E+02  0.30000026991E+02 0.  0.
        -12    1    1    2    0    0  0.11079027216E+02  0.38985035066E+02  0.32537904761E+01  0.40659131270E+02  0.00000000000E+00 0.  1.
         11    1    3    3    0    0 -0.15955176446E+01 -0.16867614129E+02  0.31891629575E+01  0.17240442094E+02  0.51100000000E-03 0. -1.
        -11    1    3    3    0    0  0.71671554963E+01 -0.48212322540E+01 -0.12960268124E+01  0.87345339953E+01  0.51100000000E-03 0.  1.
        -12    1    3    3    0    0 -0.16650665067E+02 -0.17296188683E+02 -0.51469266212E+01  0.24553892640E+02  0.00000000000E+00 0.  1.
</event>
<event>
 7    1  0.5441610E-013  0.5052884E+02  0.7816164E-02  0.1300439E+00
        -11   -1    0    0    0    0  0.00000000000E+00  0.00000000000E+00  0.45593999997E+02  0.45594000000E+02  0.51100000000E-03 0. -1.
         11   -1    0    0    0    0 -0.00000000000E+00 -0.00000000000E+00 -0.45593999997E+02  0.45594000000E+02  0.51100000000E-03 0.  1.
    9900012    2    1    2    0    0 -0.38552309233E+02 -0.11858849790E+02 -0.51239111753E+01  0.50528839516E+02  0.29999938192E+02 0.  0.
        -12    1    1    2    0    0  0.38552309233E+02  0.11858849790E+02  0.51239111753E+01  0.40659160484E+02  0.00000000000E+00 0.  1.
         11    1    3    3    0    0 -0.17526770026E+02 -0.16796631224E+01  0.42871016424E+01  0.18121483838E+02  0.51100000000E-03 0. -1.
        -11    1    3    3    0    0 -0.41721391377E+01  0.60711674626E+01 -0.59436183980E+00  0.73904726236E+01  0.51100000000E-03 0.  1.
         12    1    3    3    0    0 -0.16853400070E+02 -0.16250354130E+02 -0.88166509778E+01  0.25016883054E+02  0.00000000000E+00 0. -1.
</event>
<event>
 7    1  0.5441610E-013  0.5052886E+02  0.7816164E-02  0.1300439E+00
        -11   -1    0    0    0    0  0.00000000000E+00  0.00000000000E+00  0.45593999997E+02  0.45594000000E+02  0.51100000000E-03 0.  1.
         11   -1    0    0    0    0 -0.00000000000E+00 -0.00000000000E+00 -0.45593999997E+02  0.45594000000E+02  0.51100000000E-03 0. -1.
    9900012    2    1    2    0    0 -0.13604758082E+02  0.18013358290E+02 -0.33817083488E+02  0.50528860130E+02  0.30000000851E+02 0.  0.
        -12    1    1    2    0    0  0.13604758082E+02 -0.18013358290E+02  0.33817083488E+02  0.40659139870E+02  0.00000000000E+00 0.  1.
         11    1    3    3    0    0 -0.27537932594E+01  0.61526386250E+01 -0.17084883337E+02  0.18366588640E+02  0.51100000000E-03 0. -1.
        -11    1    3    3    0    0 -0.84788475258E+01 -0.39516374997E+01 -0.12517692639E+02  0.15626865443E+02  0.51100000000E-03 0.  1.
         12    1    3    3    0    0 -0.23721172970E+01  0.15812357165E+02 -0.42145075116E+01  0.16535406047E+02  0.00000000000E+00 0. -1.
</event>
<event>
 7    1  0.5441610E-013  0.5052888E+02  0.7816164E-02  0.1300439E+00
        -11   -1    0    0    0    0  0.00000000000E+00  0.00000000000E+00  0.45593999997E+02  0.45594000000E+02  0.51100000000E-03 0.  1.
         11   -1    0    0    0    0 -0.00000000000E+00 -0.00000000000E+00 -0.45593999997E+02  0.45594000000E+02  0.51100000000E-03 0. -1.
    9900012    2    1    2    0    0  0.16096826849E+02 -0.27015076523E+02 -0.25772888652E+02  0.50528880683E+02  0.30000063324E+02 0.  0.
        -12    1    1    2    0    0 -0.16096826849E+02  0.27015076523E+02  0.25772888652E+02  0.40659119317E+02  0.00000000000E+00 0.  1.
         11    1    3    3    0    0  0.85440459418E+00  0.17292277221E+01 -0.38796575539E+01  0.43326641598E+01  0.51100000000E-03 0. -1.
        -11    1    3    3    0    0  0.11900249143E+02 -0.47074718424E+01  0.99666392262E+00  0.12836259582E+02  0.51100000000E-03 0.  1.
         12    1    3    3    0    0  0.33421731117E+01 -0.24036832403E+02 -0.22889895021E+02  0.33359956941E+02  0.00000000000E+00 0. -1.
</event>
<event>
 7    1  0.5441610E-013  0.5052886E+02  0.7816164E-02  0.1300439E+00
        -11   -1    0    0    0    0  0.00000000000E+00  0.00000000000E+00  0.45593999997E+02  0.45594000000E+02  0.51100000000E-03 0. -1.
         11   -1    0    0    0    0 -0.00000000000E+00 -0.00000000000E+00 -0.45593999997E+02  0.45594000000E+02  0.51100000000E-03 0.  1.
    9900012    2    1    2    0    0 -0.18245774376E+02 -0.21846556759E+02  0.29034211199E+02  0.50528859026E+02  0.29999997496E+02 0.  0.
        -12    1    1    2    0    0  0.18245774376E+02  0.21846556759E+02 -0.29034211199E+02  0.40659140974E+02  0.00000000000E+00 0.  1.
         11    1    3    3    0    0  0.43786173373E+01 -0.55122450963E+01  0.23848750039E+01  0.74326822099E+01  0.51100000000E-03 0. -1.
        -11    1    3    3    0    0 -0.15525533628E+01  0.21350535126E+00  0.12874996061E+02  0.12970024299E+02  0.51100000000E-03 0.  1.
         12    1    3    3    0    0 -0.21071838350E+02 -0.16547817014E+02  0.13774340134E+02  0.30126152518E+02  0.00000000000E+00 0. -1.
</event>
<event>
 7    1  0.5441610E-013  0.5052886E+02  0.7816164E-02  0.1300439E+00
        -11   -1    0    0    0    0  0.00000000000E+00  0.00000000000E+00  0.45593999997E+02  0.45594000000E+02  0.51100000000E-03 0.  1.
         11   -1    0    0    0    0 -0.00000000000E+00 -0.00000000000E+00 -0.45593999997E+02  0.45594000000E+02  0.51100000000E-03 0. -1.
    9900012    2    1    2    0    0 -0.38661675054E+02 -0.16867856365E+01 -0.12473783943E+02  0.50528860196E+02  0.30000001051E+02 0.  0.
        -12    1    1    2    0    0  0.38661675054E+02  0.16867856365E+01  0.12473783943E+02  0.40659139804E+02  0.00000000000E+00 0.  1.
         11    1    3    3    0    0 -0.51216841958E+01  0.36790181969E+01  0.19614531631E+01  0.66040989292E+01  0.51100000000E-03 0.  1.
        -11    1    3    3    0    0 -0.34787299883E+02 -0.30400074402E+01 -0.18160094980E+02  0.39359711995E+02  0.51100000000E-03 0. -1.
         12    1    3    3    0    0  0.12473090251E+01 -0.23257963933E+01  0.37248578742E+01  0.45650492714E+01  0.00000000000E+00 0. -1.
</event>
<event>
 7    1  0.5441610E-013  0.5052886E+02  0.7816164E-02  0.1300439E+00
        -11   -1    0    0    0    0  0.00000000000E+00  0.00000000000E+00  0.45593999997E+02  0.45594000000E+02  0.51100000000E-03 0.  1.
         11   -1    0    0    0    0 -0.00000000000E+00 -0.00000000000E+00 -0.45593999997E+02  0.45594000000E+02  0.51100000000E-03 0. -1.
    9900012    2    1    2    0    0 -0.27929255844E+02 -0.84977172322E+01 -0.28300375147E+02  0.50528858794E+02  0.29999996791E+02 0.  0.
        -12    1    1    2    0    0  0.27929255844E+02  0.84977172322E+01  0.28300375147E+02  0.40659141206E+02  0.00000000000E+00 0.  1.
         11    1    3    3    0    0 -0.24699712926E+02  0.21185958493E+01 -0.10172752244E+02  0.26796439231E+02  0.51100000000E-03 0. -1.
        -11    1    3    3    0    0  0.77843223962E+00  0.14053490585E+00  0.10903527350E+01  0.13470620473E+01  0.51100000000E-03 0.  1.
         12    1    3    3    0    0 -0.40079751574E+01 -0.10756847987E+02 -0.19217975638E+02  0.22385357515E+02  0.00000000000E+00 0. -1.
</event>
<event>
 7    1  0.5441610E-013  0.5052886E+02  0.7816164E-02  0.1300439E+00
        -11   -1    0    0    0    0  0.00000000000E+00  0.00000000000E+00  0.45593999997E+02  0.45594000000E+02  0.51100000000E-03 0.  1.
         11   -1    0    0    0    0 -0.00000000000E+00 -0.00000000000E+00 -0.45593999997E+02  0.45594000000E+02  0.51100000000E-03 0. -1.
    9900012    2    1    2    0    0 -0.15681327827E+02 -0.72863637312E+01 -0.36799053052E+02  0.50528862720E+02  0.30000008723E+02 0.  0.
        -12    1    1    2    0    0  0.15681327827E+02  0.72863637312E+01  0.36799053052E+02  0.40659137280E+02  0.00000000000E+00 0.  1.
         11    1    3    3    0    0 -0.80665455626E+01  0.73409785613E+01 -0.69142165185E+01  0.12913772256E+02  0.51100000000E-03 0. -1.
        -11    1    3    3    0    0 -0.72884736036E+01 -0.62363651662E+01 -0.39836909549E+01  0.10386717087E+02  0.51100000000E-03 0.  1.
         12    1    3    3    0    0 -0.32630866060E+00 -0.83909771263E+01 -0.25901145579E+02  0.27228373377E+02  0.00000000000E+00 0. -1.
</event>
<event>
 7    1  0.5441610E-013  0.5052884E+02  0.7816164E-02  0.1300439E+00
        -11   -1    0    0    0    0  0.00000000000E+00  0.00000000000E+00  0.45593999997E+02  0.45594000000E+02  0.51100000000E-03 0.  1.
         11   -1    0    0    0    0 -0.00000000000E+00 -0.00000000000E+00 -0.45593999997E+02  0.45594000000E+02  0.51100000000E-03 0. -1.
    9900012    2    1    2    0    0  0.10403653316E+02  0.28566654248E+02 -0.26997728968E+02  0.50528842278E+02  0.29999946587E+02 0.  0.
        -12    1    1    2    0    0 -0.10403653316E+02 -0.28566654248E+02  0.26997728968E+02  0.40659157722E+02  0.00000000000E+00 0.  1.
         11    1    3    3    0    0 -0.61711450469E+01  0.53613265945E+01 -0.88176755038E+01  0.12024069843E+02  0.51100000000E-03 0. -1.
        -11    1    3    3    0    0 -0.39454385111E+01  0.26969083226E+01 -0.13554953633E+01  0.49676118494E+01  0.51100000000E-03 0.  1.
         12    1    3    3    0    0  0.20520236874E+02  0.20508419331E+02 -0.16824558101E+02  0.33537160585E+02  0.00000000000E+00 0. -1.
</event>
<event>
 7    1  0.5441610E-013  0.5052887E+02  0.7816164E-02  0.1300439E+00
        -11   -1    0    0    0    0  0.00000000000E+00  0.00000000000E+00  0.45593999997E+02  0.45594000000E+02  0.51100000000E-03 0.  1.
         11   -1    0    0    0    0 -0.00000000000E+00 -0.00000000000E+00 -0.45593999997E+02  0.45594000000E+02  0.51100000000E-03 0. -1.
    9900012    2    1    2    0    0 -0.37973967274E+01  0.27359646880E+02 -0.29836130896E+02  0.50528865650E+02  0.30000017629E+02 0.  0.
        -12    1    1    2    0    0  0.37973967274E+01 -0.27359646880E+02  0.29836130896E+02  0.40659134350E+02  0.00000000000E+00 0.  1.
         11    1    3    3    0    0  0.59580799470E+01  0.48679057787E+01 -0.99521070560E+01  0.12579334579E+02  0.51100000000E-03 0.  1.
        -11    1    3    3    0    0 -0.71551384279E+01  0.45077196833E+01 -0.17739843462E+02  0.19652419418E+02  0.51100000000E-03 0. -1.
        -12    1    3    3    0    0 -0.26003382465E+01  0.17984021418E+02 -0.21441803780E+01  0.18297111653E+02  0.00000000000E+00 0.  1.
</event>
<event>
 7    1  0.5441610E-013  0.5052888E+02  0.7816164E-02  0.1300439E+00
        -11   -1    0    0    0    0  0.00000000000E+00  0.00000000000E+00  0.45593999997E+02  0.45594000000E+02  0.51100000000E-03 0.  1.
         11   -1    0    0    0    0 -0.00000000000E+00 -0.00000000000E+00 -0.45593999997E+02  0.45594000000E+02  0.51100000000E-03 0. -1.
    9900012    2    1    2    0    0 -0.38711370522E+02 -0.78707084152E+01  0.96252839704E+01  0.50528876175E+02  0.30000049623E+02 0.  0.
        -12    1    1    2    0    0  0.38711370522E+02  0.78707084152E+01 -0.96252839704E+01  0.40659123825E+02  0.00000000000E+00 0.  1.
         11    1    3    3    0    0 -0.22501897571E+02 -0.37260197308E+01 -0.51241874501E+01  0.23376824306E+02  0.51100000000E-03 0. -1.
        -11    1    3    3    0    0 -0.28777303056E+01 -0.71775277745E+01  0.10616337180E+01  0.78054662306E+01  0.51100000000E-03 0.  1.
         12    1    3    3    0    0 -0.13331742645E+02  0.30328390901E+01  0.13687837702E+02  0.19346585639E+02  0.00000000000E+00 0. -1.
</event>
<event>
 7    1  0.5441610E-013  0.5052886E+02  0.7816164E-02  0.1300439E+00
        -11   -1    0    0    0    0  0.00000000000E+00  0.00000000000E+00  0.45593999997E+02  0.45594000000E+02  0.51100000000E-03 0.  1.
         11   -1    0    0    0    0 -0.00000000000E+00 -0.00000000000E+00 -0.45593999997E+02  0.45594000000E+02  0.51100000000E-03 0. -1.
    9900012    2    1    2    0    0  0.29685608133E+02  0.11743275627E+02 -0.25179873455E+02  0.50528857364E+02  0.29999992444E+02 0.  0.
        -12    1    1    2    0    0 -0.29685608133E+02 -0.11743275627E+02  0.25179873455E+02  0.40659142636E+02  0.00000000000E+00 0.  1.
         11    1    3    3    0    0 -0.18404345892E+01 -0.10271409384E+01 -0.45497254185E+01  0.50142017939E+01  0.51100000000E-03 0. -1.
        -11    1    3    3    0    0  0.69492690876E+01  0.25664356171E+01  0.47019944609E+01  0.87742626357E+01  0.51100000000E-03 0.  1.
        -12    1    3    3    0    0  0.24576773635E+02  0.10203980949E+02 -0.25332142497E+02  0.36740392934E+02  0.00000000000E+00 0.  1.
</event>
<event>
 7    1  0.5441610E-013  0.5052886E+02  0.7816164E-02  0.1300439E+00
        -11   -1    0    0    0    0  0.00000000000E+00  0.00000000000E+00  0.45593999997E+02  0.45594000000E+02  0.51100000000E-03 0.  1.
         11   -1    0    0    0    0 -0.00000000000E+00 -0.00000000000E+00 -0.45593999997E+02  0.45594000000E+02  0.51100000000E-03 0. -1.
    9900012    2    1    2    0    0 -0.85858372437E-01 -0.36355407491E+02  0.18205570681E+02  0.50528857986E+02  0.29999994335E+02 0.  0.
        -12    1    1    2    0    0  0.85858372437E-01  0.36355407491E+02 -0.18205570681E+02  0.40659142014E+02  0.00000000000E+00 0.  1.
         11    1    3    3    0    0  0.90939158792E+01 -0.28597944255E+02  0.78613352335E+01  0.31021642663E+02  0.51100000000E-03 0. -1.
        -11    1    3    3    0    0 -0.10469730820E+01 -0.11014380347E+01 -0.24912873186E+01  0.29181897031E+01  0.51100000000E-03 0.  1.
        -12    1    3    3    0    0 -0.81328011697E+01 -0.66560252016E+01  0.12835522766E+02  0.16589025620E+02  0.00000000000E+00 0.  1.
</event>
<event>
 7    1  0.5441610E-013  0.5052886E+02  0.7816164E-02  0.1300439E+00
        -11   -1    0    0    0    0  0.00000000000E+00  0.00000000000E+00  0.45593999997E+02  0.45594000000E+02  0.51100000000E-03 0. -1.
         11   -1    0    0    0    0 -0.00000000000E+00 -0.00000000000E+00 -0.45593999997E+02  0.45594000000E+02  0.51100000000E-03 0.  1.
    9900012    2    1    2    0    0  0.11421697155E+02  0.25413054207E+02  0.29612280760E+02  0.50528860046E+02  0.30000000594E+02 0.  0.
        -12    1    1    2    0    0 -0.11421697155E+02 -0.25413054207E+02 -0.29612280760E+02  0.40659139954E+02  0.00000000000E+00 0.  1.
         11    1    3    3    0    0  0.10065601405E+02  0.12203417163E+02  0.18791785164E+02  0.24563609507E+02  0.51100000000E-03 0. -1.
        -11    1    3    3    0    0  0.12004271081E+01  0.18283183678E+02  0.98324074906E+01  0.20794039242E+02  0.51100000000E-03 0.  1.
         12    1    3    3    0    0  0.15566864155E+00 -0.50735466341E+01  0.98808810527E+00  0.51712112970E+01  0.00000000000E+00 0. -1.
</event>
<event>
 7    1  0.5441610E-013  0.5052886E+02  0.7816164E-02  0.1300439E+00
        -11   -1    0    0    0    0  0.00000000000E+00  0.00000000000E+00  0.45593999997E+02  0.45594000000E+02  0.51100000000E-03 0.  1.
         11   -1    0    0    0    0 -0.00000000000E+00 -0.00000000000E+00 -0.45593999997E+02  0.45594000000E+02  0.51100000000E-03 0. -1.
    9900012    2    1    2    0    0 -0.17748389755E+02  0.22225776451E+02 -0.29054689378E+02  0.50528862618E+02  0.30000008415E+02 0.  0.
        -12    1    1    2    0    0  0.17748389755E+02 -0.22225776451E+02  0.29054689378E+02  0.40659137382E+02  0.00000000000E+00 0.  1.
         11    1    3    3    0    0 -0.54173365452E+01  0.46006938210E+01  0.41779981572E+01  0.82443670310E+01  0.51100000000E-03 0. -1.
        -11    1    3    3    0    0 -0.12483210879E+01  0.12131657048E+02 -0.92746487583E+01  0.15321700889E+02  0.51100000000E-03 0.  1.
        -12    1    3    3    0    0 -0.11082732122E+02  0.54934255821E+01 -0.23958038777E+02  0.26962794698E+02  0.00000000000E+00 0.  1.
</event>
<event>
 7    1  0.5441610E-013  0.5052886E+02  0.7816164E-02  0.1300439E+00
        -11   -1    0    0    0    0  0.00000000000E+00  0.00000000000E+00  0.45593999997E+02  0.45594000000E+02  0.51100000000E-03 0.  1.
         11   -1    0    0    0    0 -0.00000000000E+00 -0.00000000000E+00 -0.45593999997E+02  0.45594000000E+02  0.51100000000E-03 0. -1.
    9900012    2    1    2    0    0  0.39215202557E+02  0.54250342467E+00 -0.10725633570E+02  0.50528860351E+02  0.30000001522E+02 0.  0.
        -12    1    1    2    0    0 -0.39215202557E+02 -0.54250342467E+00  0.10725633570E+02  0.40659139649E+02  0.00000000000E+00 0.  1.
         11    1    3    3    0    0  0.18063523471E+02  0.10859246130E+02 -0.82887719542E+01  0.22647689672E+02  0.51100000000E-03 0. -1.
        -11    1    3    3    0    0  0.54145881771E+01 -0.30407742598E+01 -0.75778342981E+01  0.97973285204E+01  0.51100000000E-03 0.  1.
        -12    1    3    3    0    0  0.15737090909E+02 -0.72759684455E+01  0.51409726824E+01  0.18083842158E+02  0.00000000000E+00 0.  1.
</event>
<event>
 7    1  0.5441610E-013  0.5052886E+02  0.7816164E-02  0.1300439E+00
        -11   -1    0    0    0    0  0.00000000000E+00  0.00000000000E+00  0.45593999997E+02  0.45594000000E+02  0.51100000000E-03 0.  1.
         11   -1    0    0    0    0 -0.00000000000E+00 -0.00000000000E+00 -0.45593999997E+02  0.45594000000E+02  0.51100000000E-03 0. -1.
    9900012    2    1    2    0    0  0.27909867819E+02 -0.16909388983E+02 -0.24254433792E+02  0.50528859380E+02  0.29999998571E+02 0.  0.
        -12    1    1    2    0    0 -0.27909867819E+02  0.16909388983E+02  0.24254433792E+02  0.40659140620E+02  0.00000000000E+00 0.  1.
         11    1    3    3    0    0  0.52179193678E+01 -0.11653338252E+02 -0.10435753385E+02  0.16490358514E+02  0.51100000000E-03 0. -1.
        -11    1    3    3    0    0  0.22079594063E+02 -0.10768822878E+02 -0.76198578759E+01  0.25720385971E+02  0.51100000000E-03 0.  1.
        -12    1    3    3    0    0  0.61235438739E+00  0.55127721469E+01 -0.61988225308E+01  0.83181148951E+01  0.00000000000E+00 0.  1.
</event>
<event>
 7    1  0.5441610E-013  0.5052886E+02  0.7816164E-02  0.1300439E+00
        -11   -1    0    0    0    0  0.00000000000E+00  0.00000000000E+00  0.45593999997E+02  0.45594000000E+02  0.51100000000E-03 0. -1.
         11   -1    0    0    0    0 -0.00000000000E+00 -0.00000000000E+00 -0.45593999997E+02  0.45594000000E+02  0.51100000000E-03 0.  1.
    9900012    2    1    2    0    0  0.37136527901E+02 -0.14192401446E+02  0.85217238616E+01  0.50528859073E+02  0.29999997638E+02 0.  0.
        -12    1    1    2    0    0 -0.37136527901E+02  0.14192401446E+02 -0.85217238616E+01  0.40659140927E+02  0.00000000000E+00 0.  1.
         11    1    3    3    0    0  0.11966305468E+02  0.13515138311E+01  0.92728954230E+01  0.15198869891E+02  0.51100000000E-03 0. -1.
        -11    1    3    3    0    0 -0.29960028688E+01 -0.92186813502E+00 -0.17282266596E+01  0.35794750587E+01  0.51100000000E-03 0.  1.
        -12    1    3    3    0    0  0.28166225302E+02 -0.14622047142E+02  0.97705509819E+00  0.31750514123E+02  0.00000000000E+00 0.  1.
</event>
<event>
 7    1  0.5441610E-013  0.5052886E+02  0.7816164E-02  0.1300439E+00
        -11   -1    0    0    0    0  0.00000000000E+00  0.00000000000E+00  0.45593999997E+02  0.45594000000E+02  0.51100000000E-03 0.  1.
         11   -1    0    0    0    0 -0.00000000000E+00 -0.00000000000E+00 -0.45593999997E+02  0.45594000000E+02  0.51100000000E-03 0. -1.
    9900012    2    1    2    0    0  0.12380285353E+02 -0.38642846439E+02  0.25737855144E+01  0.50528863042E+02  0.30000009701E+02 0.  0.
        -12    1    1    2    0    0 -0.12380285353E+02  0.38642846439E+02 -0.25737855144E+01  0.40659136958E+02  0.00000000000E+00 0.  1.
         11    1    3    3    0    0  0.46133588014E+01 -0.10004452149E+02  0.43712023242E+01  0.11852407023E+02  0.51100000000E-03 0. -1.
        -11    1    3    3    0    0 -0.57735967284E+01 -0.96175701760E+01  0.75554142512E+01  0.13524657483E+02  0.51100000000E-03 0.  1.
        -12    1    3    3    0    0  0.13540523280E+02 -0.19020824114E+02 -0.93528310609E+01  0.25151798535E+02  0.00000000000E+00 0.  1.
</event>
<event>
 7    1  0.5441610E-013  0.5052883E+02  0.7816164E-02  0.1300439E+00
        -11   -1    0    0    0    0  0.00000000000E+00  0.00000000000E+00  0.45593999997E+02  0.45594000000E+02  0.51100000000E-03 0.  1.
         11   -1    0    0    0    0 -0.00000000000E+00 -0.00000000000E+00 -0.45593999997E+02  0.45594000000E+02  0.51100000000E-03 0. -1.
    9900012    2    1    2    0    0  0.90087682611E+01 -0.12745440157E+02 -0.37544163584E+02  0.50528826747E+02  0.29999899381E+02 0.  0.
        -12    1    1    2    0    0 -0.90087682611E+01  0.12745440157E+02  0.37544163584E+02  0.40659173253E+02  0.00000000000E+00 0.  1.
         11    1    3    3    0    0  0.14765822454E+02 -0.92299891133E+01 -0.12694908924E+02  0.21549545810E+02  0.51100000000E-03 0. -1.
        -11    1    3    3    0    0  0.37171130157E+01  0.14069950519E+01 -0.93390618188E+01  0.10149612809E+02  0.51100000000E-03 0.  1.
         12    1    3    3    0    0 -0.94741672086E+01 -0.49224460960E+01 -0.15510192841E+02  0.18829668128E+02  0.00000000000E+00 0. -1.
</event>
<event>
 7    1  0.5441610E-013  0.5052887E+02  0.7816164E-02  0.1300439E+00
        -11   -1    0    0    0    0  0.00000000000E+00  0.00000000000E+00  0.45593999997E+02  0.45594000000E+02  0.51100000000E-03 0.  1.
         11   -1    0    0    0    0 -0.00000000000E+00 -0.00000000000E+00 -0.45593999997E+02  0.45594000000E+02  0.51100000000E-03 0. -1.
    9900012    2    1    2    0    0  0.22951347491E+01  0.29301960891E+01 -0.40488409045E+02  0.50528868681E+02  0.30000026842E+02 0.  0.
        -12    1    1    2    0    0 -0.22951347491E+01 -0.29301960891E+01  0.40488409045E+02  0.40659131319E+02  0.00000000000E+00 0.  1.
         11    1    3    3    0    0  0.67529965710E+01 -0.36426961018E+01 -0.25122285383E+02  0.26267878116E+02  0.51100000000E-03 0.  1.
        -11    1    3    3    0    0 -0.32646886975E+01  0.35130627455E+01 -0.18863326202E+02  0.19463424103E+02  0.51100000000E-03 0. -1.
        -12    1    3    3    0    0 -0.11931731243E+01  0.30598294455E+01  0.34972025408E+01  0.47975664614E+01  0.00000000000E+00 0.  1.
</event>
<event>
 7    1  0.5441610E-013  0.5052886E+02  0.7816164E-02  0.1300439E+00
        -11   -1    0    0    0    0  0.00000000000E+00  0.00000000000E+00  0.45593999997E+02  0.45594000000E+02  0.51100000000E-03 0. -1.
         11   -1    0    0    0    0 -0.00000000000E+00 -0.00000000000E+00 -0.45593999997E+02  0.45594000000E+02  0.51100000000E-03 0.  1.
    9900012    2    1    2    0    0 -0.51214544444E+01  0.14580027512E+02  0.37607969274E+02  0.50528857722E+02  0.29999993530E+02 0.  0.
        -12    1    1    2    0    0  0.51214544444E+01 -0.14580027512E+02 -0.37607969274E+02  0.40659142278E+02  0.00000000000E+00 0.  1.
         11    1    3    3    0    0  0.63990474366E+00  0.35573972528E+01  0.15265410616E+02  0.15687489118E+02  0.51100000000E-03 0. -1.
        -11    1    3    3    0    0 -0.45489321489E+01 -0.54800294786E+01  0.10497042629E+00  0.71228172680E+01  0.51100000000E-03 0.  1.
         12    1    3    3    0    0 -0.12124270391E+01  0.16502659738E+02  0.22237588232E+02  0.27718551335E+02  0.00000000000E+00 0. -1.
</event>
<event>
 7    1  0.5441610E-013  0.5052886E+02  0.7816164E-02  0.1300439E+00
        -11   -1    0    0    0    0  0.00000000000E+00  0.00000000000E+00  0.45593999997E+02  0.45594000000E+02  0.51100000000E-03 0.  1.
         11   -1    0    0    0    0 -0.00000000000E+00 -0.00000000000E+00 -0.45593999997E+02  0.45594000000E+02  0.51100000000E-03 0. -1.
    9900012    2    1    2    0    0 -0.33523208824E+02 -0.11566522902E+02 -0.19889080176E+02  0.50528862132E+02  0.30000006937E+02 0.  0.
        -12    1    1    2    0    0  0.33523208824E+02  0.11566522902E+02  0.19889080176E+02  0.40659137868E+02  0.00000000000E+00 0.  1.
         11    1    3    3    0    0 -0.98314909853E+01  0.43672087257E+01 -0.12933812999E+02  0.16823027254E+02  0.51100000000E-03 0.  1.
        -11    1    3    3    0    0 -0.27035491422E+01  0.34646138513E+01 -0.11480994006E+01  0.45421206058E+01  0.51100000000E-03 0. -1.
         12    1    3    3    0    0 -0.20988168697E+02 -0.19398345479E+02 -0.58071677761E+01  0.29163714272E+02  0.00000000000E+00 0. -1.
</event>
<event>
 7    1  0.5441610E-013  0.5052887E+02  0.7816164E-02  0.1300439E+00
        -11   -1    0    0    0    0  0.00000000000E+00  0.00000000000E+00  0.45593999997E+02  0.45594000000E+02  0.51100000000E-03 0.  1.
         11   -1    0    0    0    0 -0.00000000000E+00 -0.00000000000E+00 -0.45593999997E+02  0.45594000000E+02  0.51100000000E-03 0. -1.
    9900012    2    1    2    0    0  0.24409095284E+02  0.26328406597E+02 -0.19083400557E+02  0.50528866913E+02  0.30000021470E+02 0.  0.
        -12    1    1    2    0    0 -0.24409095284E+02 -0.26328406597E+02  0.19083400557E+02  0.40659133087E+02  0.00000000000E+00 0.  1.
         11    1    3    3    0    0 -0.46351472683E+01  0.11881673372E+01 -0.12187901073E+01  0.49377911465E+01  0.51100000000E-03 0. -1.
        -11    1    3    3    0    0  0.13138588585E+02  0.37282730107E+01 -0.31257660803E+00  0.13660901656E+02  0.51100000000E-03 0.  1.
        -12    1    3    3    0    0  0.15905653967E+02  0.21411966250E+02 -0.17552033842E+02  0.31930174111E+02  0.00000000000E+00 0.  1.
</event>
<event>
 7    1  0.5441610E-013  0.5052886E+02  0.7816164E-02  0.1300439E+00
        -11   -1    0    0    0    0  0.00000000000E+00  0.00000000000E+00  0.45593999997E+02  0.45594000000E+02  0.51100000000E-03 0.  1.
         11   -1    0    0    0    0 -0.00000000000E+00 -0.00000000000E+00 -0.45593999997E+02  0.45594000000E+02  0.51100000000E-03 0. -1.
    9900012    2    1    2    0    0  0.21594577048E+02 -0.95178963452E+01 -0.33109655402E+02  0.50528863394E+02  0.30000010772E+02 0.  0.
        -12    1    1    2    0    0 -0.21594577048E+02  0.95178963452E+01  0.33109655402E+02  0.40659136606E+02  0.00000000000E+00 0.  1.
         11    1    3    3    0    0  0.10788256114E+02  0.23802868745E+01 -0.28016956572E+02  0.30116475415E+02  0.51100000000E-03 0. -1.
        -11    1    3    3    0    0  0.14449291347E+01 -0.61249896313E+00  0.32019820143E+01  0.35659030084E+01  0.51100000000E-03 0.  1.
        -12    1    3    3    0    0  0.93613917992E+01 -0.11285684257E+02 -0.82946808447E+01  0.16846484971E+02  0.00000000000E+00 0.  1.
</event>
<event>
 7    1  0.5441610E-013  0.5052886E+02  0.7816164E-02  0.1300439E+00
        -11   -1    0    0    0    0  0.00000000000E+00  0.00000000000E+00  0.45593999997E+02  0.45594000000E+02  0.51100000000E-03 0.  1.
         11   -1    0    0    0    0 -0.00000000000E+00 -0.00000000000E+00 -0.45593999997E+02  0.45594000000E+02  0.51100000000E-03 0. -1.
    9900012    2    1    2    0    0  0.32486171604E+02  0.11355780063E+02 -0.21653184995E+02  0.50528861952E+02  0.30000006390E+02 0.  0.
        -12    1    1    2    0    0 -0.32486171604E+02 -0.11355780063E+02  0.21653184995E+02  0.40659138048E+02  0.00000000000E+00 0.  1.
         11    1    3    3    0    0  0.15490958833E+02  0.93360622944E+01 -0.93789853791E+01  0.20373935107E+02  0.51100000000E-03 0. -1.
        -11    1    3    3    0    0  0.20304351312E+02 -0.16348885509E+00 -0.15084902440E+02  0.25295210865E+02  0.51100000000E-03 0.  1.
        -12    1    3    3    0    0 -0.33091385411E+01  0.21832066240E+01  0.28107028238E+01  0.48597159805E+01  0.00000000000E+00 0.  1.
</event>
<event>
 7    1  0.5441610E-013  0.5052886E+02  0.7816164E-02  0.1300439E+00
        -11   -1    0    0    0    0  0.00000000000E+00  0.00000000000E+00  0.45593999997E+02  0.45594000000E+02  0.51100000000E-03 0.  1.
         11   -1    0    0    0    0 -0.00000000000E+00 -0.00000000000E+00 -0.45593999997E+02  0.45594000000E+02  0.51100000000E-03 0. -1.
    9900012    2    1    2    0    0  0.31500948625E+02 -0.22581381217E+02 -0.12285650598E+02  0.50528858930E+02  0.29999997204E+02 0.  0.
        -12    1    1    2    0    0 -0.31500948625E+02  0.22581381217E+02  0.12285650598E+02  0.40659141070E+02  0.00000000000E+00 0.  1.
         11    1    3    3    0    0  0.28506266919E+02 -0.21355854440E+02 -0.17828188087E+02  0.39831194600E+02  0.51100000000E-03 0. -1.
        -11    1    3    3    0    0  0.73107355794E+00 -0.42671455892E+01  0.45564464347E+00  0.43532301029E+01  0.51100000000E-03 0.  1.
         12    1    3    3    0    0  0.22636081474E+01  0.30416188121E+01  0.50868928452E+01  0.63444342270E+01  0.00000000000E+00 0. -1.
</event>
<event>
 7    1  0.5441610E-013  0.5052886E+02  0.7816164E-02  0.1300439E+00
        -11   -1    0    0    0    0  0.00000000000E+00  0.00000000000E+00  0.45593999997E+02  0.45594000000E+02  0.51100000000E-03 0.  1.
         11   -1    0    0    0    0 -0.00000000000E+00 -0.00000000000E+00 -0.45593999997E+02  0.45594000000E+02  0.51100000000E-03 0. -1.
    9900012    2    1    2    0    0 -0.12865684714E+02 -0.18793959751E+01 -0.38524119956E+02  0.50528858460E+02  0.29999995774E+02 0.  0.
        -12    1    1    2    0    0  0.12865684714E+02  0.18793959751E+01  0.38524119956E+02  0.40659141540E+02  0.00000000000E+00 0.  1.
         11    1    3    3    0    0 -0.39242492118E+01 -0.11843256528E+02 -0.99332431878E+01  0.15947782841E+02  0.51100000000E-03 0. -1.
        -11    1    3    3    0    0 -0.21023253255E+01  0.12198152249E+01  0.12565187763E+01  0.27361580096E+01  0.51100000000E-03 0.  1.
         12    1    3    3    0    0 -0.68391101767E+01  0.87440453282E+01 -0.29847395545E+02  0.31844917609E+02  0.00000000000E+00 0. -1.
</event>
<event>
 7    1  0.5441610E-013  0.5052887E+02  0.7816164E-02  0.1300439E+00
        -11   -1    0    0    0    0  0.00000000000E+00  0.00000000000E+00  0.45593999997E+02  0.45594000000E+02  0.51100000000E-03 0.  1.
         11   -1    0    0    0    0 -0.00000000000E+00 -0.00000000000E+00 -0.45593999997E+02  0.45594000000E+02  0.51100000000E-03 0. -1.
    9900012    2    1    2    0    0  0.36422993711E+02 -0.72475381876E+01  0.16553061879E+02  0.50528866485E+02  0.30000020167E+02 0.  0.
        -12    1    1    2    0    0 -0.36422993711E+02  0.72475381876E+01 -0.16553061879E+02  0.40659133515E+02  0.00000000000E+00 0.  1.
         11    1    3    3    0    0  0.19457319687E+02 -0.79648368004E+01  0.19270606828E+02  0.28519856284E+02  0.51100000000E-03 0. -1.
        -11    1    3    3    0    0 -0.23437181839E+01 -0.40665344405E+00 -0.10341746594E+01  0.25938194687E+01  0.51100000000E-03 0.  1.
         12    1    3    3    0    0  0.19309392207E+02  0.11239520569E+01 -0.16833702893E+01  0.19415190732E+02  0.00000000000E+00 0. -1.
</event>
<event>
 7    1  0.5441610E-013  0.5052886E+02  0.7816164E-02  0.1300439E+00
        -11   -1    0    0    0    0  0.00000000000E+00  0.00000000000E+00  0.45593999997E+02  0.45594000000E+02  0.51100000000E-03 0.  1.
         11   -1    0    0    0    0 -0.00000000000E+00 -0.00000000000E+00 -0.45593999997E+02  0.45594000000E+02  0.51100000000E-03 0. -1.
    9900012    2    1    2    0    0  0.25285317461E+02 -0.30649304383E+02 -0.86277902638E+01  0.50528857078E+02  0.29999991575E+02 0.  0.
        -12    1    1    2    0    0 -0.25285317461E+02  0.30649304383E+02  0.86277902638E+01  0.40659142922E+02  0.00000000000E+00 0.  1.
         11    1    3    3    0    0  0.66451166003E+01 -0.96255020999E+01 -0.82232225016E+01  0.14297875852E+02  0.51100000000E-03 0. -1.
        -11    1    3    3    0    0  0.47125884864E+01  0.22158346035E+01 -0.66308028258E+01  0.84312489945E+01  0.51100000000E-03 0.  1.
         12    1    3    3    0    0  0.13927612375E+02 -0.23239636887E+02  0.62262350636E+01  0.27799732232E+02  0.00000000000E+00 0. -1.
</event>
<event>
 7    1  0.5441610E-013  0.5052886E+02  0.7816164E-02  0.1300439E+00
        -11   -1    0    0    0    0  0.00000000000E+00  0.00000000000E+00  0.45593999997E+02  0.45594000000E+02  0.51100000000E-03 0. -1.
         11   -1    0    0    0    0 -0.00000000000E+00 -0.00000000000E+00 -0.45593999997E+02  0.45594000000E+02  0.51100000000E-03 0.  1.
    9900012    2    1    2    0    0 -0.62264580599E+01 -0.36699675680E+02  0.16356376168E+02  0.50528855686E+02  0.29999987343E+02 0.  0.
        -12    1    1    2    0    0  0.62264580599E+01  0.36699675680E+02 -0.16356376168E+02  0.40659144314E+02  0.00000000000E+00 0.  1.
         11    1    3    3    0    0  0.46611322126E+01 -0.21367467493E+01  0.67404040832E+00  0.51716700308E+01  0.51100000000E-03 0. -1.
        -11    1    3    3    0    0  0.68300120742E+01 -0.92412632032E+01  0.25091450829E+01  0.11762049984E+02  0.51100000000E-03 0.  1.
         12    1    3    3    0    0 -0.17717602347E+02 -0.25321665728E+02  0.13173190677E+02  0.33595135671E+02  0.00000000000E+00 0. -1.
</event>
<event>
 7    1  0.5441610E-013  0.5052884E+02  0.7816164E-02  0.1300439E+00
        -11   -1    0    0    0    0  0.00000000000E+00  0.00000000000E+00  0.45593999997E+02  0.45594000000E+02  0.51100000000E-03 0. -1.
         11   -1    0    0    0    0 -0.00000000000E+00 -0.00000000000E+00 -0.45593999997E+02  0.45594000000E+02  0.51100000000E-03 0.  1.
    9900012    2    1    2    0    0  0.27592845559E+02  0.25647398428E+02 -0.15297490068E+02  0.50528838983E+02  0.29999936574E+02 0.  0.
        -12    1    1    2    0    0 -0.27592845559E+02 -0.25647398428E+02  0.15297490068E+02  0.40659161017E+02  0.00000000000E+00 0.  1.
         11    1    3    3    0    0  0.25557502833E+02  0.71567373784E+01 -0.11098933982E+02  0.28767884468E+02  0.51100000000E-03 0. -1.
        -11    1    3    3    0    0  0.46779260764E+01  0.80477380015E+01  0.17258642775E+01  0.94671900310E+01  0.51100000000E-03 0.  1.
        -12    1    3    3    0    0 -0.26425833503E+01  0.10442923048E+02 -0.59244203641E+01  0.12293764485E+02  0.00000000000E+00 0.  1.
</event>
<event>
 7    1  0.5441610E-013  0.5052886E+02  0.7816164E-02  0.1300439E+00
        -11   -1    0    0    0    0  0.00000000000E+00  0.00000000000E+00  0.45593999997E+02  0.45594000000E+02  0.51100000000E-03 0.  1.
         11   -1    0    0    0    0 -0.00000000000E+00 -0.00000000000E+00 -0.45593999997E+02  0.45594000000E+02  0.51100000000E-03 0. -1.
    9900012    2    1    2    0    0  0.51769860679E+01 -0.37190582249E+02  0.15595684851E+02  0.50528856149E+02  0.29999988750E+02 0.  0.
        -12    1    1    2    0    0 -0.51769860679E+01  0.37190582249E+02 -0.15595684851E+02  0.40659143851E+02  0.00000000000E+00 0.  1.
         11    1    3    3    0    0 -0.34485550767E+01 -0.15607101124E+01 -0.44027252265E+01  0.58062326730E+01  0.51100000000E-03 0.  1.
        -11    1    3    3    0    0  0.62147982779E+01 -0.51909855761E+01 -0.22133734899E+00  0.81005579666E+01  0.51100000000E-03 0. -1.
         12    1    3    3    0    0  0.24107428667E+01 -0.30438886560E+02  0.20219747426E+02  0.36622065509E+02  0.00000000000E+00 0. -1.
</event>
<event>
 7    1  0.5441610E-013  0.5052886E+02  0.7816164E-02  0.1300439E+00
        -11   -1    0    0    0    0  0.00000000000E+00  0.00000000000E+00  0.45593999997E+02  0.45594000000E+02  0.51100000000E-03 0.  1.
         11   -1    0    0    0    0 -0.00000000000E+00 -0.00000000000E+00 -0.45593999997E+02  0.45594000000E+02  0.51100000000E-03 0. -1.
    9900012    2    1    2    0    0 -0.37597140922E+02 -0.30916117197E+01 -0.15167819046E+02  0.50528858308E+02  0.29999995312E+02 0.  0.
        -12    1    1    2    0    0  0.37597140922E+02  0.30916117197E+01  0.15167819046E+02  0.40659141692E+02  0.00000000000E+00 0.  1.
         11    1    3    3    0    0 -0.83398402198E+01 -0.94803910654E+01 -0.69826726368E+01  0.14428737542E+02  0.51100000000E-03 0. -1.
        -11    1    3    3    0    0 -0.26559898001E+02 -0.17184082675E+01 -0.61248138867E+01  0.27311068346E+02  0.51100000000E-03 0.  1.
        -12    1    3    3    0    0 -0.26974027013E+01  0.81071876132E+01 -0.20603325226E+01  0.87890524195E+01  0.00000000000E+00 0.  1.
</event>
<event>
 7    1  0.5441610E-013  0.5052887E+02  0.7816164E-02  0.1300439E+00
        -11   -1    0    0    0    0  0.00000000000E+00  0.00000000000E+00  0.45593999997E+02  0.45594000000E+02  0.51100000000E-03 0. -1.
         11   -1    0    0    0    0 -0.00000000000E+00 -0.00000000000E+00 -0.45593999997E+02  0.45594000000E+02  0.51100000000E-03 0.  1.
    9900012    2    1    2    0    0 -0.34877567457E+02  0.17349436388E+02  0.11649783330E+02  0.50528866877E+02  0.30000021359E+02 0.  0.
        -12    1    1    2    0    0  0.34877567457E+02 -0.17349436388E+02 -0.11649783330E+02  0.40659133123E+02  0.00000000000E+00 0.  1.
         11    1    3    3    0    0 -0.13737827633E+02  0.14208658053E+01  0.13687520680E+02  0.19444664829E+02  0.51100000000E-03 0. -1.
        -11    1    3    3    0    0 -0.57431876742E+01 -0.23387871869E+01 -0.35511000668E+01  0.71459388545E+01  0.51100000000E-03 0.  1.
         12    1    3    3    0    0 -0.15396552150E+02  0.18267357770E+02  0.15133627174E+01  0.23938263193E+02  0.00000000000E+00 0. -1.
</event>
<event>
 7    1  0.5441610E-013  0.5052886E+02  0.7816164E-02  0.1300439E+00
        -11   -1    0    0    0    0  0.00000000000E+00  0.00000000000E+00  0.45593999997E+02  0.45594000000E+02  0.51100000000E-03 0.  1.
         11   -1    0    0    0    0 -0.00000000000E+00 -0.00000000000E+00 -0.45593999997E+02  0.45594000000E+02  0.51100000000E-03 0. -1.
    9900012    2    1    2    0    0 -0.31181972316E+02 -0.24039928574E+02 -0.10145545107E+02  0.50528860205E+02  0.30000001079E+02 0.  0.
        -12    1    1    2    0    0  0.31181972316E+02  0.24039928574E+02  0.10145545107E+02  0.40659139795E+02  0.00000000000E+00 0.  1.
         11    1    3    3    0    0 -0.58621624689E+01 -0.70040343519E+01 -0.10967703001E+02  0.14272769717E+02  0.51100000000E-03 0. -1.
        -11    1    3    3    0    0 -0.18202225842E+02 -0.72743264520E+01 -0.81287270239E+01  0.21220580912E+02  0.51100000000E-03 0.  1.
        -12    1    3    3    0    0 -0.71175840047E+01 -0.97615677703E+01  0.89508849180E+01  0.15035509576E+02  0.00000000000E+00 0.  1.
</event>
<event>
 7    1  0.5441610E-013  0.5052887E+02  0.7816164E-02  0.1300439E+00
        -11   -1    0    0    0    0  0.00000000000E+00  0.00000000000E+00  0.45593999997E+02  0.45594000000E+02  0.51100000000E-03 0.  1.
         11   -1    0    0    0    0 -0.00000000000E+00 -0.00000000000E+00 -0.45593999997E+02  0.45594000000E+02  0.51100000000E-03 0. -1.
    9900012    2    1    2    0    0 -0.99313245078E+01 -0.25395549627E+02 -0.30159576667E+02  0.50528865577E+02  0.30000017407E+02 0.  0.
        -12    1    1    2    0    0  0.99313245078E+01  0.25395549627E+02  0.30159576667E+02  0.40659134423E+02  0.00000000000E+00 0.  1.
         11    1    3    3    0    0 -0.15158620086E+01 -0.20753504804E+01 -0.18282244011E+02  0.18461997822E+02  0.51100000000E-03 0. -1.
        -11    1    3    3    0    0  0.48027244642E+01 -0.58438093390E+01 -0.51288749413E+01  0.91390168123E+01  0.51100000000E-03 0.  1.
         12    1    3    3    0    0 -0.13218186963E+02 -0.17476389807E+02 -0.67484577147E+01  0.22927850942E+02  0.00000000000E+00 0. -1.
</event>
<event>
 7    1  0.5441610E-013  0.5052882E+02  0.7816164E-02  0.1300439E+00
        -11   -1    0    0    0    0  0.00000000000E+00  0.00000000000E+00  0.45593999997E+02  0.45594000000E+02  0.51100000000E-03 0.  1.
         11   -1    0    0    0    0 -0.00000000000E+00 -0.00000000000E+00 -0.45593999997E+02  0.45594000000E+02  0.51100000000E-03 0. -1.
    9900012    2    1    2    0    0 -0.13381256209E+02 -0.30584854287E+01 -0.38272133148E+02  0.50528824817E+02  0.29999893515E+02 0.  0.
        -12    1    1    2    0    0  0.13381256209E+02  0.30584854287E+01  0.38272133148E+02  0.40659175183E+02  0.00000000000E+00 0.  1.
         11    1    3    3    0    0  0.13185388814E+01 -0.14677178544E+01 -0.11434648754E+02  0.11603617233E+02  0.51100000000E-03 0. -1.
        -11    1    3    3    0    0 -0.13599933696E+01 -0.11212399787E+02 -0.75926265019E+01  0.13609388980E+02  0.51100000000E-03 0.  1.
         12    1    3    3    0    0 -0.13339801721E+02  0.96216322125E+01 -0.19244857892E+02  0.25315818605E+02  0.00000000000E+00 0. -1.
</event>
<event>
 7    1  0.5441610E-013  0.5052886E+02  0.7816164E-02  0.1300439E+00
        -11   -1    0    0    0    0  0.00000000000E+00  0.00000000000E+00  0.45593999997E+02  0.45594000000E+02  0.51100000000E-03 0. -1.
         11   -1    0    0    0    0 -0.00000000000E+00 -0.00000000000E+00 -0.45593999997E+02  0.45594000000E+02  0.51100000000E-03 0.  1.
    9900012    2    1    2    0    0  0.19562286479E+02  0.34929495320E+02  0.71002084725E+01  0.50528860118E+02  0.30000000814E+02 0.  0.
        -12    1    1    2    0    0 -0.19562286479E+02 -0.34929495320E+02 -0.71002084725E+01  0.40659139882E+02  0.00000000000E+00 0.  1.
         11    1    3    3    0    0  0.22689987381E+01  0.13833278218E+02  0.34551932083E+01  0.14437669545E+02  0.51100000000E-03 0. -1.
        -11    1    3    3    0    0  0.48306465385E+00 -0.48902557757E+01 -0.10508495543E+00  0.49151801718E+01  0.51100000000E-03 0.  1.
         12    1    3    3    0    0  0.16810223088E+02  0.25986472878E+02  0.37501002196E+01  0.31176010401E+02  0.00000000000E+00 0. -1.
</event>
<event>
 7    1  0.5441610E-013  0.5052885E+02  0.7816164E-02  0.1300439E+00
        -11   -1    0    0    0    0  0.00000000000E+00  0.00000000000E+00  0.45593999997E+02  0.45594000000E+02  0.51100000000E-03 0. -1.
         11   -1    0    0    0    0 -0.00000000000E+00 -0.00000000000E+00 -0.45593999997E+02  0.45594000000E+02  0.51100000000E-03 0.  1.
    9900012    2    1    2    0    0  0.36734523598E+02  0.17423138308E+02 -0.41910187798E+00  0.50528848277E+02  0.29999964822E+02 0.  0.
        -12    1    1    2    0    0 -0.36734523598E+02 -0.17423138308E+02  0.41910187798E+00  0.40659151723E+02  0.00000000000E+00 0.  1.
         11    1    3    3    0    0  0.18370540930E+02  0.10013013837E+02 -0.87151247397E+01  0.22664743980E+02  0.51100000000E-03 0. -1.
        -11    1    3    3    0    0  0.20910667234E+02  0.95841742625E+01  0.59010517590E+01  0.23747311692E+02  0.51100000000E-03 0.  1.
        -12    1    3    3    0    0 -0.25466845665E+01 -0.21740497907E+01  0.23949711027E+01  0.41167926055E+01  0.00000000000E+00 0.  1.
</event>
<event>
 7    1  0.5441610E-013  0.5052886E+02  0.7816164E-02  0.1300439E+00
        -11   -1    0    0    0    0  0.00000000000E+00  0.00000000000E+00  0.45593999997E+02  0.45594000000E+02  0.51100000000E-03 0.  1.
         11   -1    0    0    0    0 -0.00000000000E+00 -0.00000000000E+00 -0.45593999997E+02  0.45594000000E+02  0.51100000000E-03 0. -1.
    9900012    2    1    2    0    0 -0.25829996267E+00 -0.71164335268E+00 -0.40652093739E+02  0.50528857357E+02  0.29999992421E+02 0.  0.
        -12    1    1    2    0    0  0.25829996267E+00  0.71164335268E+00  0.40652093739E+02  0.40659142643E+02  0.00000000000E+00 0.  1.
         11    1    3    3    0    0 -0.10909480761E+02 -0.73460125901E+01 -0.21061294231E+02  0.24830601813E+02  0.51100000000E-03 0. -1.
        -11    1    3    3    0    0  0.83552150807E+01 -0.12092286723E+01 -0.10523165533E+02  0.13491066160E+02  0.51100000000E-03 0.  1.
        -12    1    3    3    0    0  0.22959657179E+01  0.78435979097E+01 -0.90676339748E+01  0.12207189384E+02  0.00000000000E+00 0.  1.
</event>
<event>
 7    1  0.5441610E-013  0.5052886E+02  0.7816164E-02  0.1300439E+00
        -11   -1    0    0    0    0  0.00000000000E+00  0.00000000000E+00  0.45593999997E+02  0.45594000000E+02  0.51100000000E-03 0. -1.
         11   -1    0    0    0    0 -0.00000000000E+00 -0.00000000000E+00 -0.45593999997E+02  0.45594000000E+02  0.51100000000E-03 0.  1.
    9900012    2    1    2    0    0  0.18273229450E+02 -0.19516724836E+02  0.30632529568E+02  0.50528864119E+02  0.30000012976E+02 0.  0.
        -12    1    1    2    0    0 -0.18273229450E+02  0.19516724836E+02 -0.30632529568E+02  0.40659135881E+02  0.00000000000E+00 0.  1.
         11    1    3    3    0    0 -0.27425179440E+01  0.44448157126E+01  0.72052699595E+01  0.88990846070E+01  0.51100000000E-03 0. -1.
        -11    1    3    3    0    0  0.13477994213E+02 -0.91515954003E+01  0.55231096292E+01  0.17202115179E+02  0.51100000000E-03 0.  1.
        -12    1    3    3    0    0  0.75377531809E+01 -0.14809945148E+02  0.17904149979E+02  0.24427664333E+02  0.00000000000E+00 0.  1.
</event>
<event>
 7    1  0.5441610E-013  0.5052886E+02  0.7816164E-02  0.1300439E+00
        -11   -1    0    0    0    0  0.00000000000E+00  0.00000000000E+00  0.45593999997E+02  0.45594000000E+02  0.51100000000E-03 0.  1.
         11   -1    0    0    0    0 -0.00000000000E+00 -0.00000000000E+00 -0.45593999997E+02  0.45594000000E+02  0.51100000000E-03 0. -1.
    9900012    2    1    2    0    0  0.13514010990E+02  0.25625480380E+02 -0.28528446339E+02  0.50528856031E+02  0.29999988393E+02 0.  0.
        -12    1    1    2    0    0 -0.13514010990E+02 -0.25625480380E+02  0.28528446339E+02  0.40659143969E+02  0.00000000000E+00 0.  1.
         11    1    3    3    0    0  0.10905054243E+02  0.20680251781E+02 -0.71185890348E+01  0.24439053417E+02  0.51100000000E-03 0. -1.
        -11    1    3    3    0    0  0.25011516737E+01 -0.31353559901E+01 -0.99314144099E+00  0.41318938832E+01  0.51100000000E-03 0.  1.
        -12    1    3    3    0    0  0.10780507318E+00  0.80805845886E+01 -0.20416715863E+02  0.21957908732E+02  0.00000000000E+00 0.  1.
</event>
<event>
 7    1  0.5441610E-013  0.5052886E+02  0.7816164E-02  0.1300439E+00
        -11   -1    0    0    0    0  0.00000000000E+00  0.00000000000E+00  0.45593999997E+02  0.45594000000E+02  0.51100000000E-03 0.  1.
         11   -1    0    0    0    0 -0.00000000000E+00 -0.00000000000E+00 -0.45593999997E+02  0.45594000000E+02  0.51100000000E-03 0. -1.
    9900012    2    1    2    0    0 -0.34542035900E+02  0.62854806541E+01 -0.20506245680E+02  0.50528860522E+02  0.30000002043E+02 0.  0.
        -12    1    1    2    0    0  0.34542035900E+02 -0.62854806541E+01  0.20506245680E+02  0.40659139478E+02  0.00000000000E+00 0.  1.
         11    1    3    3    0    0 -0.86968404251E+01  0.54630885838E+01 -0.43991088272E+01  0.11172847846E+02  0.51100000000E-03 0. -1.
        -11    1    3    3    0    0 -0.21686788662E+02 -0.25726588591E+01  0.55963088801E+00  0.21846019388E+02  0.51100000000E-03 0.  1.
         12    1    3    3    0    0 -0.41584068128E+01  0.33950509293E+01 -0.16666767741E+02  0.17509993288E+02  0.00000000000E+00 0. -1.
</event>
<event>
 7    1  0.5441610E-013  0.5052885E+02  0.7816164E-02  0.1300439E+00
        -11   -1    0    0    0    0  0.00000000000E+00  0.00000000000E+00  0.45593999997E+02  0.45594000000E+02  0.51100000000E-03 0.  1.
         11   -1    0    0    0    0 -0.00000000000E+00 -0.00000000000E+00 -0.45593999997E+02  0.45594000000E+02  0.51100000000E-03 0. -1.
    9900012    2    1    2    0    0  0.21261545843E+02  0.18440429133E+02 -0.29343892511E+02  0.50528846222E+02  0.29999958575E+02 0.  0.
        -12    1    1    2    0    0 -0.21261545843E+02 -0.18440429133E+02  0.29343892511E+02  0.40659153778E+02  0.00000000000E+00 0.  1.
         11    1    3    3    0    0  0.10720504830E+02  0.81804750429E+01 -0.10785042192E+02  0.17267499271E+02  0.51100000000E-03 0. -1.
        -11    1    3    3    0    0  0.85711551508E+01  0.11091452125E+02  0.55498006390E+00  0.14028293339E+02  0.51100000000E-03 0.  1.
        -12    1    3    3    0    0  0.19698858622E+01 -0.83149803487E+00 -0.19113830384E+02  0.19233053612E+02  0.00000000000E+00 0.  1.
</event>
<event>
 7    1  0.5441610E-013  0.5052887E+02  0.7816164E-02  0.1300439E+00
        -11   -1    0    0    0    0  0.00000000000E+00  0.00000000000E+00  0.45593999997E+02  0.45594000000E+02  0.51100000000E-03 0.  1.
         11   -1    0    0    0    0 -0.00000000000E+00 -0.00000000000E+00 -0.45593999997E+02  0.45594000000E+02  0.51100000000E-03 0. -1.
    9900012    2    1    2    0    0 -0.27976547902E+02  0.29438357302E+02  0.19649253581E+01  0.50528867633E+02  0.30000023657E+02 0.  0.
        -12    1    1    2    0    0  0.27976547902E+02 -0.29438357302E+02 -0.19649253581E+01  0.40659132367E+02  0.00000000000E+00 0.  1.
         11    1    3    3    0    0 -0.21309512218E+01  0.10003576262E+02 -0.18283229186E+01  0.10390151880E+02  0.51100000000E-03 0. -1.
        -11    1    3    3    0    0  0.34699749944E+01 -0.14429928643E+01  0.15921657793E+01  0.40814148280E+01  0.51100000000E-03 0.  1.
        -12    1    3    3    0    0 -0.29315571675E+02  0.20877773905E+02  0.22010824974E+01  0.36057300925E+02  0.00000000000E+00 0.  1.
</event>
<event>
 7    1  0.5441610E-013  0.5052885E+02  0.7816164E-02  0.1300439E+00
        -11   -1    0    0    0    0  0.00000000000E+00  0.00000000000E+00  0.45593999997E+02  0.45594000000E+02  0.51100000000E-03 0. -1.
         11   -1    0    0    0    0 -0.00000000000E+00 -0.00000000000E+00 -0.45593999997E+02  0.45594000000E+02  0.51100000000E-03 0.  1.
    9900012    2    1    2    0    0  0.33032257360E+02  0.23364835276E+02 -0.40151152075E+01  0.50528847230E+02  0.29999961641E+02 0.  0.
        -12    1    1    2    0    0 -0.33032257360E+02 -0.23364835276E+02  0.40151152075E+01  0.40659152770E+02  0.00000000000E+00 0.  1.
         11    1    3    3    0    0  0.18450965629E+02  0.92948790113E+01 -0.95809654176E+01  0.22773401307E+02  0.51100000000E-03 0. -1.
        -11    1    3    3    0    0  0.11747445066E+02 -0.10227831662E+01  0.31947072157E+01  0.12216984302E+02  0.51100000000E-03 0.  1.
        -12    1    3    3    0    0  0.28338466654E+01  0.15092739431E+02  0.23711429944E+01  0.15538461622E+02  0.00000000000E+00 0.  1.
</event>
<event>
 7    1  0.5441610E-013  0.5052886E+02  0.7816164E-02  0.1300439E+00
        -11   -1    0    0    0    0  0.00000000000E+00  0.00000000000E+00  0.45593999997E+02  0.45594000000E+02  0.51100000000E-03 0.  1.
         11   -1    0    0    0    0 -0.00000000000E+00 -0.00000000000E+00 -0.45593999997E+02  0.45594000000E+02  0.51100000000E-03 0. -1.
    9900012    2    1    2    0    0 -0.18653240099E+02 -0.65505422078E+01 -0.35529037987E+02  0.50528861916E+02  0.30000006280E+02 0.  0.
        -12    1    1    2    0    0  0.18653240099E+02  0.65505422078E+01  0.35529037987E+02  0.40659138084E+02  0.00000000000E+00 0.  1.
         11    1    3    3    0    0 -0.87127463226E+01 -0.59477168761E+01 -0.98155830553E+01  0.14409474505E+02  0.51100000000E-03 0.  1.
        -11    1    3    3    0    0  0.73717374466E+01 -0.15979586191E+01 -0.11217475812E+02  0.13517682811E+02  0.51100000000E-03 0. -1.
         12    1    3    3    0    0 -0.17312231223E+02  0.99513328733E+00 -0.14495979121E+02  0.22601704601E+02  0.00000000000E+00 0. -1.
</event>
<event>
 7    1  0.5441610E-013  0.5052886E+02  0.7816164E-02  0.1300439E+00
        -11   -1    0    0    0    0  0.00000000000E+00  0.00000000000E+00  0.45593999997E+02  0.45594000000E+02  0.51100000000E-03 0. -1.
         11   -1    0    0    0    0 -0.00000000000E+00 -0.00000000000E+00 -0.45593999997E+02  0.45594000000E+02  0.51100000000E-03 0.  1.
    9900012    2    1    2    0    0  0.17541040376E+02  0.20122707085E+02  0.30668459888E+02  0.50528857488E+02  0.29999992820E+02 0.  0.
        -12    1    1    2    0    0 -0.17541040376E+02 -0.20122707085E+02 -0.30668459888E+02  0.40659142512E+02  0.00000000000E+00 0.  1.
         11    1    3    3    0    0 -0.53519524166E-01  0.15667526585E+02  0.85327448793E+01  0.17840459329E+02  0.51100000000E-03 0.  1.
        -11    1    3    3    0    0 -0.12993329231E+01 -0.13356219648E+01  0.84442931630E+01  0.86474412031E+01  0.51100000000E-03 0. -1.
        -12    1    3    3    0    0  0.18893892823E+02  0.57908024651E+01  0.13691421846E+02  0.24040956956E+02  0.00000000000E+00 0.  1.
</event>
<event>
 7    1  0.5441610E-013  0.5052887E+02  0.7816164E-02  0.1300439E+00
        -11   -1    0    0    0    0  0.00000000000E+00  0.00000000000E+00  0.45593999997E+02  0.45594000000E+02  0.51100000000E-03 0.  1.
         11   -1    0    0    0    0 -0.00000000000E+00 -0.00000000000E+00 -0.45593999997E+02  0.45594000000E+02  0.51100000000E-03 0. -1.
    9900012    2    1    2    0    0  0.41889459346E+01 -0.82077035752E+01 -0.39601154872E+02  0.50528866546E+02  0.30000020354E+02 0.  0.
        -12    1    1    2    0    0 -0.41889459346E+01  0.82077035752E+01  0.39601154872E+02  0.40659133454E+02  0.00000000000E+00 0.  1.
         11    1    3    3    0    0  0.26232563387E+01 -0.96495110748E+00 -0.19711350565E+01  0.34202307130E+01  0.51100000000E-03 0. -1.
        -11    1    3    3    0    0 -0.10312872565E+02  0.47946638201E+01 -0.16601919190E+02  0.20123813325E+02  0.51100000000E-03 0.  1.
        -12    1    3    3    0    0  0.11878562160E+02 -0.12037416288E+02 -0.21028100626E+02  0.26984822509E+02  0.00000000000E+00 0.  1.
</event>
<event>
 7    1  0.5441610E-013  0.5052886E+02  0.7816164E-02  0.1300439E+00
        -11   -1    0    0    0    0  0.00000000000E+00  0.00000000000E+00  0.45593999997E+02  0.45594000000E+02  0.51100000000E-03 0. -1.
         11   -1    0    0    0    0 -0.00000000000E+00 -0.00000000000E+00 -0.45593999997E+02  0.45594000000E+02  0.51100000000E-03 0.  1.
    9900012    2    1    2    0    0 -0.12338496294E+01 -0.52595446353E+01  0.40298642833E+02  0.50528858238E+02  0.29999995099E+02 0.  0.
        -12    1    1    2    0    0  0.12338496294E+01  0.52595446353E+01 -0.40298642833E+02  0.40659141762E+02  0.00000000000E+00 0.  1.
         11    1    3    3    0    0  0.54326285267E+00 -0.88704304611E+01  0.18666106788E+02  0.20673732463E+02  0.51100000000E-03 0. -1.
        -11    1    3    3    0    0 -0.90342171696E+01 -0.39392029829E+01  0.81874635911E+01  0.12812843569E+02  0.51100000000E-03 0.  1.
        -12    1    3    3    0    0  0.72571046876E+01  0.75500888087E+01  0.13445072454E+02  0.17042282205E+02  0.00000000000E+00 0.  1.
</event>
<event>
 7    1  0.5441610E-013  0.5052887E+02  0.7816164E-02  0.1300439E+00
        -11   -1    0    0    0    0  0.00000000000E+00  0.00000000000E+00  0.45593999997E+02  0.45594000000E+02  0.51100000000E-03 0. -1.
         11   -1    0    0    0    0 -0.00000000000E+00 -0.00000000000E+00 -0.45593999997E+02  0.45594000000E+02  0.51100000000E-03 0.  1.
    9900012    2    1    2    0    0 -0.18285460000E+02 -0.34731554061E+02  0.10607840099E+02  0.50528866137E+02  0.30000019109E+02 0.  0.
        -12    1    1    2    0    0  0.18285460000E+02  0.34731554061E+02 -0.10607840099E+02  0.40659133863E+02  0.00000000000E+00 0.  1.
         11    1    3    3    0    0 -0.16297257160E+02 -0.22041117038E+02  0.13801437888E+02  0.30690244692E+02  0.51100000000E-03 0. -1.
        -11    1    3    3    0    0  0.40463755095E+01  0.10487249464E+00  0.23080697823E+01  0.46595428301E+01  0.51100000000E-03 0.  1.
        -12    1    3    3    0    0 -0.60345783499E+01 -0.12795309518E+02 -0.55016675713E+01  0.15179078615E+02  0.00000000000E+00 0.  1.
</event>
<event>
 7    1  0.5441610E-013  0.5052886E+02  0.7816164E-02  0.1300439E+00
        -11   -1    0    0    0    0  0.00000000000E+00  0.00000000000E+00  0.45593999997E+02  0.45594000000E+02  0.51100000000E-03 0.  1.
         11   -1    0    0    0    0 -0.00000000000E+00 -0.00000000000E+00 -0.45593999997E+02  0.45594000000E+02  0.51100000000E-03 0. -1.
    9900012    2    1    2    0    0 -0.11337532507E+02 -0.11310214695E+01 -0.39030071812E+02  0.50528863775E+02  0.30000011930E+02 0.  0.
        -12    1    1    2    0    0  0.11337532507E+02  0.11310214695E+01  0.39030071812E+02  0.40659136225E+02  0.00000000000E+00 0.  1.
         11    1    3    3    0    0 -0.79050006291E+01 -0.84425650842E+01 -0.43738890082E+01  0.12365146399E+02  0.51100000000E-03 0. -1.
        -11    1    3    3    0    0 -0.57266563733E+01  0.37245942342E+01 -0.57024953374E+01  0.88986318478E+01  0.51100000000E-03 0.  1.
        -12    1    3    3    0    0  0.22941244955E+01  0.35869493805E+01 -0.28953687467E+02  0.29265085528E+02  0.00000000000E+00 0.  1.
</event>
<event>
 7    1  0.5441610E-013  0.5052886E+02  0.7816164E-02  0.1300439E+00
        -11   -1    0    0    0    0  0.00000000000E+00  0.00000000000E+00  0.45593999997E+02  0.45594000000E+02  0.51100000000E-03 0. -1.
         11   -1    0    0    0    0 -0.00000000000E+00 -0.00000000000E+00 -0.45593999997E+02  0.45594000000E+02  0.51100000000E-03 0.  1.
    9900012    2    1    2    0    0  0.25125481930E+02  0.31041590425E+02 -0.76351503068E+01  0.50528859594E+02  0.29999999223E+02 0.  0.
        -12    1    1    2    0    0 -0.25125481930E+02 -0.31041590425E+02  0.76351503068E+01  0.40659140406E+02  0.00000000000E+00 0.  1.
         11    1    3    3    0    0  0.13212510117E+02  0.21406668321E+02 -0.54020594764E+01  0.25729324108E+02  0.51100000000E-03 0. -1.
        -11    1    3    3    0    0  0.86796857287E+01  0.34796571413E+01 -0.10458382484E+02  0.14029352181E+02  0.51100000000E-03 0.  1.
         12    1    3    3    0    0  0.32332860845E+01  0.61552649627E+01  0.82252916534E+01  0.10770183306E+02  0.00000000000E+00 0. -1.
</event>
<event>
 7    1  0.5441610E-013  0.5052885E+02  0.7816164E-02  0.1300439E+00
        -11   -1    0    0    0    0  0.00000000000E+00  0.00000000000E+00  0.45593999997E+02  0.45594000000E+02  0.51100000000E-03 0.  1.
         11   -1    0    0    0    0 -0.00000000000E+00 -0.00000000000E+00 -0.45593999997E+02  0.45594000000E+02  0.51100000000E-03 0. -1.
    9900012    2    1    2    0    0 -0.17777074867E+02 -0.31594518964E+02 -0.18409999820E+02  0.50528854500E+02  0.29999983738E+02 0.  0.
        -12    1    1    2    0    0  0.17777074867E+02  0.31594518964E+02  0.18409999820E+02  0.40659145500E+02  0.00000000000E+00 0.  1.
         11    1    3    3    0    0  0.47799781084E+01 -0.13767316323E+02  0.12586153217E+00  0.14574053342E+02  0.51100000000E-03 0. -1.
        -11    1    3    3    0    0 -0.53883435362E+00 -0.11873528853E+01  0.13967520893E+01  0.19107762807E+01  0.51100000000E-03 0.  1.
         12    1    3    3    0    0 -0.22018218622E+02 -0.16639849756E+02 -0.19932613442E+02  0.34044024877E+02  0.00000000000E+00 0. -1.
</event>
<event>
 7    1  0.5441610E-013  0.5052885E+02  0.7816164E-02  0.1300439E+00
        -11   -1    0    0    0    0  0.00000000000E+00  0.00000000000E+00  0.45593999997E+02  0.45594000000E+02  0.51100000000E-03 0. -1.
         11   -1    0    0    0    0 -0.00000000000E+00 -0.00000000000E+00 -0.45593999997E+02  0.45594000000E+02  0.51100000000E-03 0.  1.
    9900012    2    1    2    0    0 -0.93579927533E+01 -0.35931015833E+02  0.16569742535E+02  0.50528852261E+02  0.29999976934E+02 0.  0.
        -12    1    1    2    0    0  0.93579927533E+01  0.35931015833E+02 -0.16569742535E+02  0.40659147739E+02  0.00000000000E+00 0.  1.
         11    1    3    3    0    0 -0.13792941968E+02 -0.55784512001E+01  0.28016334211E+01  0.15139799075E+02  0.51100000000E-03 0. -1.
        -11    1    3    3    0    0  0.24179472108E+01 -0.23747496908E+01  0.49236420836E+01  0.59773034419E+01  0.51100000000E-03 0.  1.
        -12    1    3    3    0    0  0.20170020042E+01 -0.27977814942E+02  0.88444670302E+01  0.29411749745E+02  0.00000000000E+00 0.  1.
</event>
<event>
 7    1  0.5441610E-013  0.5052888E+02  0.7816164E-02  0.1300439E+00
        -11   -1    0    0    0    0  0.00000000000E+00  0.00000000000E+00  0.45593999997E+02  0.45594000000E+02  0.51100000000E-03 0. -1.
         11   -1    0    0    0    0 -0.00000000000E+00 -0.00000000000E+00 -0.45593999997E+02  0.45594000000E+02  0.51100000000E-03 0.  1.
    9900012    2    1    2    0    0 -0.13750129122E+02 -0.38245657221E+02  0.11696565618E+01  0.50528875026E+02  0.30000046130E+02 0.  0.
        -12    1    1    2    0    0  0.13750129122E+02  0.38245657221E+02 -0.11696565618E+01  0.40659124974E+02  0.00000000000E+00 0.  1.
         11    1    3    3    0    0  0.81652417519E+00 -0.22797497256E+01  0.52427304518E+01  0.57749626312E+01  0.51100000000E-03 0. -1.
        -11    1    3    3    0    0 -0.11396222575E+02 -0.36036971544E+01  0.22100337697E+00  0.11954470499E+02  0.51100000000E-03 0.  1.
        -12    1    3    3    0    0 -0.31704307224E+01 -0.32362210341E+02 -0.42940772669E+01  0.32799441896E+02  0.00000000000E+00 0.  1.
</event>
<event>
 7    1  0.5441610E-013  0.5052886E+02  0.7816164E-02  0.1300439E+00
        -11   -1    0    0    0    0  0.00000000000E+00  0.00000000000E+00  0.45593999997E+02  0.45594000000E+02  0.51100000000E-03 0. -1.
         11   -1    0    0    0    0 -0.00000000000E+00 -0.00000000000E+00 -0.45593999997E+02  0.45594000000E+02  0.51100000000E-03 0.  1.
    9900012    2    1    2    0    0  0.23952664125E+02  0.20926786784E+02  0.25327957815E+02  0.50528856245E+02  0.29999989044E+02 0.  0.
        -12    1    1    2    0    0 -0.23952664125E+02 -0.20926786784E+02 -0.25327957815E+02  0.40659143755E+02  0.00000000000E+00 0.  1.
         11    1    3    3    0    0 -0.25764306367E+01  0.11127212383E+02  0.90155770097E+01  0.14551064542E+02  0.51100000000E-03 0. -1.
        -11    1    3    3    0    0  0.89636330699E+01  0.90253594259E+01  0.11706276926E+01  0.12773965713E+02  0.51100000000E-03 0.  1.
         12    1    3    3    0    0  0.17565461692E+02  0.77421497557E+00  0.15141753112E+02  0.23203825990E+02  0.00000000000E+00 0. -1.
</event>
<event>
 7    1  0.5441610E-013  0.5052887E+02  0.7816164E-02  0.1300439E+00
        -11   -1    0    0    0    0  0.00000000000E+00  0.00000000000E+00  0.45593999997E+02  0.45594000000E+02  0.51100000000E-03 0. -1.
         11   -1    0    0    0    0 -0.00000000000E+00 -0.00000000000E+00 -0.45593999997E+02  0.45594000000E+02  0.51100000000E-03 0.  1.
    9900012    2    1    2    0    0 -0.31733669743E+01  0.32160685026E+02  0.24673575707E+02  0.50528865019E+02  0.30000015711E+02 0.  0.
        -12    1    1    2    0    0  0.31733669743E+01 -0.32160685026E+02 -0.24673575707E+02  0.40659134981E+02  0.00000000000E+00 0.  1.
         11    1    3    3    0    0 -0.97441294374E+00  0.39643010067E+01  0.13957400245E+02  0.14542152004E+02  0.51100000000E-03 0. -1.
        -11    1    3    3    0    0 -0.10582113304E+02  0.12186775693E+02  0.66927088766E+01  0.17472577833E+02  0.51100000000E-03 0.  1.
        -12    1    3    3    0    0  0.83831592731E+01  0.16009608326E+02  0.40234665853E+01  0.18514135181E+02  0.00000000000E+00 0.  1.
</event>
<event>
 7    1  0.5441610E-013  0.5052886E+02  0.7816164E-02  0.1300439E+00
        -11   -1    0    0    0    0  0.00000000000E+00  0.00000000000E+00  0.45593999997E+02  0.45594000000E+02  0.51100000000E-03 0.  1.
         11   -1    0    0    0    0 -0.00000000000E+00 -0.00000000000E+00 -0.45593999997E+02  0.45594000000E+02  0.51100000000E-03 0. -1.
    9900012    2    1    2    0    0 -0.13926503624E+02  0.10997736356E+02 -0.36582350290E+02  0.50528855139E+02  0.29999985680E+02 0.  0.
        -12    1    1    2    0    0  0.13926503624E+02 -0.10997736356E+02  0.36582350290E+02  0.40659144861E+02  0.00000000000E+00 0.  1.
         11    1    3    3    0    0 -0.71599631008E+01  0.15252511338E+02 -0.14325746384E+02  0.22116310349E+02  0.51100000000E-03 0. -1.
        -11    1    3    3    0    0 -0.56395561974E+00 -0.48584997952E-01  0.24913033344E+01  0.25547992110E+01  0.51100000000E-03 0.  1.
         12    1    3    3    0    0 -0.62025849032E+01 -0.42061899844E+01 -0.24747907240E+02  0.25857745579E+02  0.00000000000E+00 0. -1.
</event>
<event>
 7    1  0.5441610E-013  0.5052890E+02  0.7816164E-02  0.1300439E+00
        -11   -1    0    0    0    0  0.00000000000E+00  0.00000000000E+00  0.45593999997E+02  0.45594000000E+02  0.51100000000E-03 0.  1.
         11   -1    0    0    0    0 -0.00000000000E+00 -0.00000000000E+00 -0.45593999997E+02  0.45594000000E+02  0.51100000000E-03 0. -1.
    9900012    2    1    2    0    0  0.36623019415E+02 -0.17529063415E+02 -0.21561240060E+01  0.50528899100E+02  0.30000119303E+02 0.  0.
        -12    1    1    2    0    0 -0.36623019415E+02  0.17529063415E+02  0.21561240060E+01  0.40659100900E+02  0.00000000000E+00 0.  1.
         11    1    3    3    0    0  0.99121171617E+01 -0.34978199124E+01 -0.48174880088E+01  0.11562568994E+02  0.51100000000E-03 0. -1.
        -11    1    3    3    0    0 -0.33596096671E+01  0.26404220841E+01  0.16135170089E+01  0.45675204758E+01  0.51100000000E-03 0.  1.
         12    1    3    3    0    0  0.30070511921E+02 -0.16671665587E+02  0.10478469939E+01  0.34398809630E+02  0.00000000000E+00 0. -1.
</event>
<event>
 7    1  0.5441610E-013  0.5052885E+02  0.7816164E-02  0.1300439E+00
        -11   -1    0    0    0    0  0.00000000000E+00  0.00000000000E+00  0.45593999997E+02  0.45594000000E+02  0.51100000000E-03 0.  1.
         11   -1    0    0    0    0 -0.00000000000E+00 -0.00000000000E+00 -0.45593999997E+02  0.45594000000E+02  0.51100000000E-03 0. -1.
    9900012    2    1    2    0    0  0.12674928691E+02  0.29771653469E+02 -0.24620338368E+02  0.50528853072E+02  0.29999979396E+02 0.  0.
        -12    1    1    2    0    0 -0.12674928691E+02 -0.29771653469E+02  0.24620338368E+02  0.40659146928E+02  0.00000000000E+00 0.  1.
         11    1    3    3    0    0  0.10411923696E+01  0.97347787716E+01 -0.12765004257E+02  0.16087116996E+02  0.51100000000E-03 0. -1.
        -11    1    3    3    0    0  0.18327588941E+02  0.16464043236E+02 -0.78213666944E+01  0.25848385120E+02  0.51100000000E-03 0.  1.
         12    1    3    3    0    0 -0.66938526195E+01  0.35728314605E+01 -0.40339674168E+01  0.85933509562E+01  0.00000000000E+00 0. -1.
</event>
<event>
 7    1  0.5441610E-013  0.5052886E+02  0.7816164E-02  0.1300439E+00
        -11   -1    0    0    0    0  0.00000000000E+00  0.00000000000E+00  0.45593999997E+02  0.45594000000E+02  0.51100000000E-03 0. -1.
         11   -1    0    0    0    0 -0.00000000000E+00 -0.00000000000E+00 -0.45593999997E+02  0.45594000000E+02  0.51100000000E-03 0.  1.
    9900012    2    1    2    0    0 -0.39640150143E+02  0.84335200188E+01 -0.32710557025E+01  0.50528861191E+02  0.30000004076E+02 0.  0.
        -12    1    1    2    0    0  0.39640150143E+02 -0.84335200188E+01  0.32710557025E+01  0.40659138809E+02  0.00000000000E+00 0.  1.
         11    1    3    3    0    0 -0.11654294242E+02  0.13017730093E+02  0.72270198168E+01  0.18908032334E+02  0.51100000000E-03 0. -1.
        -11    1    3    3    0    0 -0.16133456444E+02  0.13146407075E+01 -0.31890751042E+01  0.16498087686E+02  0.51100000000E-03 0.  1.
        -12    1    3    3    0    0 -0.11852399457E+02 -0.58988507821E+01 -0.73090004151E+01  0.15122741170E+02  0.00000000000E+00 0.  1.
</event>
<event>
 7    1  0.5441610E-013  0.5052890E+02  0.7816164E-02  0.1300439E+00
        -11   -1    0    0    0    0  0.00000000000E+00  0.00000000000E+00  0.45593999997E+02  0.45594000000E+02  0.51100000000E-03 0.  1.
         11   -1    0    0    0    0 -0.00000000000E+00 -0.00000000000E+00 -0.45593999997E+02  0.45594000000E+02  0.51100000000E-03 0. -1.
    9900012    2    1    2    0    0 -0.12677614328E+02 -0.36541956942E+02 -0.12534998367E+02  0.50528896392E+02  0.30000111072E+02 0.  0.
        -12    1    1    2    0    0  0.12677614328E+02  0.36541956942E+02  0.12534998367E+02  0.40659103608E+02  0.00000000000E+00 0.  1.
         11    1    3    3    0    0 -0.13755956528E+02 -0.12416218125E+02 -0.15133161462E+02  0.23924911466E+02  0.51100000000E-03 0. -1.
        -11    1    3    3    0    0 -0.70737520727E+00  0.63533108238E+00  0.14728866643E+01  0.17531174105E+01  0.51100000000E-03 0.  1.
         12    1    3    3    0    0  0.17857174080E+01 -0.24761069899E+02  0.11252764313E+01  0.24850867515E+02  0.00000000000E+00 0. -1.
</event>
<event>
 7    1  0.5441610E-013  0.5052886E+02  0.7816164E-02  0.1300439E+00
        -11   -1    0    0    0    0  0.00000000000E+00  0.00000000000E+00  0.45593999997E+02  0.45594000000E+02  0.51100000000E-03 0.  1.
         11   -1    0    0    0    0 -0.00000000000E+00 -0.00000000000E+00 -0.45593999997E+02  0.45594000000E+02  0.51100000000E-03 0. -1.
    9900012    2    1    2    0    0  0.12066968070E+02  0.10889340477E+02 -0.37268971462E+02  0.50528859720E+02  0.29999999606E+02 0.  0.
        -12    1    1    2    0    0 -0.12066968070E+02 -0.10889340477E+02  0.37268971462E+02  0.40659140280E+02  0.00000000000E+00 0.  1.
         11    1    3    3    0    0  0.13738934995E+02  0.34411980720E+01 -0.17093038629E+02  0.22198471767E+02  0.51100000000E-03 0. -1.
        -11    1    3    3    0    0  0.19942951447E+01  0.17108101038E+01  0.31088765337E+01  0.40705279631E+01  0.51100000000E-03 0.  1.
        -12    1    3    3    0    0 -0.36662620691E+01  0.57373323015E+01 -0.23284809367E+02  0.24259859990E+02  0.00000000000E+00 0.  1.
</event>
<event>
 7    1  0.5441610E-013  0.5052886E+02  0.7816164E-02  0.1300439E+00
        -11   -1    0    0    0    0  0.00000000000E+00  0.00000000000E+00  0.45593999997E+02  0.45594000000E+02  0.51100000000E-03 0.  1.
         11   -1    0    0    0    0 -0.00000000000E+00 -0.00000000000E+00 -0.45593999997E+02  0.45594000000E+02  0.51100000000E-03 0. -1.
    9900012    2    1    2    0    0 -0.36071377379E+02 -0.17321599989E+02  0.72099454090E+01  0.50528863204E+02  0.30000010194E+02 0.  0.
        -12    1    1    2    0    0  0.36071377379E+02  0.17321599989E+02 -0.72099454090E+01  0.40659136796E+02  0.00000000000E+00 0.  1.
         11    1    3    3    0    0 -0.20721435123E+02 -0.84224905216E+01  0.44351372511E+01  0.22803216063E+02  0.51100000000E-03 0. -1.
        -11    1    3    3    0    0 -0.97692441740E+01 -0.85442807948E+01  0.11514477850E+02  0.17350102779E+02  0.51100000000E-03 0.  1.
         12    1    3    3    0    0 -0.55806980827E+01 -0.35482867300E+00 -0.87396696917E+01  0.10375544362E+02  0.00000000000E+00 0. -1.
</event>
<event>
 7    1  0.5441610E-013  0.5052888E+02  0.7816164E-02  0.1300439E+00
        -11   -1    0    0    0    0  0.00000000000E+00  0.00000000000E+00  0.45593999997E+02  0.45594000000E+02  0.51100000000E-03 0. -1.
         11   -1    0    0    0    0 -0.00000000000E+00 -0.00000000000E+00 -0.45593999997E+02  0.45594000000E+02  0.51100000000E-03 0.  1.
    9900012    2    1    2    0    0  0.90857994996E+01  0.35582804574E+02  0.17449246928E+02  0.50528881069E+02  0.30000064496E+02 0.  0.
        -12    1    1    2    0    0 -0.90857994996E+01 -0.35582804574E+02 -0.17449246928E+02  0.40659118931E+02  0.00000000000E+00 0.  1.
         11    1    3    3    0    0  0.33144212615E+01  0.72439900803E+01  0.52223597419E+01  0.95254302851E+01  0.51100000000E-03 0. -1.
        -11    1    3    3    0    0  0.14171780855E+02  0.12435806722E+02  0.13161609272E+02  0.22993838747E+02  0.51100000000E-03 0.  1.
        -12    1    3    3    0    0 -0.84004026168E+01  0.15903007772E+02 -0.93472208633E+00  0.18009612036E+02  0.00000000000E+00 0.  1.
</event>
<event>
 7    1  0.5441610E-013  0.5052885E+02  0.7816164E-02  0.1300439E+00
        -11   -1    0    0    0    0  0.00000000000E+00  0.00000000000E+00  0.45593999997E+02  0.45594000000E+02  0.51100000000E-03 0.  1.
         11   -1    0    0    0    0 -0.00000000000E+00 -0.00000000000E+00 -0.45593999997E+02  0.45594000000E+02  0.51100000000E-03 0. -1.
    9900012    2    1    2    0    0 -0.47644118677E+01 -0.40374307516E+02 -0.61800755685E+00  0.50528852675E+02  0.29999978192E+02 0.  0.
        -12    1    1    2    0    0  0.47644118677E+01  0.40374307516E+02  0.61800755685E+00  0.40659147325E+02  0.00000000000E+00 0.  1.
         11    1    3    3    0    0 -0.12666340283E+01 -0.26802410596E+02 -0.14349460735E+01  0.26870665158E+02  0.51100000000E-03 0. -1.
        -11    1    3    3    0    0 -0.47350174986E+01 -0.13197502644E+02  0.81461461054E+01  0.16215861475E+02  0.51100000000E-03 0.  1.
         12    1    3    3    0    0  0.12372396592E+01 -0.37439427610E+00 -0.73292075887E+01  0.74423260428E+01  0.00000000000E+00 0. -1.
</event>
<event>
 7    1  0.5441610E-013  0.5052898E+02  0.7816164E-02  0.1300438E+00
        -11   -1    0    0    0    0  0.00000000000E+00  0.00000000000E+00  0.45593999997E+02  0.45594000000E+02  0.51100000000E-03 0.  1.
         11   -1    0    0    0    0 -0.00000000000E+00 -0.00000000000E+00 -0.45593999997E+02  0.45594000000E+02  0.51100000000E-03 0. -1.
    9900012    2    1    2    0    0 -0.29757870732E+02 -0.27492771135E+02 -0.34311487180E+01  0.50528977425E+02  0.30000357380E+02 0.  0.
        -12    1    1    2    0    0  0.29757870732E+02  0.27492771135E+02  0.34311487180E+01  0.40659022575E+02  0.00000000000E+00 0.  1.
         11    1    3    3    0    0 -0.21279175845E+02 -0.20903350560E+02 -0.84677837368E+01  0.31007366076E+02  0.51100000000E-03 0. -1.
        -11    1    3    3    0    0 -0.77163760498E+01 -0.95751479513E+01  0.84517673940E+01  0.14921738839E+02  0.51100000000E-03 0.  1.
         12    1    3    3    0    0 -0.76231883788E+00  0.29857273762E+01 -0.34151323752E+01  0.45998725108E+01  0.00000000000E+00 0. -1.
</event>
<event>
 7    1  0.5441610E-013  0.5052886E+02  0.7816164E-02  0.1300439E+00
        -11   -1    0    0    0    0  0.00000000000E+00  0.00000000000E+00  0.45593999997E+02  0.45594000000E+02  0.51100000000E-03 0.  1.
         11   -1    0    0    0    0 -0.00000000000E+00 -0.00000000000E+00 -0.45593999997E+02  0.45594000000E+02  0.51100000000E-03 0. -1.
    9900012    2    1    2    0    0 -0.93683809795E+01 -0.11237980709E+02 -0.37935566263E+02  0.50528856375E+02  0.29999989437E+02 0.  0.
        -12    1    1    2    0    0  0.93683809795E+01  0.11237980709E+02  0.37935566263E+02  0.40659143625E+02  0.00000000000E+00 0.  1.
         11    1    3    3    0    0  0.72332613196E+01 -0.47674157935E+01 -0.35646926484E+01  0.93677829077E+01  0.51100000000E-03 0. -1.
        -11    1    3    3    0    0  0.13078932372E+01 -0.22483174569E+01 -0.11584366469E+02  0.11872786651E+02  0.51100000000E-03 0.  1.
         12    1    3    3    0    0 -0.17909535536E+02 -0.42222474586E+01 -0.22786507145E+02  0.29288286816E+02  0.00000000000E+00 0. -1.
</event>
<event>
 7    1  0.5441610E-013  0.5052885E+02  0.7816164E-02  0.1300439E+00
        -11   -1    0    0    0    0  0.00000000000E+00  0.00000000000E+00  0.45593999997E+02  0.45594000000E+02  0.51100000000E-03 0.  1.
         11   -1    0    0    0    0 -0.00000000000E+00 -0.00000000000E+00 -0.45593999997E+02  0.45594000000E+02  0.51100000000E-03 0. -1.
    9900012    2    1    2    0    0  0.28619200151E+01 -0.24284078028E+02 -0.32484757740E+02  0.50528849526E+02  0.29999968619E+02 0.  0.
        -12    1    1    2    0    0 -0.28619200151E+01  0.24284078028E+02  0.32484757740E+02  0.40659150474E+02  0.00000000000E+00 0.  1.
         11    1    3    3    0    0 -0.56228902639E+01 -0.13021095170E+02 -0.80803124357E+01  0.16323518728E+02  0.51100000000E-03 0. -1.
        -11    1    3    3    0    0  0.76571434700E+01 -0.16677118233E+02 -0.17165928396E+02  0.25128215548E+02  0.51100000000E-03 0.  1.
        -12    1    3    3    0    0  0.82766680900E+00  0.54141353758E+01 -0.72385169087E+01  0.90771152494E+01  0.00000000000E+00 0.  1.
</event>
<event>
 7    1  0.5441610E-013  0.5052886E+02  0.7816164E-02  0.1300439E+00
        -11   -1    0    0    0    0  0.00000000000E+00  0.00000000000E+00  0.45593999997E+02  0.45594000000E+02  0.51100000000E-03 0. -1.
         11   -1    0    0    0    0 -0.00000000000E+00 -0.00000000000E+00 -0.45593999997E+02  0.45594000000E+02  0.51100000000E-03 0.  1.
    9900012    2    1    2    0    0 -0.31268955626E+02 -0.25891498753E+02  0.22468395740E+01  0.50528861031E+02  0.30000003590E+02 0.  0.
        -12    1    1    2    0    0  0.31268955626E+02  0.25891498753E+02 -0.22468395740E+01  0.40659138969E+02  0.00000000000E+00 0.  1.
         11    1    3    3    0    0 -0.89749671050E+01 -0.40295091077E+01 -0.37812449683E+00  0.98453012438E+01  0.51100000000E-03 0. -1.
        -11    1    3    3    0    0 -0.44680336636E+01 -0.48540443135E+01  0.12504771375E+02  0.14138400843E+02  0.51100000000E-03 0.  1.
        -12    1    3    3    0    0 -0.17825954858E+02 -0.17007945332E+02 -0.98798073038E+01  0.26545158944E+02  0.00000000000E+00 0.  1.
</event>
<event>
 7    1  0.5441610E-013  0.5052887E+02  0.7816164E-02  0.1300439E+00
        -11   -1    0    0    0    0  0.00000000000E+00  0.00000000000E+00  0.45593999997E+02  0.45594000000E+02  0.51100000000E-03 0. -1.
         11   -1    0    0    0    0 -0.00000000000E+00 -0.00000000000E+00 -0.45593999997E+02  0.45594000000E+02  0.51100000000E-03 0.  1.
    9900012    2    1    2    0    0  0.14283578782E+02 -0.14570195918E+02  0.35168931004E+02  0.50528868924E+02  0.30000027581E+02 0.  0.
        -12    1    1    2    0    0 -0.14283578782E+02  0.14570195918E+02 -0.35168931004E+02  0.40659131076E+02  0.00000000000E+00 0.  1.
         11    1    3    3    0    0  0.25237403487E+01 -0.10443425018E+02  0.13714796640E+02  0.17422113494E+02  0.51100000000E-03 0. -1.
        -11    1    3    3    0    0  0.66061449490E+01 -0.13085912297E+02  0.10400324452E+02  0.17973563940E+02  0.51100000000E-03 0.  1.
         12    1    3    3    0    0  0.51536934841E+01  0.89591413976E+01  0.11053809912E+02  0.15133191490E+02  0.00000000000E+00 0. -1.
</event>
<event>
 7    1  0.5441610E-013  0.5052884E+02  0.7816164E-02  0.1300439E+00
        -11   -1    0    0    0    0  0.00000000000E+00  0.00000000000E+00  0.45593999997E+02  0.45594000000E+02  0.51100000000E-03 0.  1.
         11   -1    0    0    0    0 -0.00000000000E+00 -0.00000000000E+00 -0.45593999997E+02  0.45594000000E+02  0.51100000000E-03 0. -1.
    9900012    2    1    2    0    0 -0.20244216054E+02  0.32165461159E+02 -0.14447223662E+02  0.50528838096E+02  0.29999933876E+02 0.  0.
        -12    1    1    2    0    0  0.20244216054E+02 -0.32165461159E+02  0.14447223662E+02  0.40659161904E+02  0.00000000000E+00 0.  1.
         11    1    3    3    0    0  0.94070800580E+00 -0.85060035373E+00 -0.88400570600E+01  0.89305689404E+01  0.51100000000E-03 0. -1.
        -11    1    3    3    0    0 -0.28476398690E+01  0.14409633294E+01  0.26667660489E+01  0.41589745805E+01  0.51100000000E-03 0.  1.
         12    1    3    3    0    0 -0.18337284191E+02  0.31575098183E+02 -0.82739326505E+01  0.37439294575E+02  0.00000000000E+00 0. -1.
</event>
<event>
 7    1  0.5441610E-013  0.5052888E+02  0.7816164E-02  0.1300439E+00
        -11   -1    0    0    0    0  0.00000000000E+00  0.00000000000E+00  0.45593999997E+02  0.45594000000E+02  0.51100000000E-03 0.  1.
         11   -1    0    0    0    0 -0.00000000000E+00 -0.00000000000E+00 -0.45593999997E+02  0.45594000000E+02  0.51100000000E-03 0. -1.
    9900012    2    1    2    0    0  0.11575774776E+00  0.24569406326E+02 -0.32395911181E+02  0.50528878166E+02  0.30000055672E+02 0.  0.
        -12    1    1    2    0    0 -0.11575774776E+00 -0.24569406326E+02  0.32395911181E+02  0.40659121834E+02  0.00000000000E+00 0.  1.
         11    1    3    3    0    0  0.74074144467E+01  0.12891178949E+01 -0.13653275323E+02  0.15586646241E+02  0.51100000000E-03 0. -1.
        -11    1    3    3    0    0 -0.40067631283E+00 -0.17775823791E+00  0.25095013862E+01  0.25474962154E+01  0.51100000000E-03 0.  1.
        -12    1    3    3    0    0 -0.68909803861E+01  0.23458046669E+02 -0.21252137244E+02  0.32394735709E+02  0.00000000000E+00 0.  1.
</event>
<event>
 7    1  0.5441610E-013  0.5052885E+02  0.7816164E-02  0.1300439E+00
        -11   -1    0    0    0    0  0.00000000000E+00  0.00000000000E+00  0.45593999997E+02  0.45594000000E+02  0.51100000000E-03 0.  1.
         11   -1    0    0    0    0 -0.00000000000E+00 -0.00000000000E+00 -0.45593999997E+02  0.45594000000E+02  0.51100000000E-03 0. -1.
    9900012    2    1    2    0    0 -0.38202802774E+02 -0.60987654295E+01 -0.12510704536E+02  0.50528845957E+02  0.29999957770E+02 0.  0.
        -12    1    1    2    0    0  0.38202802774E+02  0.60987654295E+01  0.12510704536E+02  0.40659154043E+02  0.00000000000E+00 0.  1.
         11    1    3    3    0    0  0.29250504242E+01 -0.25217804309E+01 -0.38618632639E+01  0.54616192339E+01  0.51100000000E-03 0. -1.
        -11    1    3    3    0    0 -0.47330668738E+01  0.41791388495E+01  0.15126447703E+01  0.64927049846E+01  0.51100000000E-03 0.  1.
         12    1    3    3    0    0 -0.36394786324E+02 -0.77561238480E+01 -0.10161486042E+02  0.38574521738E+02  0.00000000000E+00 0. -1.
</event>
<event>
 7    1  0.5441610E-013  0.5052887E+02  0.7816164E-02  0.1300439E+00
        -11   -1    0    0    0    0  0.00000000000E+00  0.00000000000E+00  0.45593999997E+02  0.45594000000E+02  0.51100000000E-03 0. -1.
         11   -1    0    0    0    0 -0.00000000000E+00 -0.00000000000E+00 -0.45593999997E+02  0.45594000000E+02  0.51100000000E-03 0.  1.
    9900012    2    1    2    0    0 -0.40109997909E+02  0.65569269675E+01  0.11660936731E+01  0.50528868209E+02  0.30000025408E+02 0.  0.
        -12    1    1    2    0    0  0.40109997909E+02 -0.65569269675E+01 -0.11660936731E+01  0.40659131791E+02  0.00000000000E+00 0.  1.
         11    1    3    3    0    0 -0.81906250210E+01  0.96045344004E+01  0.75882781115E+01  0.14728047537E+02  0.51100000000E-03 0. -1.
        -11    1    3    3    0    0 -0.15895539993E+02  0.57846293576E+01 -0.27054676724E+01  0.17130373144E+02  0.51100000000E-03 0.  1.
        -12    1    3    3    0    0 -0.16023832896E+02 -0.88322367905E+01 -0.37167167660E+01  0.18670447528E+02  0.00000000000E+00 0.  1.
</event>
<event>
 7    1  0.5441610E-013  0.5052885E+02  0.7816164E-02  0.1300439E+00
        -11   -1    0    0    0    0  0.00000000000E+00  0.00000000000E+00  0.45593999997E+02  0.45594000000E+02  0.51100000000E-03 0. -1.
         11   -1    0    0    0    0 -0.00000000000E+00 -0.00000000000E+00 -0.45593999997E+02  0.45594000000E+02  0.51100000000E-03 0.  1.
    9900012    2    1    2    0    0 -0.32931571536E+02  0.26850896894E+01  0.23695316137E+02  0.50528854444E+02  0.29999983569E+02 0.  0.
        -12    1    1    2    0    0  0.32931571536E+02 -0.26850896894E+01 -0.23695316137E+02  0.40659145556E+02  0.00000000000E+00 0.  1.
         11    1    3    3    0    0 -0.63372733226E+01  0.64699003929E+01  0.97983076273E+01  0.13342693764E+02  0.51100000000E-03 0. -1.
        -11    1    3    3    0    0 -0.16831670944E+02  0.45747364625E+01 -0.10490926330E+01  0.17473807716E+02  0.51100000000E-03 0.  1.
         12    1    3    3    0    0 -0.97626272694E+01 -0.83595471661E+01  0.14946101143E+02  0.19712352965E+02  0.00000000000E+00 0. -1.
</event>
<event>
 7    1  0.5441610E-013  0.5052887E+02  0.7816164E-02  0.1300439E+00
        -11   -1    0    0    0    0  0.00000000000E+00  0.00000000000E+00  0.45593999997E+02  0.45594000000E+02  0.51100000000E-03 0. -1.
         11   -1    0    0    0    0 -0.00000000000E+00 -0.00000000000E+00 -0.45593999997E+02  0.45594000000E+02  0.51100000000E-03 0.  1.
    9900012    2    1    2    0    0 -0.32007792607E+02  0.16411996114E+02  0.18955549300E+02  0.50528865070E+02  0.30000015866E+02 0.  0.
        -12    1    1    2    0    0  0.32007792607E+02 -0.16411996114E+02 -0.18955549300E+02  0.40659134930E+02  0.00000000000E+00 0.  1.
         11    1    3    3    0    0 -0.23250377124E+01  0.10082863253E+02 -0.23738552563E+01  0.10616266800E+02  0.51100000000E-03 0. -1.
        -11    1    3    3    0    0 -0.58211360684E+00  0.41520818732E+01  0.89420330565E+00  0.42869849482E+01  0.51100000000E-03 0.  1.
        -12    1    3    3    0    0 -0.29100641287E+02  0.21770509885E+01  0.20435201251E+02  0.35625613321E+02  0.00000000000E+00 0.  1.
</event>
<event>
 7    1  0.5441610E-013  0.5052889E+02  0.7816164E-02  0.1300439E+00
        -11   -1    0    0    0    0  0.00000000000E+00  0.00000000000E+00  0.45593999997E+02  0.45594000000E+02  0.51100000000E-03 0.  1.
         11   -1    0    0    0    0 -0.00000000000E+00 -0.00000000000E+00 -0.45593999997E+02  0.45594000000E+02  0.51100000000E-03 0. -1.
    9900012    2    1    2    0    0 -0.31080463756E+02  0.22272498344E+02 -0.13824030170E+02  0.50528890075E+02  0.30000091873E+02 0.  0.
        -12    1    1    2    0    0  0.31080463756E+02 -0.22272498344E+02  0.13824030170E+02  0.40659109925E+02  0.00000000000E+00 0.  1.
         11    1    3    3    0    0 -0.94420640553E+01  0.20699961264E+02 -0.71790272712E+01  0.23857481065E+02  0.51100000000E-03 0. -1.
        -11    1    3    3    0    0 -0.33685433884E+01  0.19799130158E+01 -0.74142524521E+01  0.83808281091E+01  0.51100000000E-03 0.  1.
        -12    1    3    3    0    0 -0.18269856312E+02 -0.40737593631E+00  0.76924955367E+00  0.18290580901E+02  0.00000000000E+00 0.  1.
</event>
<event>
 7    1  0.5441610E-013  0.5052887E+02  0.7816164E-02  0.1300439E+00
        -11   -1    0    0    0    0  0.00000000000E+00  0.00000000000E+00  0.45593999997E+02  0.45594000000E+02  0.51100000000E-03 0.  1.
         11   -1    0    0    0    0 -0.00000000000E+00 -0.00000000000E+00 -0.45593999997E+02  0.45594000000E+02  0.51100000000E-03 0. -1.
    9900012    2    1    2    0    0 -0.28174748448E+02 -0.26372462162E+02 -0.12800049273E+02  0.50528874678E+02  0.30000045070E+02 0.  0.
        -12    1    1    2    0    0  0.28174748448E+02  0.26372462162E+02  0.12800049273E+02  0.40659125322E+02  0.00000000000E+00 0.  1.
         11    1    3    3    0    0 -0.92128708531E+01 -0.46865551032E+01 -0.10380372485E+02  0.14648990453E+02  0.51100000000E-03 0. -1.
        -11    1    3    3    0    0 -0.57194381344E+01 -0.21444855026E+02 -0.39635011300E+01  0.22545578749E+02  0.51100000000E-03 0.  1.
        -12    1    3    3    0    0 -0.13242439460E+02 -0.24105203308E+00  0.15438243416E+01  0.13334305476E+02  0.00000000000E+00 0.  1.
</event>
<event>
 7    1  0.5441610E-013  0.5052886E+02  0.7816164E-02  0.1300439E+00
        -11   -1    0    0    0    0  0.00000000000E+00  0.00000000000E+00  0.45593999997E+02  0.45594000000E+02  0.51100000000E-03 0.  1.
         11   -1    0    0    0    0 -0.00000000000E+00 -0.00000000000E+00 -0.45593999997E+02  0.45594000000E+02  0.51100000000E-03 0. -1.
    9900012    2    1    2    0    0 -0.33990572305E+02 -0.18014193912E+02 -0.13164162214E+02  0.50528863822E+02  0.30000012073E+02 0.  0.
        -12    1    1    2    0    0  0.33990572305E+02  0.18014193912E+02  0.13164162214E+02  0.40659136178E+02  0.00000000000E+00 0.  1.
         11    1    3    3    0    0 -0.20517400194E+01  0.28953852672E+01 -0.86689418247E+01  0.93671471417E+01  0.51100000000E-03 0. -1.
        -11    1    3    3    0    0 -0.13933133469E+02 -0.35453703375E+01 -0.70583844299E+01  0.16016324488E+02  0.51100000000E-03 0.  1.
         12    1    3    3    0    0 -0.18005698817E+02 -0.17364208842E+02  0.25631640405E+01  0.25145392192E+02  0.00000000000E+00 0. -1.
</event>
<event>
 7    1  0.5441610E-013  0.5052886E+02  0.7816164E-02  0.1300439E+00
        -11   -1    0    0    0    0  0.00000000000E+00  0.00000000000E+00  0.45593999997E+02  0.45594000000E+02  0.51100000000E-03 0.  1.
         11   -1    0    0    0    0 -0.00000000000E+00 -0.00000000000E+00 -0.45593999997E+02  0.45594000000E+02  0.51100000000E-03 0. -1.
    9900012    2    1    2    0    0  0.30816061992E+02 -0.93042582123E+01  0.24838812863E+02  0.50528861765E+02  0.30000005821E+02 0.  0.
        -12    1    1    2    0    0 -0.30816061992E+02  0.93042582123E+01 -0.24838812863E+02  0.40659138235E+02  0.00000000000E+00 0.  1.
         11    1    3    3    0    0  0.12139825087E+02  0.13652295231E+01  0.21400632358E+02  0.24641961577E+02  0.51100000000E-03 0. -1.
        -11    1    3    3    0    0 -0.16948961445E+01  0.12015514529E+01  0.37404852784E+00  0.21109977254E+01  0.51100000000E-03 0.  1.
         12    1    3    3    0    0  0.20371133050E+02 -0.11871039188E+02  0.30641319770E+01  0.23775902463E+02  0.00000000000E+00 0. -1.
</event>
<event>
 7    1  0.5441610E-013  0.5052886E+02  0.7816164E-02  0.1300439E+00
        -11   -1    0    0    0    0  0.00000000000E+00  0.00000000000E+00  0.45593999997E+02  0.45594000000E+02  0.51100000000E-03 0. -1.
         11   -1    0    0    0    0 -0.00000000000E+00 -0.00000000000E+00 -0.45593999997E+02  0.45594000000E+02  0.51100000000E-03 0.  1.
    9900012    2    1    2    0    0 -0.34699145166E+02 -0.13970993604E+02 -0.15935688725E+02  0.50528861879E+02  0.30000006169E+02 0.  0.
        -12    1    1    2    0    0  0.34699145166E+02  0.13970993604E+02  0.15935688725E+02  0.40659138121E+02  0.00000000000E+00 0.  1.
         11    1    3    3    0    0 -0.23923998401E+02 -0.81524470518E+01 -0.12057048779E+02  0.28003437609E+02  0.51100000000E-03 0. -1.
        -11    1    3    3    0    0 -0.18151298331E+01 -0.79354755222E+01 -0.88811238997E+01  0.12047440809E+02  0.51100000000E-03 0.  1.
        -12    1    3    3    0    0 -0.89600169327E+01  0.21169289701E+01  0.50024839536E+01  0.10477983461E+02  0.00000000000E+00 0.  1.
</event>
<event>
 7    1  0.5441610E-013  0.5052887E+02  0.7816164E-02  0.1300439E+00
        -11   -1    0    0    0    0  0.00000000000E+00  0.00000000000E+00  0.45593999997E+02  0.45594000000E+02  0.51100000000E-03 0.  1.
         11   -1    0    0    0    0 -0.00000000000E+00 -0.00000000000E+00 -0.45593999997E+02  0.45594000000E+02  0.51100000000E-03 0. -1.
    9900012    2    1    2    0    0 -0.33515315127E+02  0.15565193711E+01  0.22966628511E+02  0.50528866638E+02  0.30000020633E+02 0.  0.
        -12    1    1    2    0    0  0.33515315127E+02 -0.15565193711E+01 -0.22966628511E+02  0.40659133362E+02  0.00000000000E+00 0.  1.
         11    1    3    3    0    0 -0.27351745071E+02 -0.65951194776E+01  0.89169750398E+01  0.29514843782E+02  0.51100000000E-03 0. -1.
        -11    1    3    3    0    0 -0.89535167882E+01  0.25938413503E+01  0.94931427826E+01  0.13304632125E+02  0.51100000000E-03 0.  1.
        -12    1    3    3    0    0  0.27899467319E+01  0.55577974983E+01  0.45565106882E+01  0.77093907315E+01  0.00000000000E+00 0.  1.
</event>
<event>
 7    1  0.5441610E-013  0.5052886E+02  0.7816164E-02  0.1300439E+00
        -11   -1    0    0    0    0  0.00000000000E+00  0.00000000000E+00  0.45593999997E+02  0.45594000000E+02  0.51100000000E-03 0.  1.
         11   -1    0    0    0    0 -0.00000000000E+00 -0.00000000000E+00 -0.45593999997E+02  0.45594000000E+02  0.51100000000E-03 0. -1.
    9900012    2    1    2    0    0  0.12851818219E+02  0.18883244392E+02 -0.33636576276E+02  0.50528863095E+02  0.30000009863E+02 0.  0.
        -12    1    1    2    0    0 -0.12851818219E+02 -0.18883244392E+02  0.33636576276E+02  0.40659136905E+02  0.00000000000E+00 0.  1.
         11    1    3    3    0    0  0.68511618007E+01  0.17418340650E+01 -0.17597558175E+02  0.18964347021E+02  0.51100000000E-03 0. -1.
        -11    1    3    3    0    0  0.69337854904E+00 -0.22806853457E+01  0.30151702645E+01  0.38436377877E+01  0.51100000000E-03 0.  1.
         12    1    3    3    0    0  0.53072778696E+01  0.19422095673E+02 -0.19054188365E+02  0.27720878286E+02  0.00000000000E+00 0. -1.
</event>
<event>
 7    1  0.5441610E-013  0.5052881E+02  0.7816164E-02  0.1300439E+00
        -11   -1    0    0    0    0  0.00000000000E+00  0.00000000000E+00  0.45593999997E+02  0.45594000000E+02  0.51100000000E-03 0. -1.
         11   -1    0    0    0    0 -0.00000000000E+00 -0.00000000000E+00 -0.45593999997E+02  0.45594000000E+02  0.51100000000E-03 0.  1.
    9900012    2    1    2    0    0 -0.83488119058E+01 -0.33020657428E+02  0.22205921911E+02  0.50528813521E+02  0.29999859179E+02 0.  0.
        -12    1    1    2    0    0  0.83488119058E+01  0.33020657428E+02 -0.22205921911E+02  0.40659186479E+02  0.00000000000E+00 0.  1.
         11    1    3    3    0    0 -0.11072790744E+02 -0.12063385684E+02  0.16257220957E+02  0.23074427458E+02  0.51100000000E-03 0. -1.
        -11    1    3    3    0    0  0.48991338801E+01 -0.14539308663E+02  0.11104512285E+02  0.18939461516E+02  0.51100000000E-03 0.  1.
        -12    1    3    3    0    0 -0.21751550417E+01 -0.64179630807E+01 -0.51558113311E+01  0.85149245470E+01  0.00000000000E+00 0.  1.
</event>
<event>
 7    1  0.5982113E-013  0.5052888E+02  0.7816164E-02  0.1300439E+00
        -11   -1    0    0    0    0  0.00000000000E+00  0.00000000000E+00  0.45593999997E+02  0.45594000000E+02  0.51100000000E-03 0. -1.
         11   -1    0    0    0    0 -0.00000000000E+00 -0.00000000000E+00 -0.45593999997E+02  0.45594000000E+02  0.51100000000E-03 0.  1.
    9900012    2    1    2    0    0  0.61513517500E+01 -0.28303521495E+02  0.28534818843E+02  0.50528876254E+02  0.30000049863E+02 0.  0.
        -12    1    1    2    0    0 -0.61513517500E+01  0.28303521495E+02 -0.28534818843E+02  0.40659123746E+02  0.00000000000E+00 0.  1.
         11    1    3    3    0    0 -0.33357390179E+01 -0.90580384969E+01  0.18442859210E+02  0.20816202159E+02  0.51100000000E-03 0. -1.
        -11    1    3    3    0    0  0.69939018691E+01 -0.89700597985E+00  0.86208351311E+01  0.11137238513E+02  0.51100000000E-03 0.  1.
        -12    1    3    3    0    0  0.24931888989E+01 -0.18348477018E+02  0.14711245015E+01  0.18575435582E+02  0.00000000000E+00 0.  1.
</event>
<event>
 7    1  0.5441610E-013  0.5052886E+02  0.7816164E-02  0.1300439E+00
        -11   -1    0    0    0    0  0.00000000000E+00  0.00000000000E+00  0.45593999997E+02  0.45594000000E+02  0.51100000000E-03 0. -1.
         11   -1    0    0    0    0 -0.00000000000E+00 -0.00000000000E+00 -0.45593999997E+02  0.45594000000E+02  0.51100000000E-03 0.  1.
    9900012    2    1    2    0    0 -0.37694101962E+02  0.11351817578E+02  0.10171370736E+02  0.50528857514E+02  0.29999992899E+02 0.  0.
        -12    1    1    2    0    0  0.37694101962E+02 -0.11351817578E+02 -0.10171370736E+02  0.40659142486E+02  0.00000000000E+00 0.  1.
         11    1    3    3    0    0 -0.33526721193E+02 -0.50462737145E+00  0.13286202387E+02  0.36066866469E+02  0.51100000000E-03 0. -1.
        -11    1    3    3    0    0 -0.52923337520E+01  0.53897638563E+01 -0.14732376435E+01  0.76960236736E+01  0.51100000000E-03 0.  1.
        -12    1    3    3    0    0  0.11249529834E+01  0.64666810935E+01 -0.16415940079E+01  0.67659673711E+01  0.00000000000E+00 0.  1.
</event>
<event>
 7    1  0.5441610E-013  0.5052886E+02  0.7816164E-02  0.1300439E+00
        -11   -1    0    0    0    0  0.00000000000E+00  0.00000000000E+00  0.45593999997E+02  0.45594000000E+02  0.51100000000E-03 0. -1.
         11   -1    0    0    0    0 -0.00000000000E+00 -0.00000000000E+00 -0.45593999997E+02  0.45594000000E+02  0.51100000000E-03 0.  1.
    9900012    2    1    2    0    0  0.93201398417E+01 -0.39030410090E+02 -0.65519337680E+01  0.50528858905E+02  0.29999997128E+02 0.  0.
        -12    1    1    2    0    0 -0.93201398417E+01  0.39030410090E+02  0.65519337680E+01  0.40659141095E+02  0.00000000000E+00 0.  1.
         11    1    3    3    0    0  0.65590968704E+01 -0.83571223410E+01  0.23791413773E+01  0.10886852600E+02  0.51100000000E-03 0. -1.
        -11    1    3    3    0    0  0.17615036799E+01 -0.74445525653E+01 -0.13900554240E+02  0.15866621145E+02  0.51100000000E-03 0.  1.
         12    1    3    3    0    0  0.99953929139E+00 -0.23228735184E+02  0.49694790950E+01  0.23775385160E+02  0.00000000000E+00 0. -1.
</event>
<event>
 7    1  0.5441610E-013  0.5052886E+02  0.7816164E-02  0.1300439E+00
        -11   -1    0    0    0    0  0.00000000000E+00  0.00000000000E+00  0.45593999997E+02  0.45594000000E+02  0.51100000000E-03 0.  1.
         11   -1    0    0    0    0 -0.00000000000E+00 -0.00000000000E+00 -0.45593999997E+02  0.45594000000E+02  0.51100000000E-03 0. -1.
    9900012    2    1    2    0    0 -0.70730037724E+01 -0.32523379736E+02 -0.23353113344E+02  0.50528861856E+02  0.30000006096E+02 0.  0.
        -12    1    1    2    0    0  0.70730037724E+01  0.32523379736E+02  0.23353113344E+02  0.40659138144E+02  0.00000000000E+00 0.  1.
         11    1    3    3    0    0  0.63269101880E+00 -0.13345691645E+02 -0.37215082869E+01  0.13869297300E+02  0.51100000000E-03 0. -1.
        -11    1    3    3    0    0  0.68228258913E+01 -0.55691629086E+01 -0.12951084511E+02  0.15661964083E+02  0.51100000000E-03 0.  1.
         12    1    3    3    0    0 -0.14528520682E+02 -0.13608525182E+02 -0.66805205458E+01  0.20997600473E+02  0.00000000000E+00 0. -1.
</event>
<event>
 7    1  0.5441610E-013  0.5052886E+02  0.7816164E-02  0.1300439E+00
        -11   -1    0    0    0    0  0.00000000000E+00  0.00000000000E+00  0.45593999997E+02  0.45594000000E+02  0.51100000000E-03 0.  1.
         11   -1    0    0    0    0 -0.00000000000E+00 -0.00000000000E+00 -0.45593999997E+02  0.45594000000E+02  0.51100000000E-03 0. -1.
    9900012    2    1    2    0    0  0.79199282474E+01  0.38869631352E+02 -0.89214457295E+01  0.50528859591E+02  0.29999999213E+02 0.  0.
        -12    1    1    2    0    0 -0.79199282474E+01 -0.38869631352E+02  0.89214457295E+01  0.40659140409E+02  0.00000000000E+00 0.  1.
         11    1    3    3    0    0 -0.56092369799E+00  0.24536908476E+02 -0.29383540742E+01  0.24718584868E+02  0.51100000000E-03 0. -1.
        -11    1    3    3    0    0  0.23728793025E+01  0.15768708676E+02  0.15325914643E+01  0.16019724290E+02  0.51100000000E-03 0.  1.
        -12    1    3    3    0    0  0.61079726428E+01 -0.14359857996E+01 -0.75156831196E+01  0.97905504327E+01  0.00000000000E+00 0.  1.
</event>
<event>
 7    1  0.5441610E-013  0.5052886E+02  0.7816164E-02  0.1300439E+00
        -11   -1    0    0    0    0  0.00000000000E+00  0.00000000000E+00  0.45593999997E+02  0.45594000000E+02  0.51100000000E-03 0.  1.
         11   -1    0    0    0    0 -0.00000000000E+00 -0.00000000000E+00 -0.45593999997E+02  0.45594000000E+02  0.51100000000E-03 0. -1.
    9900012    2    1    2    0    0  0.27177109285E+02 -0.21120582322E+01 -0.30168022617E+02  0.50528860220E+02  0.30000001124E+02 0.  0.
        -12    1    1    2    0    0 -0.27177109285E+02  0.21120582322E+01  0.30168022617E+02  0.40659139780E+02  0.00000000000E+00 0.  1.
         11    1    3    3    0    0  0.74290956699E+01 -0.12169737282E+02 -0.11079891852E+02  0.18057075392E+02  0.51100000000E-03 0. -1.
        -11    1    3    3    0    0 -0.20257529091E+01  0.20402229189E+01 -0.34499268938E+01  0.44908997140E+01  0.51100000000E-03 0.  1.
        -12    1    3    3    0    0  0.21773766524E+02  0.80174561312E+01 -0.15638203871E+02  0.27980885114E+02  0.00000000000E+00 0.  1.
</event>
<event>
 7    1  0.5441610E-013  0.5052886E+02  0.7816164E-02  0.1300439E+00
        -11   -1    0    0    0    0  0.00000000000E+00  0.00000000000E+00  0.45593999997E+02  0.45594000000E+02  0.51100000000E-03 0.  1.
         11   -1    0    0    0    0 -0.00000000000E+00 -0.00000000000E+00 -0.45593999997E+02  0.45594000000E+02  0.51100000000E-03 0. -1.
    9900012    2    1    2    0    0 -0.99604705758E+01  0.37719120830E+02 -0.11455234428E+02  0.50528862699E+02  0.30000008658E+02 0.  0.
        -12    1    1    2    0    0  0.99604705758E+01 -0.37719120830E+02  0.11455234428E+02  0.40659137301E+02  0.00000000000E+00 0.  1.
         11    1    3    3    0    0 -0.29825815520E+01  0.53149214216E+00  0.23092789008E+01  0.38093366764E+01  0.51100000000E-03 0. -1.
        -11    1    3    3    0    0  0.67048973007E+01  0.17804031681E+02  0.50735861584E+00  0.19031463552E+02  0.51100000000E-03 0.  1.
         12    1    3    3    0    0 -0.13682786324E+02  0.19383597007E+02 -0.14271871944E+02  0.27688062470E+02  0.00000000000E+00 0. -1.
</event>
<event>
 7    1  0.5441610E-013  0.5052886E+02  0.7816164E-02  0.1300439E+00
        -11   -1    0    0    0    0  0.00000000000E+00  0.00000000000E+00  0.45593999997E+02  0.45594000000E+02  0.51100000000E-03 0.  1.
         11   -1    0    0    0    0 -0.00000000000E+00 -0.00000000000E+00 -0.45593999997E+02  0.45594000000E+02  0.51100000000E-03 0. -1.
    9900012    2    1    2    0    0  0.40196941474E+02  0.55391123891E+01  0.25864305768E+01  0.50528862121E+02  0.30000006904E+02 0.  0.
        -12    1    1    2    0    0 -0.40196941474E+02 -0.55391123891E+01 -0.25864305768E+01  0.40659137879E+02  0.00000000000E+00 0.  1.
         11    1    3    3    0    0  0.12918181839E+02  0.16132631206E+01  0.66909844108E+01  0.14637326005E+02  0.51100000000E-03 0. -1.
        -11    1    3    3    0    0  0.20132693918E+02 -0.72866512069E+01  0.14983587031E+01  0.21463124872E+02  0.51100000000E-03 0.  1.
        -12    1    3    3    0    0  0.71460657167E+01  0.11212500475E+02 -0.56029125372E+01  0.14428411244E+02  0.00000000000E+00 0.  1.
</event>
<event>
 7    1  0.5441610E-013  0.5052887E+02  0.7816164E-02  0.1300439E+00
        -11   -1    0    0    0    0  0.00000000000E+00  0.00000000000E+00  0.45593999997E+02  0.45594000000E+02  0.51100000000E-03 0.  1.
         11   -1    0    0    0    0 -0.00000000000E+00 -0.00000000000E+00 -0.45593999997E+02  0.45594000000E+02  0.51100000000E-03 0. -1.
    9900012    2    1    2    0    0 -0.35221604323E+02 -0.18600353593E+02 -0.81627546755E+01  0.50528866601E+02  0.30000020520E+02 0.  0.
        -12    1    1    2    0    0  0.35221604323E+02  0.18600353593E+02  0.81627546755E+01  0.40659133399E+02  0.00000000000E+00 0.  1.
         11    1    3    3    0    0 -0.23698823285E+02 -0.19824338859E+02  0.13581610076E+01  0.30927063195E+02  0.51100000000E-03 0.  1.
        -11    1    3    3    0    0 -0.58635128928E+01 -0.35613053524E+01  0.78793442251E+00  0.69053979011E+01  0.51100000000E-03 0. -1.
        -12    1    3    3    0    0 -0.56592681450E+01  0.47852906179E+01 -0.10308850106E+02  0.12696405504E+02  0.00000000000E+00 0.  1.
</event>
<event>
 7    1  0.5441610E-013  0.5052887E+02  0.7816164E-02  0.1300439E+00
        -11   -1    0    0    0    0  0.00000000000E+00  0.00000000000E+00  0.45593999997E+02  0.45594000000E+02  0.51100000000E-03 0.  1.
         11   -1    0    0    0    0 -0.00000000000E+00 -0.00000000000E+00 -0.45593999997E+02  0.45594000000E+02  0.51100000000E-03 0. -1.
    9900012    2    1    2    0    0 -0.14303977479E+01 -0.21529361467E+01 -0.40576887245E+02  0.50528868796E+02  0.30000027192E+02 0.  0.
        -12    1    1    2    0    0  0.14303977479E+01  0.21529361467E+01  0.40576887245E+02  0.40659131204E+02  0.00000000000E+00 0.  1.
         11    1    3    3    0    0 -0.13570586677E+02  0.83094671855E+00 -0.21372151891E+02  0.25330222501E+02  0.51100000000E-03 0. -1.
        -11    1    3    3    0    0  0.35657124661E+00 -0.70494530675E+00 -0.10108037751E+02  0.10138861789E+02  0.51100000000E-03 0.  1.
        -12    1    3    3    0    0  0.11783617683E+02 -0.22789375585E+01 -0.90966976034E+01  0.15059784506E+02  0.00000000000E+00 0.  1.
</event>
<event>
 7    1  0.5441610E-013  0.5052886E+02  0.7816164E-02  0.1300439E+00
        -11   -1    0    0    0    0  0.00000000000E+00  0.00000000000E+00  0.45593999997E+02  0.45594000000E+02  0.51100000000E-03 0. -1.
         11   -1    0    0    0    0 -0.00000000000E+00 -0.00000000000E+00 -0.45593999997E+02  0.45594000000E+02  0.51100000000E-03 0.  1.
    9900012    2    1    2    0    0  0.13990950777E+02  0.36848786173E+02  0.99792638167E+01  0.50528862622E+02  0.30000008424E+02 0.  0.
        -12    1    1    2    0    0 -0.13990950777E+02 -0.36848786173E+02 -0.99792638167E+01  0.40659137378E+02  0.00000000000E+00 0.  1.
         11    1    3    3    0    0  0.28282197209E+01  0.80867454620E+01 -0.78783619766E+01  0.11638851604E+02  0.51100000000E-03 0. -1.
        -11    1    3    3    0    0  0.13038556120E+01  0.19130488301E+02  0.44985353808E+01  0.19695492959E+02  0.51100000000E-03 0.  1.
         12    1    3    3    0    0  0.98588754437E+01  0.96315524099E+01  0.13359090413E+02  0.19194518058E+02  0.00000000000E+00 0. -1.
</event>
<event>
 7    1  0.5441610E-013  0.5052886E+02  0.7816164E-02  0.1300439E+00
        -11   -1    0    0    0    0  0.00000000000E+00  0.00000000000E+00  0.45593999997E+02  0.45594000000E+02  0.51100000000E-03 0.  1.
         11   -1    0    0    0    0 -0.00000000000E+00 -0.00000000000E+00 -0.45593999997E+02  0.45594000000E+02  0.51100000000E-03 0. -1.
    9900012    2    1    2    0    0 -0.70507919224E+01  0.39403620649E+02  0.71278819616E+01  0.50528859720E+02  0.29999999606E+02 0.  0.
        -12    1    1    2    0    0  0.70507919224E+01 -0.39403620649E+02 -0.71278819616E+01  0.40659140280E+02  0.00000000000E+00 0.  1.
         11    1    3    3    0    0 -0.72353319712E+01  0.67591797989E+01  0.96065322789E+01  0.13795724083E+02  0.51100000000E-03 0. -1.
        -11    1    3    3    0    0  0.73164541357E+01  0.94835768610E+01  0.18367250262E+01  0.12117850068E+02  0.51100000000E-03 0.  1.
         12    1    3    3    0    0 -0.71319140869E+01  0.23160863990E+02 -0.43153753435E+01  0.24615285569E+02  0.00000000000E+00 0. -1.
</event>
<event>
 7    1  0.5441610E-013  0.5052887E+02  0.7816164E-02  0.1300439E+00
        -11   -1    0    0    0    0  0.00000000000E+00  0.00000000000E+00  0.45593999997E+02  0.45594000000E+02  0.51100000000E-03 0. -1.
         11   -1    0    0    0    0 -0.00000000000E+00 -0.00000000000E+00 -0.45593999997E+02  0.45594000000E+02  0.51100000000E-03 0.  1.
    9900012    2    1    2    0    0  0.40081455244E+02  0.13877829366E+01  0.66870189501E+01  0.50528865499E+02  0.30000017171E+02 0.  0.
        -12    1    1    2    0    0 -0.40081455244E+02 -0.13877829366E+01 -0.66870189501E+01  0.40659134501E+02  0.00000000000E+00 0.  1.
         11    1    3    3    0    0  0.14617024732E+02 -0.11601339191E+01  0.46665171906E+01  0.15387647828E+02  0.51100000000E-03 0. -1.
        -11    1    3    3    0    0  0.19894050011E+02  0.12352375260E+02 -0.10944255425E+01  0.23442529043E+02  0.51100000000E-03 0.  1.
        -12    1    3    3    0    0  0.55703804999E+01 -0.98044584040E+01  0.31149273020E+01  0.11698688628E+02  0.00000000000E+00 0.  1.
</event>
<event>
 7    1  0.5441610E-013  0.5052886E+02  0.7816164E-02  0.1300439E+00
        -11   -1    0    0    0    0  0.00000000000E+00  0.00000000000E+00  0.45593999997E+02  0.45594000000E+02  0.51100000000E-03 0.  1.
         11   -1    0    0    0    0 -0.00000000000E+00 -0.00000000000E+00 -0.45593999997E+02  0.45594000000E+02  0.51100000000E-03 0. -1.
    9900012    2    1    2    0    0 -0.55004603080E+01 -0.73691012994E+01 -0.39605642811E+02  0.50528860068E+02  0.30000000662E+02 0.  0.
        -12    1    1    2    0    0  0.55004603080E+01  0.73691012994E+01  0.39605642811E+02  0.40659139932E+02  0.00000000000E+00 0.  1.
         11    1    3    3    0    0  0.30428565962E+01  0.74237385284E+01 -0.84277356525E+01  0.11636047374E+02  0.51100000000E-03 0.  1.
        -11    1    3    3    0    0  0.31894166974E+01 -0.50652204075E+01 -0.17203574887E+02  0.18215153740E+02  0.51100000000E-03 0. -1.
         12    1    3    3    0    0 -0.11732733602E+02 -0.97276194203E+01 -0.13974332272E+02  0.20677658953E+02  0.00000000000E+00 0. -1.
</event>
<event>
 7    1  0.5441610E-013  0.5052886E+02  0.7816164E-02  0.1300439E+00
        -11   -1    0    0    0    0  0.00000000000E+00  0.00000000000E+00  0.45593999997E+02  0.45594000000E+02  0.51100000000E-03 0. -1.
         11   -1    0    0    0    0 -0.00000000000E+00 -0.00000000000E+00 -0.45593999997E+02  0.45594000000E+02  0.51100000000E-03 0.  1.
    9900012    2    1    2    0    0 -0.20720523464E+02  0.29816916559E+02  0.18296916595E+02  0.50528858807E+02  0.29999996829E+02 0.  0.
        -12    1    1    2    0    0  0.20720523464E+02 -0.29816916559E+02 -0.18296916595E+02  0.40659141193E+02  0.00000000000E+00 0.  1.
         11    1    3    3    0    0 -0.15939949097E+01  0.97018136624E+01  0.62044525110E+01  0.11625886604E+02  0.51100000000E-03 0. -1.
        -11    1    3    3    0    0 -0.43597130793E+01 -0.16760835164E+01  0.11676899920E+02  0.12576420242E+02  0.51100000000E-03 0.  1.
         12    1    3    3    0    0 -0.14766815475E+02  0.21791186413E+02  0.41556416319E+00  0.26326551961E+02  0.00000000000E+00 0. -1.
</event>
<event>
 7    1  0.5441610E-013  0.5052887E+02  0.7816164E-02  0.1300439E+00
        -11   -1    0    0    0    0  0.00000000000E+00  0.00000000000E+00  0.45593999997E+02  0.45594000000E+02  0.51100000000E-03 0.  1.
         11   -1    0    0    0    0 -0.00000000000E+00 -0.00000000000E+00 -0.45593999997E+02  0.45594000000E+02  0.51100000000E-03 0. -1.
    9900012    2    1    2    0    0 -0.24128239338E+02 -0.31526912334E+02 -0.87776426863E+01  0.50528866389E+02  0.30000019875E+02 0.  0.
        -12    1    1    2    0    0  0.24128239338E+02  0.31526912334E+02  0.87776426863E+01  0.40659133611E+02  0.00000000000E+00 0.  1.
         11    1    3    3    0    0 -0.34851673125E+01 -0.16398469856E+02  0.92974549443E+01  0.19170260132E+02  0.51100000000E-03 0.  1.
        -11    1    3    3    0    0 -0.96758694569E+01 -0.78655335294E+01 -0.86180973827E+01  0.15157858365E+02  0.51100000000E-03 0. -1.
        -12    1    3    3    0    0 -0.10967202569E+02 -0.72629089491E+01 -0.94570002479E+01  0.16200747892E+02  0.00000000000E+00 0.  1.
</event>
<event>
 7    1  0.5441610E-013  0.5052885E+02  0.7816164E-02  0.1300439E+00
        -11   -1    0    0    0    0  0.00000000000E+00  0.00000000000E+00  0.45593999997E+02  0.45594000000E+02  0.51100000000E-03 0.  1.
         11   -1    0    0    0    0 -0.00000000000E+00 -0.00000000000E+00 -0.45593999997E+02  0.45594000000E+02  0.51100000000E-03 0. -1.
    9900012    2    1    2    0    0 -0.37476267564E+02 -0.15114110669E+02 -0.45010718237E+01  0.50528848270E+02  0.29999964801E+02 0.  0.
        -12    1    1    2    0    0  0.37476267564E+02  0.15114110669E+02  0.45010718237E+01  0.40659151730E+02  0.00000000000E+00 0.  1.
         11    1    3    3    0    0 -0.55826293079E+01 -0.84939756204E+00  0.59499508346E+01  0.82029958797E+01  0.51100000000E-03 0. -1.
        -11    1    3    3    0    0  0.31648321657E+01 -0.24952403181E+01 -0.85625567687E+00  0.41201408868E+01  0.51100000000E-03 0.  1.
         12    1    3    3    0    0 -0.35058470422E+02 -0.11769472788E+02 -0.95947669814E+01  0.38205711503E+02  0.00000000000E+00 0. -1.
</event>
<event>
 7    1  0.5441610E-013  0.5052886E+02  0.7816164E-02  0.1300439E+00
        -11   -1    0    0    0    0  0.00000000000E+00  0.00000000000E+00  0.45593999997E+02  0.45594000000E+02  0.51100000000E-03 0. -1.
         11   -1    0    0    0    0 -0.00000000000E+00 -0.00000000000E+00 -0.45593999997E+02  0.45594000000E+02  0.51100000000E-03 0.  1.
    9900012    2    1    2    0    0 -0.36921867178E+02  0.16184824704E+02 -0.52908588296E+01  0.50528855718E+02  0.29999987440E+02 0.  0.
        -12    1    1    2    0    0  0.36921867178E+02 -0.16184824704E+02  0.52908588296E+01  0.40659144282E+02  0.00000000000E+00 0.  1.
         11    1    3    3    0    0  0.20756817764E+01  0.67212783581E+01 -0.23285807812E+01  0.74098803175E+01  0.51100000000E-03 0. -1.
        -11    1    3    3    0    0 -0.63241767244E+01  0.13174523415E+01 -0.66172550133E+01  0.92476459754E+01  0.51100000000E-03 0.  1.
         12    1    3    3    0    0 -0.32673372230E+02  0.81460940041E+01  0.36549769649E+01  0.33871329425E+02  0.00000000000E+00 0. -1.
</event>
<event>
 7    1  0.5441610E-013  0.5052885E+02  0.7816164E-02  0.1300439E+00
        -11   -1    0    0    0    0  0.00000000000E+00  0.00000000000E+00  0.45593999997E+02  0.45594000000E+02  0.51100000000E-03 0. -1.
         11   -1    0    0    0    0 -0.00000000000E+00 -0.00000000000E+00 -0.45593999997E+02  0.45594000000E+02  0.51100000000E-03 0.  1.
    9900012    2    1    2    0    0  0.12148079563E+02  0.35599802668E+02  0.15435168627E+02  0.50528853211E+02  0.29999979820E+02 0.  0.
        -12    1    1    2    0    0 -0.12148079563E+02 -0.35599802668E+02 -0.15435168627E+02  0.40659146789E+02  0.00000000000E+00 0.  1.
         11    1    3    3    0    0  0.51415345621E+01  0.97792191611E+01  0.20188848109E+01  0.11231402459E+02  0.51100000000E-03 0. -1.
        -11    1    3    3    0    0  0.11025248467E+02  0.10541145824E+01  0.52231261743E+00  0.11087834416E+02  0.51100000000E-03 0.  1.
         12    1    3    3    0    0 -0.40187034663E+01  0.24766468925E+02  0.12893971199E+02  0.28209616336E+02  0.00000000000E+00 0. -1.
</event>
<event>
 7    1  0.5441610E-013  0.5052886E+02  0.7816164E-02  0.1300439E+00
        -11   -1    0    0    0    0  0.00000000000E+00  0.00000000000E+00  0.45593999997E+02  0.45594000000E+02  0.51100000000E-03 0. -1.
         11   -1    0    0    0    0 -0.00000000000E+00 -0.00000000000E+00 -0.45593999997E+02  0.45594000000E+02  0.51100000000E-03 0.  1.
    9900012    2    1    2    0    0 -0.15921318328E+02  0.10775270840E+02  0.35826958460E+02  0.50528858451E+02  0.29999995748E+02 0.  0.
        -12    1    1    2    0    0  0.15921318328E+02 -0.10775270840E+02 -0.35826958460E+02  0.40659141549E+02  0.00000000000E+00 0.  1.
         11    1    3    3    0    0 -0.27089921232E+01  0.58110140904E+01  0.97750163835E+01  0.11690058539E+02  0.51100000000E-03 0. -1.
        -11    1    3    3    0    0 -0.20537401419E+02  0.55290990312E+01  0.21228826230E+02  0.30050272154E+02  0.51100000000E-03 0.  1.
        -12    1    3    3    0    0  0.73250752140E+01 -0.56484228171E+00  0.48231158461E+01  0.87885277583E+01  0.00000000000E+00 0.  1.
</event>
<event>
 7    1  0.5441610E-013  0.5052886E+02  0.7816164E-02  0.1300439E+00
        -11   -1    0    0    0    0  0.00000000000E+00  0.00000000000E+00  0.45593999997E+02  0.45594000000E+02  0.51100000000E-03 0. -1.
         11   -1    0    0    0    0 -0.00000000000E+00 -0.00000000000E+00 -0.45593999997E+02  0.45594000000E+02  0.51100000000E-03 0.  1.
    9900012    2    1    2    0    0  0.18391535634E+02 -0.34590274172E+00  0.36260135303E+02  0.50528860267E+02  0.30000001266E+02 0.  0.
        -12    1    1    2    0    0 -0.18391535634E+02  0.34590274172E+00 -0.36260135303E+02  0.40659139733E+02  0.00000000000E+00 0.  1.
         11    1    3    3    0    0  0.17859600627E+01 -0.57241879620E+00  0.11615043425E+02  0.11765481318E+02  0.51100000000E-03 0. -1.
        -11    1    3    3    0    0  0.19684610858E+01 -0.10734285577E+02  0.52610881358E+01  0.12115229033E+02  0.51100000000E-03 0.  1.
        -12    1    3    3    0    0  0.14637114485E+02  0.10960801631E+02  0.19384003743E+02  0.26648149916E+02  0.00000000000E+00 0.  1.
</event>
<event>
 7    1  0.5441610E-013  0.5052882E+02  0.7816164E-02  0.1300439E+00
        -11   -1    0    0    0    0  0.00000000000E+00  0.00000000000E+00  0.45593999997E+02  0.45594000000E+02  0.51100000000E-03 0.  1.
         11   -1    0    0    0    0 -0.00000000000E+00 -0.00000000000E+00 -0.45593999997E+02  0.45594000000E+02  0.51100000000E-03 0. -1.
    9900012    2    1    2    0    0 -0.25316969587E+02  0.28177759414E+02 -0.14772743691E+02  0.50528818616E+02  0.29999874665E+02 0.  0.
        -12    1    1    2    0    0  0.25316969587E+02 -0.28177759414E+02  0.14772743691E+02  0.40659181384E+02  0.00000000000E+00 0.  1.
         11    1    3    3    0    0  0.37379681567E-01  0.30835240765E+01 -0.73452772372E+01  0.79663426943E+01  0.51100000000E-03 0. -1.
        -11    1    3    3    0    0 -0.84974561152E+01 -0.31104439716E+01 -0.17908092204E+01  0.92243493025E+01  0.51100000000E-03 0.  1.
         12    1    3    3    0    0 -0.16856893153E+02  0.28204679309E+02 -0.56366572335E+01  0.33338126619E+02  0.00000000000E+00 0. -1.
</event>
<event>
 7    1  0.5441610E-013  0.5052887E+02  0.7816164E-02  0.1300439E+00
        -11   -1    0    0    0    0  0.00000000000E+00  0.00000000000E+00  0.45593999997E+02  0.45594000000E+02  0.51100000000E-03 0.  1.
         11   -1    0    0    0    0 -0.00000000000E+00 -0.00000000000E+00 -0.45593999997E+02  0.45594000000E+02  0.51100000000E-03 0. -1.
    9900012    2    1    2    0    0 -0.39367892499E+02 -0.98904795911E+01  0.23478418663E+01  0.50528869319E+02  0.30000028781E+02 0.  0.
        -12    1    1    2    0    0  0.39367892499E+02  0.98904795911E+01 -0.23478418663E+01  0.40659130681E+02  0.00000000000E+00 0.  1.
         11    1    3    3    0    0 -0.43214847854E+01 -0.49652997761E+01  0.28850724517E+01  0.71870074391E+01  0.51100000000E-03 0. -1.
        -11    1    3    3    0    0 -0.26893452825E+01 -0.10093514526E+02 -0.15441506583E+01  0.10559167346E+02  0.51100000000E-03 0.  1.
         12    1    3    3    0    0 -0.32357062431E+02  0.51683347110E+01  0.10069200730E+01  0.32782694533E+02  0.00000000000E+00 0. -1.
</event>
<event>
 7    1  0.5441610E-013  0.5052888E+02  0.7816164E-02  0.1300439E+00
        -11   -1    0    0    0    0  0.00000000000E+00  0.00000000000E+00  0.45593999997E+02  0.45594000000E+02  0.51100000000E-03 0.  1.
         11   -1    0    0    0    0 -0.00000000000E+00 -0.00000000000E+00 -0.45593999997E+02  0.45594000000E+02  0.51100000000E-03 0. -1.
    9900012    2    1    2    0    0 -0.43561627264E+01  0.32320184593E+02 -0.24281546888E+02  0.50528880419E+02  0.30000062522E+02 0.  0.
        -12    1    1    2    0    0  0.43561627264E+01 -0.32320184593E+02  0.24281546888E+02  0.40659119581E+02  0.00000000000E+00 0.  1.
         11    1    3    3    0    0 -0.42598371478E+01  0.22167518442E+02 -0.16005889790E+02  0.27671891779E+02  0.51100000000E-03 0. -1.
        -11    1    3    3    0    0  0.51094957940E+01  0.12971190721E+02 -0.17571501701E+01  0.14051559094E+02  0.51100000000E-03 0.  1.
         12    1    3    3    0    0 -0.52058213726E+01 -0.28185245706E+01 -0.65185069283E+01  0.88054295462E+01  0.00000000000E+00 0. -1.
</event>
<event>
 7    1  0.5441610E-013  0.5052885E+02  0.7816164E-02  0.1300439E+00
        -11   -1    0    0    0    0  0.00000000000E+00  0.00000000000E+00  0.45593999997E+02  0.45594000000E+02  0.51100000000E-03 0.  1.
         11   -1    0    0    0    0 -0.00000000000E+00 -0.00000000000E+00 -0.45593999997E+02  0.45594000000E+02  0.51100000000E-03 0. -1.
    9900012    2    1    2    0    0  0.22308222611E+02  0.17690167267E+02 -0.29027017955E+02  0.50528848689E+02  0.29999966075E+02 0.  0.
        -12    1    1    2    0    0 -0.22308222611E+02 -0.17690167267E+02  0.29027017955E+02  0.40659151311E+02  0.00000000000E+00 0.  1.
         11    1    3    3    0    0  0.46147036136E+01 -0.72210617058E+01 -0.12948929733E+02  0.15527846055E+02  0.51100000000E-03 0. -1.
        -11    1    3    3    0    0  0.33814608962E+01  0.45608256151E+01 -0.62179859625E+00  0.57115708732E+01  0.51100000000E-03 0.  1.
        -12    1    3    3    0    0  0.14312058101E+02  0.20350403358E+02 -0.15456289625E+02  0.29289431761E+02  0.00000000000E+00 0.  1.
</event>
<event>
 7    1  0.5441610E-013  0.5052888E+02  0.7816164E-02  0.1300439E+00
        -11   -1    0    0    0    0  0.00000000000E+00  0.00000000000E+00  0.45593999997E+02  0.45594000000E+02  0.51100000000E-03 0. -1.
         11   -1    0    0    0    0 -0.00000000000E+00 -0.00000000000E+00 -0.45593999997E+02  0.45594000000E+02  0.51100000000E-03 0.  1.
    9900012    2    1    2    0    0 -0.39889301603E+01 -0.37709284269E+02 -0.14671832974E+02  0.50528875972E+02  0.30000049005E+02 0.  0.
        -12    1    1    2    0    0  0.39889301603E+01  0.37709284269E+02  0.14671832974E+02  0.40659124028E+02  0.00000000000E+00 0.  1.
         11    1    3    3    0    0 -0.68210722234E+01 -0.14312527675E+02  0.29407556210E+01  0.16125244761E+02  0.51100000000E-03 0. -1.
        -11    1    3    3    0    0  0.72428909968E+00  0.27620290650E+01 -0.37813675332E+01  0.47383689111E+01  0.51100000000E-03 0.  1.
        -12    1    3    3    0    0  0.21078529635E+01 -0.26158785659E+02 -0.13831221061E+02  0.29665262300E+02  0.00000000000E+00 0.  1.
</event>
<event>
 7    1  0.5441610E-013  0.5052885E+02  0.7816164E-02  0.1300439E+00
        -11   -1    0    0    0    0  0.00000000000E+00  0.00000000000E+00  0.45593999997E+02  0.45594000000E+02  0.51100000000E-03 0.  1.
         11   -1    0    0    0    0 -0.00000000000E+00 -0.00000000000E+00 -0.45593999997E+02  0.45594000000E+02  0.51100000000E-03 0. -1.
    9900012    2    1    2    0    0  0.15559370249E+02  0.13158997471E+02 -0.35183988837E+02  0.50528852352E+02  0.29999977208E+02 0.  0.
        -12    1    1    2    0    0 -0.15559370249E+02 -0.13158997471E+02  0.35183988837E+02  0.40659147648E+02  0.00000000000E+00 0.  1.
         11    1    3    3    0    0 -0.61845339813E-01  0.60827224740E+01 -0.13042721102E+02  0.14391522211E+02  0.51100000000E-03 0. -1.
        -11    1    3    3    0    0 -0.36044317496E+01 -0.10490955094E+01  0.19760411660E+01  0.42423187736E+01  0.51100000000E-03 0.  1.
        -12    1    3    3    0    0  0.19225647339E+02  0.81253705068E+01 -0.24117308901E+02  0.31895011367E+02  0.00000000000E+00 0.  1.
</event>
<event>
 7    1  0.5441610E-013  0.5052886E+02  0.7816164E-02  0.1300439E+00
        -11   -1    0    0    0    0  0.00000000000E+00  0.00000000000E+00  0.45593999997E+02  0.45594000000E+02  0.51100000000E-03 0. -1.
         11   -1    0    0    0    0 -0.00000000000E+00 -0.00000000000E+00 -0.45593999997E+02  0.45594000000E+02  0.51100000000E-03 0.  1.
    9900012    2    1    2    0    0  0.23049165116E+02 -0.20890107075E+02  0.26182147493E+02  0.50528862854E+02  0.30000009131E+02 0.  0.
        -12    1    1    2    0    0 -0.23049165116E+02  0.20890107075E+02 -0.26182147493E+02  0.40659137146E+02  0.00000000000E+00 0.  1.
         11    1    3    3    0    0  0.57314616161E+01  0.32353210481E+01  0.19678884661E+01  0.68694643035E+01  0.51100000000E-03 0. -1.
        -11    1    3    3    0    0 -0.22344159177E+01 -0.59792566906E+01  0.13462034871E+02  0.14898674713E+02  0.51100000000E-03 0.  1.
         12    1    3    3    0    0  0.19552119418E+02 -0.18146171432E+02  0.10752224156E+02  0.28760723838E+02  0.00000000000E+00 0. -1.
</event>
<event>
 7    1  0.5441610E-013  0.5052875E+02  0.7816164E-02  0.1300439E+00
        -11   -1    0    0    0    0  0.00000000000E+00  0.00000000000E+00  0.45593999997E+02  0.45594000000E+02  0.51100000000E-03 0. -1.
         11   -1    0    0    0    0 -0.00000000000E+00 -0.00000000000E+00 -0.45593999997E+02  0.45594000000E+02  0.51100000000E-03 0.  1.
    9900012    2    1    2    0    0 -0.14338983799E+02  0.35361381240E+01  0.37882240467E+02  0.50528746785E+02  0.29999656327E+02 0.  0.
        -12    1    1    2    0    0  0.14338983799E+02 -0.35361381240E+01 -0.37882240467E+02  0.40659253215E+02  0.00000000000E+00 0.  1.
         11    1    3    3    0    0 -0.66556735146E+01 -0.30074459547E+01  0.24136141017E+02  0.25216978894E+02  0.51100000000E-03 0. -1.
        -11    1    3    3    0    0  0.21252088189E+01  0.68013241065E+01  0.13764834805E+02  0.15499845148E+02  0.51100000000E-03 0.  1.
         12    1    3    3    0    0 -0.98085191028E+01 -0.25774002776E+00 -0.18735355479E-01  0.98119227436E+01  0.00000000000E+00 0. -1.
</event>
<event>
 7    1  0.5441610E-013  0.5052887E+02  0.7816164E-02  0.1300439E+00
        -11   -1    0    0    0    0  0.00000000000E+00  0.00000000000E+00  0.45593999997E+02  0.45594000000E+02  0.51100000000E-03 0. -1.
         11   -1    0    0    0    0 -0.00000000000E+00 -0.00000000000E+00 -0.45593999997E+02  0.45594000000E+02  0.51100000000E-03 0.  1.
    9900012    2    1    2    0    0  0.10329110320E+02  0.35816537616E+02  0.16237310869E+02  0.50528866327E+02  0.30000019687E+02 0.  0.
        -12    1    1    2    0    0 -0.10329110320E+02 -0.35816537616E+02 -0.16237310869E+02  0.40659133673E+02  0.00000000000E+00 0.  1.
         11    1    3    3    0    0  0.25441863968E+01  0.95846380615E+01  0.16505863134E+02  0.19255692386E+02  0.51100000000E-03 0. -1.
        -11    1    3    3    0    0 -0.23574179366E+01 -0.71679908492E+00  0.23067906533E+00  0.24747592506E+01  0.51100000000E-03 0.  1.
        -12    1    3    3    0    0  0.10142341860E+02  0.26948698639E+02 -0.49923133054E+00  0.28798414690E+02  0.00000000000E+00 0.  1.
</event>
<event>
 7    1  0.5441610E-013  0.5052885E+02  0.7816164E-02  0.1300439E+00
        -11   -1    0    0    0    0  0.00000000000E+00  0.00000000000E+00  0.45593999997E+02  0.45594000000E+02  0.51100000000E-03 0.  1.
         11   -1    0    0    0    0 -0.00000000000E+00 -0.00000000000E+00 -0.45593999997E+02  0.45594000000E+02  0.51100000000E-03 0. -1.
    9900012    2    1    2    0    0 -0.12393054470E+02  0.20210721197E+02 -0.33031882206E+02  0.50528852290E+02  0.29999977021E+02 0.  0.
        -12    1    1    2    0    0  0.12393054470E+02 -0.20210721197E+02  0.33031882206E+02  0.40659147710E+02  0.00000000000E+00 0.  1.
         11    1    3    3    0    0  0.28850892044E+01  0.22493534205E+01 -0.11176895047E+02  0.11760370474E+02  0.51100000000E-03 0. -1.
        -11    1    3    3    0    0 -0.98241264556E+00 -0.47982539207E+01 -0.17390379022E+01  0.51973674471E+01  0.51100000000E-03 0.  1.
         12    1    3    3    0    0 -0.14295731029E+02  0.22759621697E+02 -0.20115949257E+02  0.33571114369E+02  0.00000000000E+00 0. -1.
</event>
<event>
 7    1  0.5441610E-013  0.5052886E+02  0.7816164E-02  0.1300439E+00
        -11   -1    0    0    0    0  0.00000000000E+00  0.00000000000E+00  0.45593999997E+02  0.45594000000E+02  0.51100000000E-03 0.  1.
         11   -1    0    0    0    0 -0.00000000000E+00 -0.00000000000E+00 -0.45593999997E+02  0.45594000000E+02  0.51100000000E-03 0. -1.
    9900012    2    1    2    0    0 -0.14003056428E+02  0.47124694439E+01 -0.37879709351E+02  0.50528864026E+02  0.30000012694E+02 0.  0.
        -12    1    1    2    0    0  0.14003056428E+02 -0.47124694439E+01  0.37879709351E+02  0.40659135974E+02  0.00000000000E+00 0.  1.
         11    1    3    3    0    0 -0.65783317025E+01  0.98205281064E+01 -0.20066792628E+02  0.23289340629E+02  0.51100000000E-03 0. -1.
        -11    1    3    3    0    0 -0.88989655552E+01  0.51148202961E+01 -0.83546484759E+01  0.13234542910E+02  0.51100000000E-03 0.  1.
        -12    1    3    3    0    0  0.14742408299E+01 -0.10222878959E+02 -0.94582682474E+01  0.14004980488E+02  0.00000000000E+00 0.  1.
</event>
<event>
 7    1  0.5441610E-013  0.5052887E+02  0.7816164E-02  0.1300439E+00
        -11   -1    0    0    0    0  0.00000000000E+00  0.00000000000E+00  0.45593999997E+02  0.45594000000E+02  0.51100000000E-03 0.  1.
         11   -1    0    0    0    0 -0.00000000000E+00 -0.00000000000E+00 -0.45593999997E+02  0.45594000000E+02  0.51100000000E-03 0. -1.
    9900012    2    1    2    0    0  0.54513874263E+01  0.71274584435E+01 -0.39656607848E+02  0.50528870217E+02  0.30000031511E+02 0.  0.
        -12    1    1    2    0    0 -0.54513874263E+01 -0.71274584435E+01  0.39656607848E+02  0.40659129783E+02  0.00000000000E+00 0.  1.
         11    1    3    3    0    0  0.71407348707E+01 -0.83772689588E+01 -0.14126910276E+02  0.17909168711E+02  0.51100000000E-03 0. -1.
        -11    1    3    3    0    0  0.53723984772E+00  0.91888932975E+00 -0.13610489720E+02  0.13652048012E+02  0.51100000000E-03 0.  1.
        -12    1    3    3    0    0 -0.22265872922E+01  0.14585838073E+02 -0.11919207851E+02  0.18967653493E+02  0.00000000000E+00 0.  1.
</event>
<event>
 7    1  0.5441610E-013  0.5052886E+02  0.7816164E-02  0.1300439E+00
        -11   -1    0    0    0    0  0.00000000000E+00  0.00000000000E+00  0.45593999997E+02  0.45594000000E+02  0.51100000000E-03 0.  1.
         11   -1    0    0    0    0 -0.00000000000E+00 -0.00000000000E+00 -0.45593999997E+02  0.45594000000E+02  0.51100000000E-03 0. -1.
    9900012    2    1    2    0    0 -0.63538453500E+01 -0.39812288496E+02  0.52703041034E+01  0.50528858699E+02  0.29999996500E+02 0.  0.
        -12    1    1    2    0    0  0.63538453500E+01  0.39812288496E+02 -0.52703041034E+01  0.40659141301E+02  0.00000000000E+00 0.  1.
         11    1    3    3    0    0  0.55307093661E+00 -0.35514441837E+01  0.18780887599E+01  0.40553496645E+01  0.51100000000E-03 0. -1.
        -11    1    3    3    0    0  0.84144622342E+01 -0.21522425972E+01 -0.13234169134E+01  0.87855993237E+01  0.51100000000E-03 0.  1.
        -12    1    3    3    0    0 -0.15321378521E+02 -0.34108601715E+02  0.47156322570E+01  0.37687909710E+02  0.00000000000E+00 0.  1.
</event>
<event>
 7    1  0.5441610E-013  0.5052886E+02  0.7816164E-02  0.1300439E+00
        -11   -1    0    0    0    0  0.00000000000E+00  0.00000000000E+00  0.45593999997E+02  0.45594000000E+02  0.51100000000E-03 0. -1.
         11   -1    0    0    0    0 -0.00000000000E+00 -0.00000000000E+00 -0.45593999997E+02  0.45594000000E+02  0.51100000000E-03 0.  1.
    9900012    2    1    2    0    0 -0.12258131348E+02 -0.38412262301E+02  0.52346999840E+01  0.50528858800E+02  0.29999996807E+02 0.  0.
        -12    1    1    2    0    0  0.12258131348E+02  0.38412262301E+02 -0.52346999840E+01  0.40659141200E+02  0.00000000000E+00 0.  1.
         11    1    3    3    0    0 -0.11329261742E+01  0.64891058696E+00  0.11140635523E+01  0.17163171402E+01  0.51100000000E-03 0. -1.
        -11    1    3    3    0    0  0.59398710048E+01 -0.24848842164E+02  0.68128904227E+01  0.26441681123E+02  0.51100000000E-03 0.  1.
         12    1    3    3    0    0 -0.17065076178E+02 -0.14212330725E+02 -0.26922539909E+01  0.22370860537E+02  0.00000000000E+00 0. -1.
</event>
<event>
 7    1  0.5441610E-013  0.5052887E+02  0.7816164E-02  0.1300439E+00
        -11   -1    0    0    0    0  0.00000000000E+00  0.00000000000E+00  0.45593999997E+02  0.45594000000E+02  0.51100000000E-03 0.  1.
         11   -1    0    0    0    0 -0.00000000000E+00 -0.00000000000E+00 -0.45593999997E+02  0.45594000000E+02  0.51100000000E-03 0. -1.
    9900012    2    1    2    0    0  0.61774950058E+01 -0.40146040665E+02  0.18162301331E+01  0.50528871658E+02  0.30000035893E+02 0.  0.
        -12    1    1    2    0    0 -0.61774950058E+01  0.40146040665E+02 -0.18162301331E+01  0.40659128342E+02  0.00000000000E+00 0.  1.
         11    1    3    3    0    0  0.11625571927E+01 -0.31294298433E+02 -0.65520328014E+01  0.31993964864E+02  0.51100000000E-03 0. -1.
        -11    1    3    3    0    0  0.10035108048E+00  0.96414858213E+00 -0.27467974088E+01  0.29128249336E+01  0.51100000000E-03 0.  1.
         12    1    3    3    0    0  0.49145867326E+01 -0.98158908136E+01  0.11115060343E+02  0.15622081860E+02  0.00000000000E+00 0. -1.
</event>
<event>
 7    1  0.5441610E-013  0.5052885E+02  0.7816164E-02  0.1300439E+00
        -11   -1    0    0    0    0  0.00000000000E+00  0.00000000000E+00  0.45593999997E+02  0.45594000000E+02  0.51100000000E-03 0.  1.
         11   -1    0    0    0    0 -0.00000000000E+00 -0.00000000000E+00 -0.45593999997E+02  0.45594000000E+02  0.51100000000E-03 0. -1.
    9900012    2    1    2    0    0 -0.15288232341E+02 -0.33065358322E+02 -0.18058747014E+02  0.50528852040E+02  0.29999976261E+02 0.  0.
        -12    1    1    2    0    0  0.15288232341E+02  0.33065358322E+02  0.18058747014E+02  0.40659147960E+02  0.00000000000E+00 0.  1.
         11    1    3    3    0    0 -0.86544408604E+01 -0.20673818116E+02 -0.14463153239E+02  0.26673749342E+02  0.51100000000E-03 0. -1.
        -11    1    3    3    0    0  0.85195685757E+00 -0.13281609836E+02  0.32194286688E+01  0.13692761283E+02  0.51100000000E-03 0.  1.
         12    1    3    3    0    0 -0.74857483382E+01  0.89006962965E+00 -0.68150224441E+01  0.10162341415E+02  0.00000000000E+00 0. -1.
</event>
<event>
 7    1  0.5441610E-013  0.5052886E+02  0.7816164E-02  0.1300439E+00
        -11   -1    0    0    0    0  0.00000000000E+00  0.00000000000E+00  0.45593999997E+02  0.45594000000E+02  0.51100000000E-03 0. -1.
         11   -1    0    0    0    0 -0.00000000000E+00 -0.00000000000E+00 -0.45593999997E+02  0.45594000000E+02  0.51100000000E-03 0.  1.
    9900012    2    1    2    0    0 -0.19128399913E+02 -0.30667727405E+02 -0.18621507383E+02  0.50528859273E+02  0.29999998247E+02 0.  0.
        -12    1    1    2    0    0  0.19128399913E+02  0.30667727405E+02  0.18621507383E+02  0.40659140727E+02  0.00000000000E+00 0.  1.
         11    1    3    3    0    0 -0.65711937986E+01 -0.10079826241E+01  0.22291399734E+01  0.70118244553E+01  0.51100000000E-03 0. -1.
        -11    1    3    3    0    0 -0.17090338242E+01 -0.33816547297E+01  0.41779918483E+01  0.56402128921E+01  0.51100000000E-03 0.  1.
        -12    1    3    3    0    0 -0.10848172290E+02 -0.26278090051E+02 -0.25028639205E+02  0.37876821926E+02  0.00000000000E+00 0.  1.
</event>
<event>
 7    1  0.5441610E-013  0.5052887E+02  0.7816164E-02  0.1300439E+00
        -11   -1    0    0    0    0  0.00000000000E+00  0.00000000000E+00  0.45593999997E+02  0.45594000000E+02  0.51100000000E-03 0.  1.
         11   -1    0    0    0    0 -0.00000000000E+00 -0.00000000000E+00 -0.45593999997E+02  0.45594000000E+02  0.51100000000E-03 0. -1.
    9900012    2    1    2    0    0 -0.15359965663E+02  0.35633023196E+02 -0.12145952792E+02  0.50528867490E+02  0.30000023221E+02 0.  0.
        -12    1    1    2    0    0  0.15359965663E+02 -0.35633023196E+02  0.12145952792E+02  0.40659132510E+02  0.00000000000E+00 0.  1.
         11    1    3    3    0    0 -0.16929083105E+02  0.36260391036E+02 -0.12183047152E+02  0.41831046497E+02  0.51100000000E-03 0. -1.
        -11    1    3    3    0    0 -0.15098458934E+01 -0.30893170388E+01 -0.22793377615E+01  0.41253963785E+01  0.51100000000E-03 0.  1.
        -12    1    3    3    0    0  0.30789633356E+01  0.24619491988E+01  0.23164321211E+01  0.45724246140E+01  0.00000000000E+00 0.  1.
</event>
<event>
 7    1  0.5441610E-013  0.5052886E+02  0.7816164E-02  0.1300439E+00
        -11   -1    0    0    0    0  0.00000000000E+00  0.00000000000E+00  0.45593999997E+02  0.45594000000E+02  0.51100000000E-03 0.  1.
         11   -1    0    0    0    0 -0.00000000000E+00 -0.00000000000E+00 -0.45593999997E+02  0.45594000000E+02  0.51100000000E-03 0. -1.
    9900012    2    1    2    0    0 -0.18128717341E+02  0.36392738004E+02 -0.28975267474E+00  0.50528859227E+02  0.29999998105E+02 0.  0.
        -12    1    1    2    0    0  0.18128717341E+02 -0.36392738004E+02  0.28975267474E+00  0.40659140773E+02  0.00000000000E+00 0.  1.
         11    1    3    3    0    0  0.67380383647E+01  0.63497721496E+01  0.38885343620E+00  0.92667132583E+01  0.51100000000E-03 0. -1.
        -11    1    3    3    0    0 -0.37392284604E+01  0.41528782052E+01  0.48401264031E+01  0.73929054319E+01  0.51100000000E-03 0.  1.
        -12    1    3    3    0    0 -0.21127527245E+02  0.25890087649E+02 -0.55187325141E+01  0.33869240536E+02  0.00000000000E+00 0.  1.
</event>
<event>
 7    1  0.5441610E-013  0.5052886E+02  0.7816164E-02  0.1300439E+00
        -11   -1    0    0    0    0  0.00000000000E+00  0.00000000000E+00  0.45593999997E+02  0.45594000000E+02  0.51100000000E-03 0.  1.
         11   -1    0    0    0    0 -0.00000000000E+00 -0.00000000000E+00 -0.45593999997E+02  0.45594000000E+02  0.51100000000E-03 0. -1.
    9900012    2    1    2    0    0 -0.24063276006E+02 -0.24766623434E+01 -0.32680126982E+02  0.50528858248E+02  0.29999995129E+02 0.  0.
        -12    1    1    2    0    0  0.24063276006E+02  0.24766623434E+01  0.32680126982E+02  0.40659141752E+02  0.00000000000E+00 0.  1.
         11    1    3    3    0    0 -0.13017468852E+02  0.16900401576E+00 -0.72119536011E+01  0.14882719263E+02  0.51100000000E-03 0. -1.
        -11    1    3    3    0    0 -0.71749142363E+01  0.96223852123E+01 -0.10932210371E+02  0.16235236842E+02  0.51100000000E-03 0.  1.
        -12    1    3    3    0    0 -0.38708929177E+01 -0.12268051572E+02 -0.14535963010E+02  0.19410902142E+02  0.00000000000E+00 0.  1.
</event>
<event>
 7    1  0.5441610E-013  0.5052885E+02  0.7816164E-02  0.1300439E+00
        -11   -1    0    0    0    0  0.00000000000E+00  0.00000000000E+00  0.45593999997E+02  0.45594000000E+02  0.51100000000E-03 0.  1.
         11   -1    0    0    0    0 -0.00000000000E+00 -0.00000000000E+00 -0.45593999997E+02  0.45594000000E+02  0.51100000000E-03 0. -1.
    9900012    2    1    2    0    0 -0.18561846475E+02 -0.25972685133E-01 -0.36174898318E+02  0.50528854812E+02  0.29999984686E+02 0.  0.
        -12    1    1    2    0    0  0.18561846475E+02  0.25972685133E-01  0.36174898318E+02  0.40659145188E+02  0.00000000000E+00 0.  1.
         11    1    3    3    0    0 -0.30300459907E+01 -0.31029241926E+01 -0.51333674573E+01  0.67201770039E+01  0.51100000000E-03 0. -1.
        -11    1    3    3    0    0  0.38216379790E+01  0.49725085538E+01  0.97749070564E+00  0.63471447518E+01  0.51100000000E-03 0.  1.
        -12    1    3    3    0    0 -0.19353438463E+02 -0.18955570463E+01 -0.32019021566E+02  0.37461533056E+02  0.00000000000E+00 0.  1.
</event>
<event>
 7    1  0.5441610E-013  0.5052885E+02  0.7816164E-02  0.1300439E+00
        -11   -1    0    0    0    0  0.00000000000E+00  0.00000000000E+00  0.45593999997E+02  0.45594000000E+02  0.51100000000E-03 0.  1.
         11   -1    0    0    0    0 -0.00000000000E+00 -0.00000000000E+00 -0.45593999997E+02  0.45594000000E+02  0.51100000000E-03 0. -1.
    9900012    2    1    2    0    0  0.28523314234E+02 -0.22951922412E+02  0.17686044012E+02  0.50528851582E+02  0.29999974867E+02 0.  0.
        -12    1    1    2    0    0 -0.28523314234E+02  0.22951922412E+02 -0.17686044012E+02  0.40659148418E+02  0.00000000000E+00 0.  1.
         11    1    3    3    0    0 -0.86715499197E+00 -0.32186085169E+01  0.13433031025E+02  0.13840437903E+02  0.51100000000E-03 0.  1.
        -11    1    3    3    0    0  0.81099181963E+01 -0.36746248979E+01 -0.23793886050E+01  0.92160258076E+01  0.51100000000E-03 0. -1.
        -12    1    3    3    0    0  0.21280551030E+02 -0.16058688997E+02  0.66324015920E+01  0.27472387871E+02  0.00000000000E+00 0.  1.
</event>
<event>
 7    1  0.5441610E-013  0.5052886E+02  0.7816164E-02  0.1300439E+00
        -11   -1    0    0    0    0  0.00000000000E+00  0.00000000000E+00  0.45593999997E+02  0.45594000000E+02  0.51100000000E-03 0. -1.
         11   -1    0    0    0    0 -0.00000000000E+00 -0.00000000000E+00 -0.45593999997E+02  0.45594000000E+02  0.51100000000E-03 0.  1.
    9900012    2    1    2    0    0  0.35339539239E+02  0.42672164224E+01  0.19648759029E+02  0.50528857104E+02  0.29999991654E+02 0.  0.
        -12    1    1    2    0    0 -0.35339539239E+02 -0.42672164224E+01 -0.19648759029E+02  0.40659142896E+02  0.00000000000E+00 0.  1.
         11    1    3    3    0    0  0.10140568959E+02 -0.94226989524E+01  0.15347560660E+02  0.20667994891E+02  0.51100000000E-03 0. -1.
        -11    1    3    3    0    0  0.25666777181E+01  0.39954308108E+01 -0.50280518954E+00  0.47753654512E+01  0.51100000000E-03 0.  1.
        -12    1    3    3    0    0  0.22632292562E+02  0.96944845640E+01  0.48040035581E+01  0.25085496762E+02  0.00000000000E+00 0.  1.
</event>
<event>
 7    1  0.5441610E-013  0.5052886E+02  0.7816164E-02  0.1300439E+00
        -11   -1    0    0    0    0  0.00000000000E+00  0.00000000000E+00  0.45593999997E+02  0.45594000000E+02  0.51100000000E-03 0.  1.
         11   -1    0    0    0    0 -0.00000000000E+00 -0.00000000000E+00 -0.45593999997E+02  0.45594000000E+02  0.51100000000E-03 0. -1.
    9900012    2    1    2    0    0 -0.10577098906E+02  0.38556375390E+01 -0.39069488880E+02  0.50528856829E+02  0.29999990816E+02 0.  0.
        -12    1    1    2    0    0  0.10577098906E+02 -0.38556375390E+01  0.39069488880E+02  0.40659143171E+02  0.00000000000E+00 0.  1.
         11    1    3    3    0    0 -0.12076957114E+02  0.18420388580E+01 -0.26219992295E+02  0.28926354705E+02  0.51100000000E-03 0. -1.
        -11    1    3    3    0    0 -0.65183546487E+01 -0.20255328661E+01 -0.10141971716E+02  0.12225028477E+02  0.51100000000E-03 0.  1.
        -12    1    3    3    0    0  0.80182128569E+01  0.40391315471E+01 -0.27075248687E+01  0.93774736464E+01  0.00000000000E+00 0.  1.
</event>
<event>
 7    1  0.5441610E-013  0.5052886E+02  0.7816164E-02  0.1300439E+00
        -11   -1    0    0    0    0  0.00000000000E+00  0.00000000000E+00  0.45593999997E+02  0.45594000000E+02  0.51100000000E-03 0.  1.
         11   -1    0    0    0    0 -0.00000000000E+00 -0.00000000000E+00 -0.45593999997E+02  0.45594000000E+02  0.51100000000E-03 0. -1.
    9900012    2    1    2    0    0  0.97225171899E+01 -0.18131566834E+02 -0.35069715711E+02  0.50528855685E+02  0.29999987340E+02 0.  0.
        -12    1    1    2    0    0 -0.97225171899E+01  0.18131566834E+02  0.35069715711E+02  0.40659144315E+02  0.00000000000E+00 0.  1.
         11    1    3    3    0    0  0.41262430507E+01 -0.18370653924E+01 -0.78625086458E+01  0.90675097704E+01  0.51100000000E-03 0. -1.
        -11    1    3    3    0    0 -0.46783451336E+00  0.67968183257E+01 -0.29436884299E+01  0.74216514549E+01  0.51100000000E-03 0.  1.
        -12    1    3    3    0    0  0.60641086526E+01 -0.23091319767E+02 -0.24263518635E+02  0.34039694460E+02  0.00000000000E+00 0.  1.
</event>
<event>
 7    1  0.5441610E-013  0.5052886E+02  0.7816164E-02  0.1300439E+00
        -11   -1    0    0    0    0  0.00000000000E+00  0.00000000000E+00  0.45593999997E+02  0.45594000000E+02  0.51100000000E-03 0. -1.
         11   -1    0    0    0    0 -0.00000000000E+00 -0.00000000000E+00 -0.45593999997E+02  0.45594000000E+02  0.51100000000E-03 0.  1.
    9900012    2    1    2    0    0 -0.40478805853E+02  0.10960444072E+01 -0.36647661598E+01  0.50528861450E+02  0.30000004863E+02 0.  0.
        -12    1    1    2    0    0  0.40478805853E+02 -0.10960444072E+01  0.36647661598E+01  0.40659138550E+02  0.00000000000E+00 0.  1.
         11    1    3    3    0    0 -0.23133530393E+02  0.10104647182E+02  0.20581402788E+01  0.25327851563E+02  0.51100000000E-03 0. -1.
        -11    1    3    3    0    0  0.14410155801E+01  0.15225615665E+01 -0.27532665201E+01  0.34605196745E+01  0.51100000000E-03 0.  1.
        -12    1    3    3    0    0 -0.18786291040E+02 -0.10531164342E+02 -0.29696399185E+01  0.21740490212E+02  0.00000000000E+00 0.  1.
</event>
<event>
 7    1  0.5441610E-013  0.5052887E+02  0.7816164E-02  0.1300439E+00
        -11   -1    0    0    0    0  0.00000000000E+00  0.00000000000E+00  0.45593999997E+02  0.45594000000E+02  0.51100000000E-03 0.  1.
         11   -1    0    0    0    0 -0.00000000000E+00 -0.00000000000E+00 -0.45593999997E+02  0.45594000000E+02  0.51100000000E-03 0. -1.
    9900012    2    1    2    0    0  0.24030961837E+02  0.12089706142E+02 -0.30487978951E+02  0.50528868407E+02  0.30000026009E+02 0.  0.
        -12    1    1    2    0    0 -0.24030961837E+02 -0.12089706142E+02  0.30487978951E+02  0.40659131593E+02  0.00000000000E+00 0.  1.
         11    1    3    3    0    0  0.10823553883E+02 -0.48047138705E+01 -0.40862658199E+01  0.12527256789E+02  0.51100000000E-03 0. -1.
        -11    1    3    3    0    0 -0.25388430658E+01 -0.61413552213E+00 -0.70633872861E+01  0.75308914989E+01  0.51100000000E-03 0.  1.
         12    1    3    3    0    0  0.15746251020E+02  0.17508555535E+02 -0.19338325845E+02  0.30470720119E+02  0.00000000000E+00 0. -1.
</event>
<event>
 7    1  0.5441610E-013  0.5052886E+02  0.7816164E-02  0.1300439E+00
        -11   -1    0    0    0    0  0.00000000000E+00  0.00000000000E+00  0.45593999997E+02  0.45594000000E+02  0.51100000000E-03 0.  1.
         11   -1    0    0    0    0 -0.00000000000E+00 -0.00000000000E+00 -0.45593999997E+02  0.45594000000E+02  0.51100000000E-03 0. -1.
    9900012    2    1    2    0    0  0.16112996337E+02 -0.36903334066E+02 -0.56285529758E+01  0.50528864191E+02  0.30000013194E+02 0.  0.
        -12    1    1    2    0    0 -0.16112996337E+02  0.36903334066E+02  0.56285529758E+01  0.40659135809E+02  0.00000000000E+00 0.  1.
         11    1    3    3    0    0  0.89039359011E+01 -0.46457303520E+01 -0.31590688813E+01  0.10528181300E+02  0.51100000000E-03 0. -1.
        -11    1    3    3    0    0  0.50036477786E+01 -0.37325310571E+01  0.74500561040E+01  0.97196509916E+01  0.51100000000E-03 0.  1.
         12    1    3    3    0    0  0.22054126570E+01 -0.28525072657E+02 -0.99195401986E+01  0.30281031899E+02  0.00000000000E+00 0. -1.
</event>
<event>
 7    1  0.5441610E-013  0.5052886E+02  0.7816164E-02  0.1300439E+00
        -11   -1    0    0    0    0  0.00000000000E+00  0.00000000000E+00  0.45593999997E+02  0.45594000000E+02  0.51100000000E-03 0.  1.
         11   -1    0    0    0    0 -0.00000000000E+00 -0.00000000000E+00 -0.45593999997E+02  0.45594000000E+02  0.51100000000E-03 0. -1.
    9900012    2    1    2    0    0 -0.19160673909E+02 -0.23271305313E+02 -0.27285176339E+02  0.50528856828E+02  0.29999990816E+02 0.  0.
        -12    1    1    2    0    0  0.19160673909E+02  0.23271305313E+02  0.27285176339E+02  0.40659143172E+02  0.00000000000E+00 0.  1.
         11    1    3    3    0    0 -0.13890203218E+02 -0.17846183637E+02 -0.11392497595E+02  0.25322184297E+02  0.51100000000E-03 0. -1.
        -11    1    3    3    0    0 -0.69941578962E-01 -0.88767348175E+01 -0.16700221758E+02  0.18912924678E+02  0.51100000000E-03 0.  1.
        -12    1    3    3    0    0 -0.52005291119E+01  0.34516131422E+01  0.80754301403E+00  0.62937478538E+01  0.00000000000E+00 0.  1.
</event>
<event>
 7    1  0.5441610E-013  0.5052885E+02  0.7816164E-02  0.1300439E+00
        -11   -1    0    0    0    0  0.00000000000E+00  0.00000000000E+00  0.45593999997E+02  0.45594000000E+02  0.51100000000E-03 0.  1.
         11   -1    0    0    0    0 -0.00000000000E+00 -0.00000000000E+00 -0.45593999997E+02  0.45594000000E+02  0.51100000000E-03 0. -1.
    9900012    2    1    2    0    0 -0.13022728607E+02  0.59987157196E+01 -0.38047209122E+02  0.50528853764E+02  0.29999981502E+02 0.  0.
        -12    1    1    2    0    0  0.13022728607E+02 -0.59987157196E+01  0.38047209122E+02  0.40659146236E+02  0.00000000000E+00 0.  1.
         11    1    3    3    0    0 -0.29493922557E+01  0.57829592362E+01 -0.60549921393E+00  0.65198283539E+01  0.51100000000E-03 0. -1.
        -11    1    3    3    0    0  0.37219876608E+01  0.10706269627E+01 -0.25351466915E+02  0.25645590444E+02  0.51100000000E-03 0.  1.
         12    1    3    3    0    0 -0.13795324012E+02 -0.85487047934E+00 -0.12090242993E+02  0.18363434967E+02  0.00000000000E+00 0. -1.
</event>
<event>
 7    1  0.5441610E-013  0.5052885E+02  0.7816164E-02  0.1300439E+00
        -11   -1    0    0    0    0  0.00000000000E+00  0.00000000000E+00  0.45593999997E+02  0.45594000000E+02  0.51100000000E-03 0. -1.
         11   -1    0    0    0    0 -0.00000000000E+00 -0.00000000000E+00 -0.45593999997E+02  0.45594000000E+02  0.51100000000E-03 0.  1.
    9900012    2    1    2    0    0  0.19447066651E+02  0.35654132855E+02  0.19392108054E+01  0.50528854294E+02  0.29999983113E+02 0.  0.
        -12    1    1    2    0    0 -0.19447066651E+02 -0.35654132855E+02 -0.19392108054E+01  0.40659145706E+02  0.00000000000E+00 0.  1.
         11    1    3    3    0    0  0.28354321246E+01  0.10520156142E+02  0.78770916999E+01  0.13444773501E+02  0.51100000000E-03 0. -1.
        -11    1    3    3    0    0  0.15622892074E+02  0.56678164415E+01  0.29083116824E+00  0.16621777372E+02  0.51100000000E-03 0.  1.
        -12    1    3    3    0    0  0.98874245292E+00  0.19466160271E+02 -0.62287120628E+01  0.20462303421E+02  0.00000000000E+00 0.  1.
</event>
<event>
 7    1  0.5441610E-013  0.5052886E+02  0.7816164E-02  0.1300439E+00
        -11   -1    0    0    0    0  0.00000000000E+00  0.00000000000E+00  0.45593999997E+02  0.45594000000E+02  0.51100000000E-03 0. -1.
         11   -1    0    0    0    0 -0.00000000000E+00 -0.00000000000E+00 -0.45593999997E+02  0.45594000000E+02  0.51100000000E-03 0.  1.
    9900012    2    1    2    0    0  0.21393759337E+02 -0.31549666141E+02  0.14145357895E+02  0.50528861763E+02  0.30000005815E+02 0.  0.
        -12    1    1    2    0    0 -0.21393759337E+02  0.31549666141E+02 -0.14145357895E+02  0.40659138237E+02  0.00000000000E+00 0.  1.
         11    1    3    3    0    0 -0.83616506770E+00 -0.10607245910E+02  0.41787552971E+01  0.11431309370E+02  0.51100000000E-03 0.  1.
        -11    1    3    3    0    0  0.16489278424E+02 -0.21953518517E+02 -0.10981758724E+00  0.27456608283E+02  0.51100000000E-03 0. -1.
        -12    1    3    3    0    0  0.57406459808E+01  0.10110982863E+01  0.10076420185E+02  0.11640944110E+02  0.00000000000E+00 0.  1.
</event>
<event>
 7    1  0.5441610E-013  0.5052886E+02  0.7816164E-02  0.1300439E+00
        -11   -1    0    0    0    0  0.00000000000E+00  0.00000000000E+00  0.45593999997E+02  0.45594000000E+02  0.51100000000E-03 0. -1.
         11   -1    0    0    0    0 -0.00000000000E+00 -0.00000000000E+00 -0.45593999997E+02  0.45594000000E+02  0.51100000000E-03 0.  1.
    9900012    2    1    2    0    0 -0.32266542994E+01  0.36308857730E+02  0.18011692662E+02  0.50528861788E+02  0.30000005891E+02 0.  0.
        -12    1    1    2    0    0  0.32266542994E+01 -0.36308857730E+02 -0.18011692662E+02  0.40659138212E+02  0.00000000000E+00 0.  1.
         11    1    3    3    0    0 -0.49343146655E+01  0.26378852620E+02  0.20850195877E+02  0.33984143290E+02  0.51100000000E-03 0. -1.
        -11    1    3    3    0    0 -0.49700108655E+00 -0.64421274327E+00  0.37867337466E+01  0.38731605785E+01  0.51100000000E-03 0.  1.
         12    1    3    3    0    0  0.22046614526E+01  0.10574217853E+02 -0.66252369615E+01  0.12671557920E+02  0.00000000000E+00 0. -1.
</event>
<event>
 7    1  0.5441610E-013  0.5052890E+02  0.7816164E-02  0.1300439E+00
        -11   -1    0    0    0    0  0.00000000000E+00  0.00000000000E+00  0.45593999997E+02  0.45594000000E+02  0.51100000000E-03 0.  1.
         11   -1    0    0    0    0 -0.00000000000E+00 -0.00000000000E+00 -0.45593999997E+02  0.45594000000E+02  0.51100000000E-03 0. -1.
    9900012    2    1    2    0    0 -0.32017337760E+02  0.74328368197E+01  0.23933355217E+02  0.50528899268E+02  0.30000119815E+02 0.  0.
        -12    1    1    2    0    0  0.32017337760E+02 -0.74328368197E+01 -0.23933355217E+02  0.40659100732E+02  0.00000000000E+00 0.  1.
         11    1    3    3    0    0 -0.76828370750E+01  0.78961462563E+01  0.17235332248E+02  0.20455605324E+02  0.51100000000E-03 0.  1.
        -11    1    3    3    0    0 -0.45311166885E+01 -0.55924190612E+01  0.63734406320E+01  0.96138917797E+01  0.51100000000E-03 0. -1.
         12    1    3    3    0    0 -0.19803383996E+02  0.51291096246E+01  0.32458233698E+00  0.20459402165E+02  0.00000000000E+00 0. -1.
</event>
<event>
 7    1  0.5441610E-013  0.5052886E+02  0.7816164E-02  0.1300439E+00
        -11   -1    0    0    0    0  0.00000000000E+00  0.00000000000E+00  0.45593999997E+02  0.45594000000E+02  0.51100000000E-03 0.  1.
         11   -1    0    0    0    0 -0.00000000000E+00 -0.00000000000E+00 -0.45593999997E+02  0.45594000000E+02  0.51100000000E-03 0. -1.
    9900012    2    1    2    0    0 -0.39725491665E+02  0.80870066483E+01 -0.31066762364E+01  0.50528858325E+02  0.29999995364E+02 0.  0.
        -12    1    1    2    0    0  0.39725491665E+02 -0.80870066483E+01  0.31066762364E+01  0.40659141675E+02  0.00000000000E+00 0.  1.
         11    1    3    3    0    0 -0.12305534573E+02 -0.33114242297E+01  0.53017649717E+01  0.13802189088E+02  0.51100000000E-03 0. -1.
        -11    1    3    3    0    0 -0.96312381525E+01  0.14683006588E+02 -0.27573610107E+01  0.17775108180E+02  0.51100000000E-03 0.  1.
         12    1    3    3    0    0 -0.17788718939E+02 -0.32845757095E+01 -0.56510801974E+01  0.18951561057E+02  0.00000000000E+00 0. -1.
</event>
<event>
 7    1  0.5441610E-013  0.5052886E+02  0.7816164E-02  0.1300439E+00
        -11   -1    0    0    0    0  0.00000000000E+00  0.00000000000E+00  0.45593999997E+02  0.45594000000E+02  0.51100000000E-03 0.  1.
         11   -1    0    0    0    0 -0.00000000000E+00 -0.00000000000E+00 -0.45593999997E+02  0.45594000000E+02  0.51100000000E-03 0. -1.
    9900012    2    1    2    0    0  0.19192913190E+02 -0.55273195316E+00 -0.35839809585E+02  0.50528863506E+02  0.30000011113E+02 0.  0.
        -12    1    1    2    0    0 -0.19192913190E+02  0.55273195316E+00  0.35839809585E+02  0.40659136494E+02  0.00000000000E+00 0.  1.
         11    1    3    3    0    0  0.29609824633E+00 -0.14050290421E+01 -0.21055941129E+02  0.21104843944E+02  0.51100000000E-03 0. -1.
        -11    1    3    3    0    0  0.49014354044E+01  0.62857690789E+01 -0.11603894408E+02  0.14077831070E+02  0.51100000000E-03 0.  1.
         12    1    3    3    0    0  0.13995379539E+02 -0.54334719900E+01 -0.31799740477E+01  0.15346188492E+02  0.00000000000E+00 0. -1.
</event>
<event>
 7    1  0.5441610E-013  0.5052887E+02  0.7816164E-02  0.1300439E+00
        -11   -1    0    0    0    0  0.00000000000E+00  0.00000000000E+00  0.45593999997E+02  0.45594000000E+02  0.51100000000E-03 0.  1.
         11   -1    0    0    0    0 -0.00000000000E+00 -0.00000000000E+00 -0.45593999997E+02  0.45594000000E+02  0.51100000000E-03 0. -1.
    9900012    2    1    2    0    0 -0.35190472013E+02  0.12188161419E+02 -0.16316988180E+02  0.50528871843E+02  0.30000036454E+02 0.  0.
        -12    1    1    2    0    0  0.35190472013E+02 -0.12188161419E+02  0.16316988180E+02  0.40659128157E+02  0.00000000000E+00 0.  1.
         11    1    3    3    0    0 -0.11936707967E+02 -0.52448937251E+01 -0.11161331284E+02  0.17163019069E+02  0.51100000000E-03 0. -1.
        -11    1    3    3    0    0 -0.15916891923E+02  0.23164443774E+01 -0.36650144567E+01  0.16496838918E+02  0.51100000000E-03 0.  1.
        -12    1    3    3    0    0 -0.73368721226E+01  0.15116610766E+02 -0.14906424387E+01  0.16869013856E+02  0.00000000000E+00 0.  1.
</event>
<event>
 7    1  0.5441610E-013  0.5052887E+02  0.7816164E-02  0.1300439E+00
        -11   -1    0    0    0    0  0.00000000000E+00  0.00000000000E+00  0.45593999997E+02  0.45594000000E+02  0.51100000000E-03 0.  1.
         11   -1    0    0    0    0 -0.00000000000E+00 -0.00000000000E+00 -0.45593999997E+02  0.45594000000E+02  0.51100000000E-03 0. -1.
    9900012    2    1    2    0    0 -0.50487169149E+01 -0.39966645965E+02 -0.55083746437E+01  0.50528874046E+02  0.30000043150E+02 0.  0.
        -12    1    1    2    0    0  0.50487169149E+01  0.39966645965E+02  0.55083746437E+01  0.40659125954E+02  0.00000000000E+00 0.  1.
         11    1    3    3    0    0 -0.41470328869E+01 -0.16834376010E+02 -0.26728507923E+01  0.17542469296E+02  0.51100000000E-03 0. -1.
        -11    1    3    3    0    0  0.47060772173E+01 -0.13272645541E+02  0.89049947435E+01  0.16661608988E+02  0.51100000000E-03 0.  1.
         12    1    3    3    0    0 -0.56077612452E+01 -0.98596244143E+01 -0.11740518595E+02  0.16324795761E+02  0.00000000000E+00 0. -1.
</event>
<event>
 7    1  0.5441610E-013  0.5052886E+02  0.7816164E-02  0.1300439E+00
        -11   -1    0    0    0    0  0.00000000000E+00  0.00000000000E+00  0.45593999997E+02  0.45594000000E+02  0.51100000000E-03 0. -1.
         11   -1    0    0    0    0 -0.00000000000E+00 -0.00000000000E+00 -0.45593999997E+02  0.45594000000E+02  0.51100000000E-03 0.  1.
    9900012    2    1    2    0    0 -0.38523683579E+02 -0.12085400765E+02  0.47994431131E+01  0.50528858810E+02  0.29999996838E+02 0.  0.
        -12    1    1    2    0    0  0.38523683579E+02  0.12085400765E+02 -0.47994431131E+01  0.40659141190E+02  0.00000000000E+00 0.  1.
         11    1    3    3    0    0 -0.26583082871E+02 -0.59597216643E+01 -0.85962810728E+01  0.28567019897E+02  0.51100000000E-03 0. -1.
        -11    1    3    3    0    0 -0.11599821912E+02 -0.74525188123E+01  0.70797170986E+01  0.15498977369E+02  0.51100000000E-03 0.  1.
        -12    1    3    3    0    0 -0.34077879599E+00  0.13268397114E+01  0.63160070872E+01  0.64628615437E+01  0.00000000000E+00 0.  1.
</event>
<event>
 7    1  0.5441610E-013  0.5052886E+02  0.7816164E-02  0.1300439E+00
        -11   -1    0    0    0    0  0.00000000000E+00  0.00000000000E+00  0.45593999997E+02  0.45594000000E+02  0.51100000000E-03 0.  1.
         11   -1    0    0    0    0 -0.00000000000E+00 -0.00000000000E+00 -0.45593999997E+02  0.45594000000E+02  0.51100000000E-03 0. -1.
    9900012    2    1    2    0    0  0.66334200987E+01  0.19054901511E+02 -0.35299772414E+02  0.50528862450E+02  0.30000007904E+02 0.  0.
        -12    1    1    2    0    0 -0.66334200987E+01 -0.19054901511E+02  0.35299772414E+02  0.40659137550E+02  0.00000000000E+00 0.  1.
         11    1    3    3    0    0 -0.26059343953E+01  0.31996239503E+01 -0.22365039645E+02  0.22742547925E+02  0.51100000000E-03 0. -1.
        -11    1    3    3    0    0  0.88243641362E+01  0.63120969673E+01 -0.14496880479E+02  0.18107222714E+02  0.51100000000E-03 0.  1.
         12    1    3    3    0    0  0.41499035782E+00  0.95431805930E+01  0.15621477101E+01  0.96790918115E+01  0.00000000000E+00 0. -1.
</event>
<event>
 7    1  0.5441610E-013  0.5052886E+02  0.7816164E-02  0.1300439E+00
        -11   -1    0    0    0    0  0.00000000000E+00  0.00000000000E+00  0.45593999997E+02  0.45594000000E+02  0.51100000000E-03 0.  1.
         11   -1    0    0    0    0 -0.00000000000E+00 -0.00000000000E+00 -0.45593999997E+02  0.45594000000E+02  0.51100000000E-03 0. -1.
    9900012    2    1    2    0    0  0.55905512866E+01 -0.12108071268E+02 -0.38409715300E+02  0.50528857326E+02  0.29999992330E+02 0.  0.
        -12    1    1    2    0    0 -0.55905512866E+01  0.12108071268E+02  0.38409715300E+02  0.40659142674E+02  0.00000000000E+00 0.  1.
         11    1    3    3    0    0  0.59725741930E+01 -0.10818036058E+02 -0.17363271222E+02  0.21311610320E+02  0.51100000000E-03 0. -1.
        -11    1    3    3    0    0  0.22167620305E+00 -0.10179495439E+02 -0.16035309735E+02  0.18994799981E+02  0.51100000000E-03 0.  1.
        -12    1    3    3    0    0 -0.60369910944E+00  0.88894602297E+01 -0.50111343427E+01  0.10222447026E+02  0.00000000000E+00 0.  1.
</event>
<event>
 7    1  0.5441610E-013  0.5052886E+02  0.7816164E-02  0.1300439E+00
        -11   -1    0    0    0    0  0.00000000000E+00  0.00000000000E+00  0.45593999997E+02  0.45594000000E+02  0.51100000000E-03 0.  1.
         11   -1    0    0    0    0 -0.00000000000E+00 -0.00000000000E+00 -0.45593999997E+02  0.45594000000E+02  0.51100000000E-03 0. -1.
    9900012    2    1    2    0    0 -0.38737818819E+01 -0.27559228424E+02 -0.29642001715E+02  0.50528861752E+02  0.30000005781E+02 0.  0.
        -12    1    1    2    0    0  0.38737818819E+01  0.27559228424E+02  0.29642001715E+02  0.40659138248E+02  0.00000000000E+00 0.  1.
         11    1    3    3    0    0  0.37630495179E+01 -0.21299953459E+02 -0.18635618146E+02  0.28550566071E+02  0.51100000000E-03 0. -1.
        -11    1    3    3    0    0  0.29535152655E+01 -0.63002329570E+01 -0.86988402520E+01  0.11139390007E+02  0.51100000000E-03 0.  1.
        -12    1    3    3    0    0 -0.10590346665E+02  0.40957991532E-01 -0.23075433173E+01  0.10838905674E+02  0.00000000000E+00 0.  1.
</event>
<event>
 7    1  0.5441610E-013  0.5052886E+02  0.7816164E-02  0.1300439E+00
        -11   -1    0    0    0    0  0.00000000000E+00  0.00000000000E+00  0.45593999997E+02  0.45594000000E+02  0.51100000000E-03 0.  1.
         11   -1    0    0    0    0 -0.00000000000E+00 -0.00000000000E+00 -0.45593999997E+02  0.45594000000E+02  0.51100000000E-03 0. -1.
    9900012    2    1    2    0    0 -0.91641579203E+01 -0.39175159079E+02  0.58728865650E+01  0.50528859874E+02  0.30000000072E+02 0.  0.
        -12    1    1    2    0    0  0.91641579203E+01  0.39175159079E+02 -0.58728865650E+01  0.40659140126E+02  0.00000000000E+00 0.  1.
         11    1    3    3    0    0  0.40754749702E+01 -0.13500245144E+02 -0.50888457824E+01  0.14992080137E+02  0.51100000000E-03 0. -1.
        -11    1    3    3    0    0 -0.23489280240E+01 -0.18695953310E+02  0.12346979106E+02  0.22527850016E+02  0.51100000000E-03 0.  1.
         12    1    3    3    0    0 -0.10890704867E+02 -0.69789606245E+01 -0.13852467587E+01  0.13008929720E+02  0.00000000000E+00 0. -1.
</event>
<event>
 7    1  0.5441610E-013  0.5052886E+02  0.7816164E-02  0.1300439E+00
        -11   -1    0    0    0    0  0.00000000000E+00  0.00000000000E+00  0.45593999997E+02  0.45594000000E+02  0.51100000000E-03 0.  1.
         11   -1    0    0    0    0 -0.00000000000E+00 -0.00000000000E+00 -0.45593999997E+02  0.45594000000E+02  0.51100000000E-03 0. -1.
    9900012    2    1    2    0    0 -0.11904398050E+02 -0.34425415755E+02  0.18064934643E+02  0.50528858267E+02  0.29999995188E+02 0.  0.
        -12    1    1    2    0    0  0.11904398050E+02  0.34425415755E+02 -0.18064934643E+02  0.40659141733E+02  0.00000000000E+00 0.  1.
         11    1    3    3    0    0 -0.31024475147E+01 -0.18353750974E+02  0.52681986277E+01  0.19345264858E+02  0.51100000000E-03 0. -1.
        -11    1    3    3    0    0 -0.44792078845E+01 -0.61257329237E+01  0.17717823270E+02  0.19274573117E+02  0.51100000000E-03 0.  1.
         12    1    3    3    0    0 -0.43227426511E+01 -0.99459318572E+01 -0.49210872554E+01  0.11909020292E+02  0.00000000000E+00 0. -1.
</event>
<event>
 7    1  0.5441610E-013  0.5052890E+02  0.7816164E-02  0.1300439E+00
        -11   -1    0    0    0    0  0.00000000000E+00  0.00000000000E+00  0.45593999997E+02  0.45594000000E+02  0.51100000000E-03 0. -1.
         11   -1    0    0    0    0 -0.00000000000E+00 -0.00000000000E+00 -0.45593999997E+02  0.45594000000E+02  0.51100000000E-03 0.  1.
    9900012    2    1    2    0    0  0.94889427338E+01 -0.39128023248E+02  0.56674661149E+01  0.50528900039E+02  0.30000122157E+02 0.  0.
        -12    1    1    2    0    0 -0.94889427338E+01  0.39128023248E+02 -0.56674661149E+01  0.40659099961E+02  0.00000000000E+00 0.  1.
         11    1    3    3    0    0 -0.15721466417E+01 -0.59036177368E+01 -0.52972531017E+01  0.80861139078E+01  0.51100000000E-03 0. -1.
        -11    1    3    3    0    0  0.12948714213E+02 -0.13709322779E+02 -0.19607357967E+01  0.18959409694E+02  0.51100000000E-03 0.  1.
        -12    1    3    3    0    0 -0.18876248374E+01 -0.19515082732E+02  0.12925455013E+02  0.23483376437E+02  0.00000000000E+00 0.  1.
</event>
<event>
 7    1  0.5441610E-013  0.5052886E+02  0.7816164E-02  0.1300439E+00
        -11   -1    0    0    0    0  0.00000000000E+00  0.00000000000E+00  0.45593999997E+02  0.45594000000E+02  0.51100000000E-03 0.  1.
         11   -1    0    0    0    0 -0.00000000000E+00 -0.00000000000E+00 -0.45593999997E+02  0.45594000000E+02  0.51100000000E-03 0. -1.
    9900012    2    1    2    0    0 -0.17120818791E+02  0.24604586774E+02 -0.27471027638E+02  0.50528862209E+02  0.30000007171E+02 0.  0.
        -12    1    1    2    0    0  0.17120818791E+02 -0.24604586774E+02  0.27471027638E+02  0.40659137791E+02  0.00000000000E+00 0.  1.
         11    1    3    3    0    0 -0.17213971420E+02  0.16210037175E+02 -0.25192110164E+02  0.34550376728E+02  0.51100000000E-03 0. -1.
        -11    1    3    3    0    0 -0.38393133052E+01  0.45881442838E+01 -0.66713282136E+01  0.89609159698E+01  0.51100000000E-03 0.  1.
        -12    1    3    3    0    0  0.39324659348E+01  0.38064053145E+01  0.43924107390E+01  0.70175695113E+01  0.00000000000E+00 0.  1.
</event>
<event>
 7    1  0.5441610E-013  0.5052887E+02  0.7816164E-02  0.1300439E+00
        -11   -1    0    0    0    0  0.00000000000E+00  0.00000000000E+00  0.45593999997E+02  0.45594000000E+02  0.51100000000E-03 0.  1.
         11   -1    0    0    0    0 -0.00000000000E+00 -0.00000000000E+00 -0.45593999997E+02  0.45594000000E+02  0.51100000000E-03 0. -1.
    9900012    2    1    2    0    0 -0.31708440641E+02 -0.24236147107E+02  0.77684299744E+01  0.50528873856E+02  0.30000042573E+02 0.  0.
        -12    1    1    2    0    0  0.31708440641E+02  0.24236147107E+02 -0.77684299744E+01  0.40659126144E+02  0.00000000000E+00 0.  1.
         11    1    3    3    0    0  0.20491745108E+01 -0.19257780968E+00 -0.37817556091E+00  0.20926584539E+01  0.51100000000E-03 0. -1.
        -11    1    3    3    0    0  0.28282213362E+01  0.46275018882E+00 -0.16746545903E+01  0.33192532174E+01  0.51100000000E-03 0.  1.
         12    1    3    3    0    0 -0.36585836488E+02 -0.24506319486E+02  0.98212601256E+01  0.45116962185E+02  0.00000000000E+00 0. -1.
</event>
<event>
 7    1  0.5441610E-013  0.5052886E+02  0.7816164E-02  0.1300439E+00
        -11   -1    0    0    0    0  0.00000000000E+00  0.00000000000E+00  0.45593999997E+02  0.45594000000E+02  0.51100000000E-03 0.  1.
         11   -1    0    0    0    0 -0.00000000000E+00 -0.00000000000E+00 -0.45593999997E+02  0.45594000000E+02  0.51100000000E-03 0. -1.
    9900012    2    1    2    0    0 -0.97793709554E+01  0.18828655489E+02 -0.34684455599E+02  0.50528858051E+02  0.29999994533E+02 0.  0.
        -12    1    1    2    0    0  0.97793709554E+01 -0.18828655489E+02  0.34684455599E+02  0.40659141949E+02  0.00000000000E+00 0.  1.
         11    1    3    3    0    0 -0.51024025663E+01  0.41113666794E+01  0.24761705531E+01  0.70049460234E+01  0.51100000000E-03 0. -1.
        -11    1    3    3    0    0 -0.51866483233E+01 -0.20821355264E+01 -0.12358314027E+02  0.13563352647E+02  0.51100000000E-03 0.  1.
         12    1    3    3    0    0  0.50967993423E+00  0.16799424336E+02 -0.24802312125E+02  0.29960559381E+02  0.00000000000E+00 0. -1.
</event>
<event>
 7    1  0.5441610E-013  0.5052885E+02  0.7816164E-02  0.1300439E+00
        -11   -1    0    0    0    0  0.00000000000E+00  0.00000000000E+00  0.45593999997E+02  0.45594000000E+02  0.51100000000E-03 0.  1.
         11   -1    0    0    0    0 -0.00000000000E+00 -0.00000000000E+00 -0.45593999997E+02  0.45594000000E+02  0.51100000000E-03 0. -1.
    9900012    2    1    2    0    0  0.31989263439E+01  0.62139724750E+01 -0.40053961650E+02  0.50528850630E+02  0.29999971974E+02 0.  0.
        -12    1    1    2    0    0 -0.31989263439E+01 -0.62139724750E+01  0.40053961650E+02  0.40659149370E+02  0.00000000000E+00 0.  1.
         11    1    3    3    0    0  0.78413640842E+01  0.18688152273E+00 -0.77109004285E+01  0.10999086375E+02  0.51100000000E-03 0. -1.
        -11    1    3    3    0    0  0.76559608771E+01  0.36320111796E+00 -0.53998605860E+01  0.93757211249E+01  0.51100000000E-03 0.  1.
         12    1    3    3    0    0 -0.12298398617E+02  0.56638898343E+01 -0.26943200635E+02  0.30154043130E+02  0.00000000000E+00 0. -1.
</event>
<event>
 7    1  0.5441610E-013  0.5052884E+02  0.7816164E-02  0.1300439E+00
        -11   -1    0    0    0    0  0.00000000000E+00  0.00000000000E+00  0.45593999997E+02  0.45594000000E+02  0.51100000000E-03 0. -1.
         11   -1    0    0    0    0 -0.00000000000E+00 -0.00000000000E+00 -0.45593999997E+02  0.45594000000E+02  0.51100000000E-03 0.  1.
    9900012    2    1    2    0    0  0.21482395196E+01  0.15067178553E+02  0.37703215784E+02  0.50528840109E+02  0.29999939995E+02 0.  0.
        -12    1    1    2    0    0 -0.21482395196E+01 -0.15067178553E+02 -0.37703215784E+02  0.40659159891E+02  0.00000000000E+00 0.  1.
         11    1    3    3    0    0  0.18044765026E+00 -0.35993048832E+01  0.22096431174E+01  0.42273017356E+01  0.51100000000E-03 0. -1.
        -11    1    3    3    0    0  0.92473622048E+01  0.51642619599E+01  0.26456440217E+02  0.28497833928E+02  0.51100000000E-03 0.  1.
         12    1    3    3    0    0 -0.72795703354E+01  0.13502221477E+02  0.90371324492E+01  0.17803704445E+02  0.00000000000E+00 0. -1.
</event>
<event>
 7    1  0.5441610E-013  0.5052886E+02  0.7816164E-02  0.1300439E+00
        -11   -1    0    0    0    0  0.00000000000E+00  0.00000000000E+00  0.45593999997E+02  0.45594000000E+02  0.51100000000E-03 0.  1.
         11   -1    0    0    0    0 -0.00000000000E+00 -0.00000000000E+00 -0.45593999997E+02  0.45594000000E+02  0.51100000000E-03 0. -1.
    9900012    2    1    2    0    0  0.26401884615E+02 -0.15066184275E+02 -0.27002150518E+02  0.50528861391E+02  0.30000004684E+02 0.  0.
        -12    1    1    2    0    0 -0.26401884615E+02  0.15066184275E+02  0.27002150518E+02  0.40659138609E+02  0.00000000000E+00 0.  1.
         11    1    3    3    0    0  0.20636233667E+01  0.46195863641E+01 -0.20797350558E+01  0.54703215388E+01  0.51100000000E-03 0. -1.
        -11    1    3    3    0    0  0.26765852404E+01 -0.91835129113E+01  0.10764277522E+01  0.96259916325E+01  0.51100000000E-03 0.  1.
         12    1    3    3    0    0  0.21661676008E+02 -0.10502257728E+02 -0.25998843215E+02  0.35432548220E+02  0.00000000000E+00 0. -1.
</event>
<event>
 7    1  0.5441610E-013  0.5052885E+02  0.7816164E-02  0.1300439E+00
        -11   -1    0    0    0    0  0.00000000000E+00  0.00000000000E+00  0.45593999997E+02  0.45594000000E+02  0.51100000000E-03 0.  1.
         11   -1    0    0    0    0 -0.00000000000E+00 -0.00000000000E+00 -0.45593999997E+02  0.45594000000E+02  0.51100000000E-03 0. -1.
    9900012    2    1    2    0    0 -0.24368771520E+01  0.16829897240E+02 -0.36932136621E+02  0.50528849410E+02  0.29999968266E+02 0.  0.
        -12    1    1    2    0    0  0.24368771520E+01 -0.16829897240E+02  0.36932136621E+02  0.40659150590E+02  0.00000000000E+00 0.  1.
         11    1    3    3    0    0 -0.65252753573E+01  0.50441928529E+01 -0.28947160063E+01  0.87408512769E+01  0.51100000000E-03 0. -1.
        -11    1    3    3    0    0  0.18918991749E+01 -0.53438595995E+01 -0.33772934030E+01  0.65986535671E+01  0.51100000000E-03 0.  1.
         12    1    3    3    0    0  0.21964990304E+01  0.17129563987E+02 -0.30660127211E+02  0.35189344566E+02  0.00000000000E+00 0. -1.
</event>
<event>
 7    1  0.5441610E-013  0.5052886E+02  0.7816164E-02  0.1300439E+00
        -11   -1    0    0    0    0  0.00000000000E+00  0.00000000000E+00  0.45593999997E+02  0.45594000000E+02  0.51100000000E-03 0.  1.
         11   -1    0    0    0    0 -0.00000000000E+00 -0.00000000000E+00 -0.45593999997E+02  0.45594000000E+02  0.51100000000E-03 0. -1.
    9900012    2    1    2    0    0  0.30108395588E+02  0.27315971564E+02  0.69859644887E+00  0.50528858047E+02  0.29999994518E+02 0.  0.
        -12    1    1    2    0    0 -0.30108395588E+02 -0.27315971564E+02 -0.69859644887E+00  0.40659141953E+02  0.00000000000E+00 0.  1.
         11    1    3    3    0    0  0.22915959032E+01  0.90347795424E+01  0.10349097848E+02  0.13927759320E+02  0.51100000000E-03 0. -1.
        -11    1    3    3    0    0  0.12369865235E+00  0.29899813476E+01  0.11025239271E+01  0.31891768666E+01  0.51100000000E-03 0.  1.
         12    1    3    3    0    0  0.27693101033E+02  0.15291210674E+02 -0.10753025326E+02  0.33411921860E+02  0.00000000000E+00 0. -1.
</event>
<event>
 7    1  0.5441610E-013  0.5052884E+02  0.7816164E-02  0.1300439E+00
        -11   -1    0    0    0    0  0.00000000000E+00  0.00000000000E+00  0.45593999997E+02  0.45594000000E+02  0.51100000000E-03 0. -1.
         11   -1    0    0    0    0 -0.00000000000E+00 -0.00000000000E+00 -0.45593999997E+02  0.45594000000E+02  0.51100000000E-03 0.  1.
    9900012    2    1    2    0    0  0.34427684507E+02  0.20588357502E+02 -0.66348309923E+01  0.50528844728E+02  0.29999954034E+02 0.  0.
        -12    1    1    2    0    0 -0.34427684507E+02 -0.20588357502E+02  0.66348309923E+01  0.40659155272E+02  0.00000000000E+00 0.  1.
         11    1    3    3    0    0  0.16390466854E+01 -0.41246981775E+01 -0.52297176351E+01  0.68592678834E+01  0.51100000000E-03 0. -1.
        -11    1    3    3    0    0  0.61377111249E+01  0.10117184015E+02 -0.54270541084E+01  0.13018518610E+02  0.51100000000E-03 0.  1.
         12    1    3    3    0    0  0.26650926697E+02  0.14595871665E+02  0.40219407511E+01  0.30651058234E+02  0.00000000000E+00 0. -1.
</event>
<event>
 7    1  0.5441610E-013  0.5052886E+02  0.7816164E-02  0.1300439E+00
        -11   -1    0    0    0    0  0.00000000000E+00  0.00000000000E+00  0.45593999997E+02  0.45594000000E+02  0.51100000000E-03 0.  1.
         11   -1    0    0    0    0 -0.00000000000E+00 -0.00000000000E+00 -0.45593999997E+02  0.45594000000E+02  0.51100000000E-03 0. -1.
    9900012    2    1    2    0    0 -0.12207756163E+02 -0.25786335213E+02 -0.28968970508E+02  0.50528860234E+02  0.30000001168E+02 0.  0.
        -12    1    1    2    0    0  0.12207756163E+02  0.25786335213E+02  0.28968970508E+02  0.40659139766E+02  0.00000000000E+00 0.  1.
         11    1    3    3    0    0 -0.23157592227E+01  0.29348949791E+01 -0.14469811475E+02  0.14944958806E+02  0.51100000000E-03 0. -1.
        -11    1    3    3    0    0 -0.10509365424E+01 -0.37102900207E+01  0.19999183075E+01  0.43440065782E+01  0.51100000000E-03 0.  1.
        -12    1    3    3    0    0 -0.88410603974E+01 -0.25010940171E+02 -0.16499077340E+02  0.31239894850E+02  0.00000000000E+00 0.  1.
</event>
<event>
 7    1  0.5441610E-013  0.5052886E+02  0.7816164E-02  0.1300439E+00
        -11   -1    0    0    0    0  0.00000000000E+00  0.00000000000E+00  0.45593999997E+02  0.45594000000E+02  0.51100000000E-03 0.  1.
         11   -1    0    0    0    0 -0.00000000000E+00 -0.00000000000E+00 -0.45593999997E+02  0.45594000000E+02  0.51100000000E-03 0. -1.
    9900012    2    1    2    0    0  0.14781489388E+02 -0.65559575977E+01 -0.37305400459E+02  0.50528856969E+02  0.29999991244E+02 0.  0.
        -12    1    1    2    0    0 -0.14781489388E+02  0.65559575977E+01  0.37305400459E+02  0.40659143031E+02  0.00000000000E+00 0.  1.
         11    1    3    3    0    0  0.17589162298E+02 -0.10911448825E+02 -0.29699468361E+02  0.36200784066E+02  0.51100000000E-03 0. -1.
        -11    1    3    3    0    0  0.71674239863E+00  0.10708447757E+01  0.26778365463E+01  0.29717397311E+01  0.51100000000E-03 0.  1.
        -12    1    3    3    0    0 -0.35244153089E+01  0.32846464517E+01 -0.10283768645E+02  0.11356333173E+02  0.00000000000E+00 0.  1.
</event>
<event>
 7    1  0.5441610E-013  0.5052883E+02  0.7816164E-02  0.1300439E+00
        -11   -1    0    0    0    0  0.00000000000E+00  0.00000000000E+00  0.45593999997E+02  0.45594000000E+02  0.51100000000E-03 0. -1.
         11   -1    0    0    0    0 -0.00000000000E+00 -0.00000000000E+00 -0.45593999997E+02  0.45594000000E+02  0.51100000000E-03 0.  1.
    9900012    2    1    2    0    0  0.75726766726E+01 -0.36307797303E+02  0.16660332257E+02  0.50528828244E+02  0.29999903930E+02 0.  0.
        -12    1    1    2    0    0 -0.75726766726E+01  0.36307797303E+02 -0.16660332257E+02  0.40659171756E+02  0.00000000000E+00 0.  1.
         11    1    3    3    0    0  0.63982077706E+01 -0.66673079808E+01  0.10314345168E+02  0.13848313070E+02  0.51100000000E-03 0. -1.
        -11    1    3    3    0    0  0.10576243731E+02 -0.12416245679E+02  0.99287483921E+00  0.16340314836E+02  0.51100000000E-03 0.  1.
        -12    1    3    3    0    0 -0.94017748292E+01 -0.17224243643E+02  0.53531122493E+01  0.20340200338E+02  0.00000000000E+00 0.  1.
</event>
<event>
 7    1  0.5441610E-013  0.5052888E+02  0.7816164E-02  0.1300439E+00
        -11   -1    0    0    0    0  0.00000000000E+00  0.00000000000E+00  0.45593999997E+02  0.45594000000E+02  0.51100000000E-03 0.  1.
         11   -1    0    0    0    0 -0.00000000000E+00 -0.00000000000E+00 -0.45593999997E+02  0.45594000000E+02  0.51100000000E-03 0. -1.
    9900012    2    1    2    0    0  0.22411461952E+02  0.33912997872E+02 -0.89386743695E+00  0.50528879861E+02  0.30000060826E+02 0.  0.
        -12    1    1    2    0    0 -0.22411461952E+02 -0.33912997872E+02  0.89386743695E+00  0.40659120139E+02  0.00000000000E+00 0.  1.
         11    1    3    3    0    0  0.21237554824E+02  0.28924113270E+02 -0.71535519447E+01  0.36589771372E+02  0.51100000000E-03 0. -1.
        -11    1    3    3    0    0  0.19961865466E+01  0.43000351816E+01 -0.23301980378E+01  0.52825075909E+01  0.51100000000E-03 0.  1.
        -12    1    3    3    0    0 -0.82227941838E+00  0.68884941984E+00  0.85898825456E+01  0.86566008983E+01  0.00000000000E+00 0.  1.
</event>
<event>
 7    1  0.5441610E-013  0.5052885E+02  0.7816164E-02  0.1300439E+00
        -11   -1    0    0    0    0  0.00000000000E+00  0.00000000000E+00  0.45593999997E+02  0.45594000000E+02  0.51100000000E-03 0.  1.
         11   -1    0    0    0    0 -0.00000000000E+00 -0.00000000000E+00 -0.45593999997E+02  0.45594000000E+02  0.51100000000E-03 0. -1.
    9900012    2    1    2    0    0  0.12999560498E+02 -0.34648157575E+01 -0.38368901919E+02  0.50528853970E+02  0.29999982127E+02 0.  0.
        -12    1    1    2    0    0 -0.12999560498E+02  0.34648157575E+01  0.38368901919E+02  0.40659146030E+02  0.00000000000E+00 0.  1.
         11    1    3    3    0    0  0.41554287360E+01 -0.55061431915E+01 -0.31134694404E+01  0.75682820404E+01  0.51100000000E-03 0. -1.
        -11    1    3    3    0    0  0.11450049388E+02  0.50671837357E+01 -0.68433821053E+01  0.14269262802E+02  0.51100000000E-03 0.  1.
         12    1    3    3    0    0 -0.26059176257E+01 -0.30258563017E+01 -0.28412050374E+02  0.28691309128E+02  0.00000000000E+00 0. -1.
</event>
<event>
 7    1  0.5441610E-013  0.5052888E+02  0.7816164E-02  0.1300439E+00
        -11   -1    0    0    0    0  0.00000000000E+00  0.00000000000E+00  0.45593999997E+02  0.45594000000E+02  0.51100000000E-03 0.  1.
         11   -1    0    0    0    0 -0.00000000000E+00 -0.00000000000E+00 -0.45593999997E+02  0.45594000000E+02  0.51100000000E-03 0. -1.
    9900012    2    1    2    0    0  0.18586518812E+02  0.26109458432E+02 -0.25020022031E+02  0.50528880437E+02  0.30000062577E+02 0.  0.
        -12    1    1    2    0    0 -0.18586518812E+02 -0.26109458432E+02  0.25020022031E+02  0.40659119563E+02  0.00000000000E+00 0.  1.
         11    1    3    3    0    0  0.51252523268E+01  0.18103854306E+01 -0.15708423585E+01  0.56580255211E+01  0.51100000000E-03 0. -1.
        -11    1    3    3    0    0  0.21005558753E+02  0.21535775230E+02 -0.16901497750E+02  0.34506285511E+02  0.51100000000E-03 0.  1.
        -12    1    3    3    0    0 -0.75442922680E+01  0.27632977715E+01 -0.65476819226E+01  0.10364569405E+02  0.00000000000E+00 0.  1.
</event>
<event>
 7    1  0.5441610E-013  0.5052886E+02  0.7816164E-02  0.1300439E+00
        -11   -1    0    0    0    0  0.00000000000E+00  0.00000000000E+00  0.45593999997E+02  0.45594000000E+02  0.51100000000E-03 0.  1.
         11   -1    0    0    0    0 -0.00000000000E+00 -0.00000000000E+00 -0.45593999997E+02  0.45594000000E+02  0.51100000000E-03 0. -1.
    9900012    2    1    2    0    0 -0.10152633474E+02  0.37321407425E+02 -0.12538022843E+02  0.50528862829E+02  0.30000009056E+02 0.  0.
        -12    1    1    2    0    0  0.10152633474E+02 -0.37321407425E+02  0.12538022843E+02  0.40659137171E+02  0.00000000000E+00 0.  1.
         11    1    3    3    0    0  0.13069225592E+01  0.25776828147E+02 -0.58209435031E+00  0.25816501506E+02  0.51100000000E-03 0. -1.
        -11    1    3    3    0    0  0.13330003860E+01 -0.59017794743E+00 -0.58868875531E+01  0.60647048867E+01  0.51100000000E-03 0.  1.
        -12    1    3    3    0    0 -0.12792556419E+02  0.12134757226E+02 -0.60690409393E+01  0.18647656437E+02  0.00000000000E+00 0.  1.
</event>
<event>
 7    1  0.5441610E-013  0.5052886E+02  0.7816164E-02  0.1300439E+00
        -11   -1    0    0    0    0  0.00000000000E+00  0.00000000000E+00  0.45593999997E+02  0.45594000000E+02  0.51100000000E-03 0. -1.
         11   -1    0    0    0    0 -0.00000000000E+00 -0.00000000000E+00 -0.45593999997E+02  0.45594000000E+02  0.51100000000E-03 0.  1.
    9900012    2    1    2    0    0  0.35615194216E+02  0.15268397615E+02  0.12312574014E+02  0.50528861991E+02  0.30000006508E+02 0.  0.
        -12    1    1    2    0    0 -0.35615194216E+02 -0.15268397615E+02 -0.12312574014E+02  0.40659138009E+02  0.00000000000E+00 0.  1.
         11    1    3    3    0    0  0.30134486531E+02  0.47414183675E+00  0.26266328550E+00  0.30139360996E+02  0.51100000000E-03 0.  1.
        -11    1    3    3    0    0  0.28598700158E+01  0.68826041643E+01  0.85704939548E+01  0.11357925140E+02  0.51100000000E-03 0. -1.
        -12    1    3    3    0    0  0.26208376691E+01  0.79116516140E+01  0.34794167742E+01  0.90315758557E+01  0.00000000000E+00 0.  1.
</event>
<event>
 7    1  0.5441610E-013  0.5052886E+02  0.7816164E-02  0.1300439E+00
        -11   -1    0    0    0    0  0.00000000000E+00  0.00000000000E+00  0.45593999997E+02  0.45594000000E+02  0.51100000000E-03 0.  1.
         11   -1    0    0    0    0 -0.00000000000E+00 -0.00000000000E+00 -0.45593999997E+02  0.45594000000E+02  0.51100000000E-03 0. -1.
    9900012    2    1    2    0    0  0.91397431593E+01 -0.15761470267E+02 -0.36348410117E+02  0.50528858740E+02  0.29999996627E+02 0.  0.
        -12    1    1    2    0    0 -0.91397431593E+01  0.15761470267E+02  0.36348410117E+02  0.40659141260E+02  0.00000000000E+00 0.  1.
         11    1    3    3    0    0  0.10841945607E+01  0.31958629317E+00 -0.69321824981E+00  0.13259581619E+01  0.51100000000E-03 0. -1.
        -11    1    3    3    0    0  0.17335942165E+01  0.26053579979E+01 -0.27790398657E+02  0.27966041854E+02  0.51100000000E-03 0.  1.
        -12    1    3    3    0    0  0.63219543821E+01 -0.18686414558E+02 -0.78647932094E+01  0.21236858724E+02  0.00000000000E+00 0.  1.
</event>
<event>
 7    1  0.5441610E-013  0.5052886E+02  0.7816164E-02  0.1300439E+00
        -11   -1    0    0    0    0  0.00000000000E+00  0.00000000000E+00  0.45593999997E+02  0.45594000000E+02  0.51100000000E-03 0.  1.
         11   -1    0    0    0    0 -0.00000000000E+00 -0.00000000000E+00 -0.45593999997E+02  0.45594000000E+02  0.51100000000E-03 0. -1.
    9900012    2    1    2    0    0  0.13522081288E+01 -0.10404828001E+02 -0.39282013916E+02  0.50528861668E+02  0.30000005527E+02 0.  0.
        -12    1    1    2    0    0 -0.13522081288E+01  0.10404828001E+02  0.39282013916E+02  0.40659138332E+02  0.00000000000E+00 0.  1.
         11    1    3    3    0    0  0.68858508319E+01  0.98550950583E+00 -0.12441797572E+02  0.14254279980E+02  0.51100000000E-03 0. -1.
        -11    1    3    3    0    0 -0.66785714038E+01 -0.19409800048E+01  0.83818048032E+00  0.70052313419E+01  0.51100000000E-03 0.  1.
         12    1    3    3    0    0  0.11449287007E+01 -0.94493575022E+01 -0.27678396825E+02  0.29269350347E+02  0.00000000000E+00 0. -1.
</event>
<event>
 7    1  0.5441610E-013  0.5052886E+02  0.7816164E-02  0.1300439E+00
        -11   -1    0    0    0    0  0.00000000000E+00  0.00000000000E+00  0.45593999997E+02  0.45594000000E+02  0.51100000000E-03 0.  1.
         11   -1    0    0    0    0 -0.00000000000E+00 -0.00000000000E+00 -0.45593999997E+02  0.45594000000E+02  0.51100000000E-03 0. -1.
    9900012    2    1    2    0    0  0.33910094573E+02 -0.21220054517E+02 -0.72787720462E+01  0.50528858959E+02  0.29999997293E+02 0.  0.
        -12    1    1    2    0    0 -0.33910094573E+02  0.21220054517E+02  0.72787720462E+01  0.40659141041E+02  0.00000000000E+00 0.  1.
         11    1    3    3    0    0  0.16989101404E+01 -0.59962890711E+01 -0.79327081157E+01  0.10088093804E+02  0.51100000000E-03 0. -1.
        -11    1    3    3    0    0 -0.21330407985E+01 -0.35669878481E+01  0.35182760833E+00  0.41709768980E+01  0.51100000000E-03 0.  1.
         12    1    3    3    0    0  0.34344225231E+02 -0.11656777597E+02  0.30210846117E+00  0.36269788257E+02  0.00000000000E+00 0. -1.
</event>
<event>
 7    1  0.5441610E-013  0.5052885E+02  0.7816164E-02  0.1300439E+00
        -11   -1    0    0    0    0  0.00000000000E+00  0.00000000000E+00  0.45593999997E+02  0.45594000000E+02  0.51100000000E-03 0. -1.
         11   -1    0    0    0    0 -0.00000000000E+00 -0.00000000000E+00 -0.45593999997E+02  0.45594000000E+02  0.51100000000E-03 0.  1.
    9900012    2    1    2    0    0 -0.26841949270E+02  0.29441290797E+02  0.81170798473E+01  0.50528845685E+02  0.29999956943E+02 0.  0.
        -12    1    1    2    0    0  0.26841949270E+02 -0.29441290797E+02 -0.81170798473E+01  0.40659154315E+02  0.00000000000E+00 0.  1.
         11    1    3    3    0    0  0.57901685724E-01  0.97176922522E+01  0.21874575694E+01  0.99610173272E+01  0.51100000000E-03 0. -1.
        -11    1    3    3    0    0 -0.18835816716E+02  0.23995848639E+02  0.72278245464E+01  0.31350122667E+02  0.51100000000E-03 0.  1.
        -12    1    3    3    0    0 -0.80640342390E+01 -0.42722500940E+01 -0.12982022684E+01  0.92177056909E+01  0.00000000000E+00 0.  1.
</event>
<event>
 7    1  0.6772847E-013  0.5052886E+02  0.7816164E-02  0.1300439E+00
        -11   -1    0    0    0    0  0.00000000000E+00  0.00000000000E+00  0.45593999997E+02  0.45594000000E+02  0.51100000000E-03 0.  1.
         11   -1    0    0    0    0 -0.00000000000E+00 -0.00000000000E+00 -0.45593999997E+02  0.45594000000E+02  0.51100000000E-03 0. -1.
    9900012    2    1    2    0    0 -0.28383360007E+02 -0.19317442860E+01 -0.29048558486E+02  0.50528861895E+02  0.30000006217E+02 0.  0.
        -12    1    1    2    0    0  0.28383360007E+02  0.19317442860E+01  0.29048558486E+02  0.40659138105E+02  0.00000000000E+00 0.  1.
         11    1    3    3    0    0 -0.19040437173E+02 -0.17118014182E+01 -0.16093179447E+02  0.24989176393E+02  0.51100000000E-03 0. -1.
        -11    1    3    3    0    0 -0.11920433314E+02 -0.28047089222E+01 -0.17390084120E+00  0.12247177809E+02  0.51100000000E-03 0.  1.
        -12    1    3    3    0    0  0.25775104798E+01  0.25847660543E+01 -0.12781478198E+02  0.13292507693E+02  0.00000000000E+00 0.  1.
</event>
<event>
 7    1  0.5441610E-013  0.5052889E+02  0.7816164E-02  0.1300439E+00
        -11   -1    0    0    0    0  0.00000000000E+00  0.00000000000E+00  0.45593999997E+02  0.45594000000E+02  0.51100000000E-03 0. -1.
         11   -1    0    0    0    0 -0.00000000000E+00 -0.00000000000E+00 -0.45593999997E+02  0.45594000000E+02  0.51100000000E-03 0.  1.
    9900012    2    1    2    0    0  0.15919382889E+02 -0.27892500552E+02  0.24934814674E+02  0.50528888826E+02  0.30000088075E+02 0.  0.
        -12    1    1    2    0    0 -0.15919382889E+02  0.27892500552E+02 -0.24934814674E+02  0.40659111174E+02  0.00000000000E+00 0.  1.
         11    1    3    3    0    0 -0.31242343686E+01 -0.56933162495E+01  0.81990396302E+00  0.65457568757E+01  0.51100000000E-03 0. -1.
        -11    1    3    3    0    0 -0.14484749060E+01 -0.78026029744E+01 -0.15919346164E+01  0.80940069689E+01  0.51100000000E-03 0.  1.
         12    1    3    3    0    0  0.20492092164E+02 -0.14396581328E+02  0.25706845328E+02  0.35889124981E+02  0.00000000000E+00 0. -1.
</event>
<event>
 7    1  0.5441610E-013  0.5052887E+02  0.7816164E-02  0.1300439E+00
        -11   -1    0    0    0    0  0.00000000000E+00  0.00000000000E+00  0.45593999997E+02  0.45594000000E+02  0.51100000000E-03 0. -1.
         11   -1    0    0    0    0 -0.00000000000E+00 -0.00000000000E+00 -0.45593999997E+02  0.45594000000E+02  0.51100000000E-03 0.  1.
    9900012    2    1    2    0    0  0.28029185332E+01  0.36173656931E+02  0.18351440487E+02  0.50528866020E+02  0.30000018754E+02 0.  0.
        -12    1    1    2    0    0 -0.28029185332E+01 -0.36173656931E+02 -0.18351440487E+02  0.40659133980E+02  0.00000000000E+00 0.  1.
         11    1    3    3    0    0  0.96678284743E+00  0.27021215998E+02  0.13936004414E+02  0.30418629199E+02  0.51100000000E-03 0. -1.
        -11    1    3    3    0    0 -0.13274893335E+01  0.13863668033E+02  0.35214401849E+01  0.14365377144E+02  0.51100000000E-03 0.  1.
        -12    1    3    3    0    0  0.31636250193E+01 -0.47112271002E+01  0.89399588803E+00  0.57448596763E+01  0.00000000000E+00 0.  1.
</event>
<event>
 7    1  0.5441610E-013  0.5052877E+02  0.7816164E-02  0.1300439E+00
        -11   -1    0    0    0    0  0.00000000000E+00  0.00000000000E+00  0.45593999997E+02  0.45594000000E+02  0.51100000000E-03 0. -1.
         11   -1    0    0    0    0 -0.00000000000E+00 -0.00000000000E+00 -0.45593999997E+02  0.45594000000E+02  0.51100000000E-03 0.  1.
    9900012    2    1    2    0    0  0.16322650390E+02  0.22514637079E+02  0.29662018578E+02  0.50528768027E+02  0.29999720894E+02 0.  0.
        -12    1    1    2    0    0 -0.16322650390E+02 -0.22514637079E+02 -0.29662018578E+02  0.40659231973E+02  0.00000000000E+00 0.  1.
         11    1    3    3    0    0  0.11809061399E+02  0.11883699822E+01  0.12856308555E+02  0.17497166178E+02  0.51100000000E-03 0. -1.
        -11    1    3    3    0    0  0.45001377773E+01  0.17097072261E+01 -0.25719920958E+01  0.54579742044E+01  0.51100000000E-03 0.  1.
         12    1    3    3    0    0  0.13451213133E-01  0.19616559870E+02  0.19377702119E+02  0.27573627645E+02  0.00000000000E+00 0. -1.
</event>
<event>
 7    1  0.5441610E-013  0.5052885E+02  0.7816164E-02  0.1300439E+00
        -11   -1    0    0    0    0  0.00000000000E+00  0.00000000000E+00  0.45593999997E+02  0.45594000000E+02  0.51100000000E-03 0. -1.
         11   -1    0    0    0    0 -0.00000000000E+00 -0.00000000000E+00 -0.45593999997E+02  0.45594000000E+02  0.51100000000E-03 0.  1.
    9900012    2    1    2    0    0  0.38935754580E+02  0.11702202248E+02 -0.48170669549E+00  0.50528848958E+02  0.29999966891E+02 0.  0.
        -12    1    1    2    0    0 -0.38935754580E+02 -0.11702202248E+02  0.48170669549E+00  0.40659151042E+02  0.00000000000E+00 0.  1.
         11    1    3    3    0    0  0.87703372626E+01 -0.58627761488E+00  0.28144209490E+01  0.92294909221E+01  0.51100000000E-03 0. -1.
        -11    1    3    3    0    0 -0.31829747301E+01 -0.29098650524E+01  0.91872494364E+00  0.44093875469E+01  0.51100000000E-03 0.  1.
        -12    1    3    3    0    0  0.33348392047E+02  0.15198344916E+02 -0.42148525881E+01  0.36889970489E+02  0.00000000000E+00 0.  1.
</event>
<event>
 7    1  0.5441610E-013  0.5052886E+02  0.7816164E-02  0.1300439E+00
        -11   -1    0    0    0    0  0.00000000000E+00  0.00000000000E+00  0.45593999997E+02  0.45594000000E+02  0.51100000000E-03 0. -1.
         11   -1    0    0    0    0 -0.00000000000E+00 -0.00000000000E+00 -0.45593999997E+02  0.45594000000E+02  0.51100000000E-03 0.  1.
    9900012    2    1    2    0    0 -0.21377262302E+01  0.34492858778E+02  0.21420524660E+02  0.50528855189E+02  0.29999985832E+02 0.  0.
        -12    1    1    2    0    0  0.21377262302E+01 -0.34492858778E+02 -0.21420524660E+02  0.40659144811E+02  0.00000000000E+00 0.  1.
         11    1    3    3    0    0  0.84729621742E+01  0.16599068005E+02  0.46203182241E+01  0.19200715804E+02  0.51100000000E-03 0. -1.
        -11    1    3    3    0    0 -0.18872842672E+01  0.17486222855E+02  0.97851013859E+01  0.20126550649E+02  0.51100000000E-03 0.  1.
        -12    1    3    3    0    0 -0.87234041372E+01  0.40756791790E+00  0.70151050497E+01  0.11201588736E+02  0.00000000000E+00 0.  1.
</event>
<event>
 7    1  0.5441610E-013  0.5052885E+02  0.7816164E-02  0.1300439E+00
        -11   -1    0    0    0    0  0.00000000000E+00  0.00000000000E+00  0.45593999997E+02  0.45594000000E+02  0.51100000000E-03 0. -1.
         11   -1    0    0    0    0 -0.00000000000E+00 -0.00000000000E+00 -0.45593999997E+02  0.45594000000E+02  0.51100000000E-03 0.  1.
    9900012    2    1    2    0    0  0.89004051057E+00 -0.33283961075E+02  0.23335646395E+02  0.50528848144E+02  0.29999964419E+02 0.  0.
        -12    1    1    2    0    0 -0.89004051057E+00  0.33283961075E+02 -0.23335646395E+02  0.40659151856E+02  0.00000000000E+00 0.  1.
         11    1    3    3    0    0 -0.16482082100E+01 -0.23976058997E+02  0.12335029843E+02  0.27013347753E+02  0.51100000000E-03 0. -1.
        -11    1    3    3    0    0  0.10457851089E+02 -0.65013799521E+01  0.74627191207E+01  0.14398846052E+02  0.51100000000E-03 0.  1.
        -12    1    3    3    0    0 -0.79196023685E+01 -0.28065221262E+01  0.35378974313E+01  0.91166543399E+01  0.00000000000E+00 0.  1.
</event>
<event>
 7    1  0.5441610E-013  0.5052888E+02  0.7816164E-02  0.1300439E+00
        -11   -1    0    0    0    0  0.00000000000E+00  0.00000000000E+00  0.45593999997E+02  0.45594000000E+02  0.51100000000E-03 0. -1.
         11   -1    0    0    0    0 -0.00000000000E+00 -0.00000000000E+00 -0.45593999997E+02  0.45594000000E+02  0.51100000000E-03 0.  1.
    9900012    2    1    2    0    0  0.60165691305E+00  0.29864556184E+02  0.27584603748E+02  0.50528879608E+02  0.30000060056E+02 0.  0.
        -12    1    1    2    0    0 -0.60165691305E+00 -0.29864556184E+02 -0.27584603748E+02  0.40659120392E+02  0.00000000000E+00 0.  1.
         11    1    3    3    0    0  0.76032960745E+01  0.53386846834E+01  0.25286747065E+01  0.96283883064E+01  0.51100000000E-03 0. -1.
        -11    1    3    3    0    0  0.66843631679E+01  0.12152360742E+02  0.10313758122E+02  0.17283928645E+02  0.51100000000E-03 0.  1.
        -12    1    3    3    0    0 -0.13686002329E+02  0.12373510759E+02  0.14742170920E+02  0.23616562656E+02  0.00000000000E+00 0.  1.
</event>
<event>
 7    1  0.5441610E-013  0.5052886E+02  0.7816164E-02  0.1300439E+00
        -11   -1    0    0    0    0  0.00000000000E+00  0.00000000000E+00  0.45593999997E+02  0.45594000000E+02  0.51100000000E-03 0.  1.
         11   -1    0    0    0    0 -0.00000000000E+00 -0.00000000000E+00 -0.45593999997E+02  0.45594000000E+02  0.51100000000E-03 0. -1.
    9900012    2    1    2    0    0 -0.15702347006E+02  0.53342837244E+01 -0.37123411779E+02  0.50528856053E+02  0.29999988459E+02 0.  0.
        -12    1    1    2    0    0  0.15702347006E+02 -0.53342837244E+01  0.37123411779E+02  0.40659143947E+02  0.00000000000E+00 0.  1.
         11    1    3    3    0    0 -0.60921783216E+00  0.21574466474E+00 -0.28613592689E+02  0.28620890604E+02  0.51100000000E-03 0. -1.
        -11    1    3    3    0    0  0.18852034440E+01 -0.77926943617E+00 -0.43840801546E-01  0.20403860312E+01  0.51100000000E-03 0.  1.
        -12    1    3    3    0    0 -0.16978332618E+02  0.58978084958E+01 -0.84659782888E+01  0.19867579418E+02  0.00000000000E+00 0.  1.
</event>
<event>
 7    1  0.5441610E-013  0.5052886E+02  0.7816164E-02  0.1300439E+00
        -11   -1    0    0    0    0  0.00000000000E+00  0.00000000000E+00  0.45593999997E+02  0.45594000000E+02  0.51100000000E-03 0.  1.
         11   -1    0    0    0    0 -0.00000000000E+00 -0.00000000000E+00 -0.45593999997E+02  0.45594000000E+02  0.51100000000E-03 0. -1.
    9900012    2    1    2    0    0 -0.24577034133E+02  0.30699599668E+02 -0.10328096642E+02  0.50528860723E+02  0.30000002653E+02 0.  0.
        -12    1    1    2    0    0  0.24577034133E+02 -0.30699599668E+02  0.10328096642E+02  0.40659139277E+02  0.00000000000E+00 0.  1.
         11    1    3    3    0    0 -0.53960055861E+01  0.58600716441E+01  0.26124816920E+01  0.83834585233E+01  0.51100000000E-03 0. -1.
        -11    1    3    3    0    0  0.46743910342E+01  0.65386081993E+01 -0.85927485765E+01  0.11765995797E+02  0.51100000000E-03 0.  1.
         12    1    3    3    0    0 -0.23855419581E+02  0.18300919824E+02 -0.43478297580E+01  0.30379406403E+02  0.00000000000E+00 0. -1.
</event>
<event>
 7    1  0.5441610E-013  0.5052884E+02  0.7816164E-02  0.1300439E+00
        -11   -1    0    0    0    0  0.00000000000E+00  0.00000000000E+00  0.45593999997E+02  0.45594000000E+02  0.51100000000E-03 0.  1.
         11   -1    0    0    0    0 -0.00000000000E+00 -0.00000000000E+00 -0.45593999997E+02  0.45594000000E+02  0.51100000000E-03 0. -1.
    9900012    2    1    2    0    0 -0.28951688674E+02  0.20986716017E+02 -0.19352647506E+02  0.50528837543E+02  0.29999932195E+02 0.  0.
        -12    1    1    2    0    0  0.28951688674E+02 -0.20986716017E+02  0.19352647506E+02  0.40659162457E+02  0.00000000000E+00 0.  1.
         11    1    3    3    0    0 -0.15719190330E+02  0.34051640191E+01 -0.31605375871E+01  0.16391372265E+02  0.51100000000E-03 0. -1.
        -11    1    3    3    0    0  0.26024610930E+01  0.50690672226E+01  0.28668514857E+01  0.63786427984E+01  0.51100000000E-03 0.  1.
         12    1    3    3    0    0 -0.15834959437E+02  0.12512484775E+02 -0.19058961405E+02  0.27758822479E+02  0.00000000000E+00 0. -1.
</event>
<event>
 7    1  0.5441610E-013  0.5052886E+02  0.7816164E-02  0.1300439E+00
        -11   -1    0    0    0    0  0.00000000000E+00  0.00000000000E+00  0.45593999997E+02  0.45594000000E+02  0.51100000000E-03 0.  1.
         11   -1    0    0    0    0 -0.00000000000E+00 -0.00000000000E+00 -0.45593999997E+02  0.45594000000E+02  0.51100000000E-03 0. -1.
    9900012    2    1    2    0    0 -0.36619197475E+02 -0.40979402648E+01 -0.17187399197E+02  0.50528862906E+02  0.30000009289E+02 0.  0.
        -12    1    1    2    0    0  0.36619197475E+02  0.40979402648E+01  0.17187399197E+02  0.40659137094E+02  0.00000000000E+00 0.  1.
         11    1    3    3    0    0 -0.10931278779E+02 -0.10222971879E+02 -0.80287990758E+00  0.14988216245E+02  0.51100000000E-03 0.  1.
        -11    1    3    3    0    0 -0.47464863897E+01 -0.23461728584E+01 -0.11163148520E+02  0.12355142462E+02  0.51100000000E-03 0. -1.
         12    1    3    3    0    0 -0.20941432306E+02  0.84712044731E+01 -0.52213707694E+01  0.23185504199E+02  0.00000000000E+00 0. -1.
</event>
<event>
 7    1  0.5441610E-013  0.5052896E+02  0.7816164E-02  0.1300438E+00
        -11   -1    0    0    0    0  0.00000000000E+00  0.00000000000E+00  0.45593999997E+02  0.45594000000E+02  0.51100000000E-03 0.  1.
         11   -1    0    0    0    0 -0.00000000000E+00 -0.00000000000E+00 -0.45593999997E+02  0.45594000000E+02  0.51100000000E-03 0. -1.
    9900012    2    1    2    0    0 -0.88142258796E+01  0.17697216841E+01 -0.39652683066E+02  0.50528957131E+02  0.30000295694E+02 0.  0.
        -12    1    1    2    0    0  0.88142258796E+01 -0.17697216841E+01  0.39652683066E+02  0.40659042869E+02  0.00000000000E+00 0.  1.
         11    1    3    3    0    0 -0.54204156845E+00 -0.32940846725E+01 -0.12213866525E+02  0.12661885272E+02  0.51100000000E-03 0. -1.
        -11    1    3    3    0    0 -0.15901334500E+02 -0.14546969787E+01 -0.18391364617E+02  0.24355920737E+02  0.51100000000E-03 0.  1.
        -12    1    3    3    0    0  0.76291501889E+01  0.65185033353E+01 -0.90474519235E+01  0.13511151122E+02  0.00000000000E+00 0.  1.
</event>
<event>
 7    1  0.5441610E-013  0.5052886E+02  0.7816164E-02  0.1300439E+00
        -11   -1    0    0    0    0  0.00000000000E+00  0.00000000000E+00  0.45593999997E+02  0.45594000000E+02  0.51100000000E-03 0. -1.
         11   -1    0    0    0    0 -0.00000000000E+00 -0.00000000000E+00 -0.45593999997E+02  0.45594000000E+02  0.51100000000E-03 0.  1.
    9900012    2    1    2    0    0 -0.25546626710E+02 -0.27556215712E+02  0.15530316288E+02  0.50528857306E+02  0.29999992267E+02 0.  0.
        -12    1    1    2    0    0  0.25546626710E+02  0.27556215712E+02 -0.15530316288E+02  0.40659142694E+02  0.00000000000E+00 0.  1.
         11    1    3    3    0    0 -0.75989442830E+01  0.16382014857E+01  0.84448651209E+01  0.11477953019E+02  0.51100000000E-03 0. -1.
        -11    1    3    3    0    0 -0.13504882878E+02 -0.64270445284E+01  0.61627375879E+00  0.14968919684E+02  0.51100000000E-03 0.  1.
         12    1    3    3    0    0 -0.44427995494E+01 -0.22767372669E+02  0.64691774078E+01  0.24081984603E+02  0.00000000000E+00 0. -1.
</event>
<event>
 7    1  0.5441610E-013  0.5052888E+02  0.7816164E-02  0.1300439E+00
        -11   -1    0    0    0    0  0.00000000000E+00  0.00000000000E+00  0.45593999997E+02  0.45594000000E+02  0.51100000000E-03 0.  1.
         11   -1    0    0    0    0 -0.00000000000E+00 -0.00000000000E+00 -0.45593999997E+02  0.45594000000E+02  0.51100000000E-03 0. -1.
    9900012    2    1    2    0    0 -0.37461471828E+02 -0.81980980058E+01 -0.13512702898E+02  0.50528882671E+02  0.30000069365E+02 0.  0.
        -12    1    1    2    0    0  0.37461471828E+02  0.81980980058E+01  0.13512702898E+02  0.40659117329E+02  0.00000000000E+00 0.  1.
         11    1    3    3    0    0  0.68540967576E+00 -0.45125538201E+01 -0.36378489562E+01  0.58366834497E+01  0.51100000000E-03 0.  1.
        -11    1    3    3    0    0 -0.10400881071E+02  0.92115829042E-01  0.64889512232E+01  0.12259416814E+02  0.51100000000E-03 0. -1.
        -12    1    3    3    0    0 -0.27746000432E+02 -0.37776600148E+01 -0.16363805165E+02  0.32432782407E+02  0.00000000000E+00 0.  1.
</event>
<event>
 7    1  0.5441610E-013  0.5052878E+02  0.7816164E-02  0.1300439E+00
        -11   -1    0    0    0    0  0.00000000000E+00  0.00000000000E+00  0.45593999997E+02  0.45594000000E+02  0.51100000000E-03 0. -1.
         11   -1    0    0    0    0 -0.00000000000E+00 -0.00000000000E+00 -0.45593999997E+02  0.45594000000E+02  0.51100000000E-03 0.  1.
    9900012    2    1    2    0    0  0.70470857866E+01  0.39972821614E+02 -0.23841482116E+01  0.50528781506E+02  0.29999761864E+02 0.  0.
        -12    1    1    2    0    0 -0.70470857866E+01 -0.39972821614E+02  0.23841482116E+01  0.40659218494E+02  0.00000000000E+00 0.  1.
         11    1    3    3    0    0 -0.60357732471E+01  0.21460833608E+02  0.28460999281E+00  0.22295267232E+02  0.51100000000E-03 0. -1.
        -11    1    3    3    0    0 -0.15161874583E+01 -0.99652896670E+00 -0.34027110587E+01  0.38562076190E+01  0.51100000000E-03 0.  1.
         12    1    3    3    0    0  0.14599046492E+02  0.19508516973E+02  0.73395285433E+00  0.24377306655E+02  0.00000000000E+00 0. -1.
</event>
<event>
 7    1  0.5441610E-013  0.5052886E+02  0.7816164E-02  0.1300439E+00
        -11   -1    0    0    0    0  0.00000000000E+00  0.00000000000E+00  0.45593999997E+02  0.45594000000E+02  0.51100000000E-03 0. -1.
         11   -1    0    0    0    0 -0.00000000000E+00 -0.00000000000E+00 -0.45593999997E+02  0.45594000000E+02  0.51100000000E-03 0.  1.
    9900012    2    1    2    0    0 -0.28484509381E+02 -0.28564548430E+02  0.50857327224E+01  0.50528863524E+02  0.30000011166E+02 0.  0.
        -12    1    1    2    0    0  0.28484509381E+02  0.28564548430E+02 -0.50857327224E+01  0.40659136476E+02  0.00000000000E+00 0.  1.
         11    1    3    3    0    0 -0.35600342993E+01 -0.23097668761E+01  0.48384583214E+01  0.64358019254E+01  0.51100000000E-03 0. -1.
        -11    1    3    3    0    0 -0.58088129563E+01 -0.22944981040E+02  0.48356057796E+01  0.24157763688E+02  0.51100000000E-03 0.  1.
        -12    1    3    3    0    0 -0.19115662125E+02 -0.33098005142E+01 -0.45883313787E+01  0.19935297910E+02  0.00000000000E+00 0.  1.
</event>
<event>
 7    1  0.5441610E-013  0.5052884E+02  0.7816164E-02  0.1300439E+00
        -11   -1    0    0    0    0  0.00000000000E+00  0.00000000000E+00  0.45593999997E+02  0.45594000000E+02  0.51100000000E-03 0.  1.
         11   -1    0    0    0    0 -0.00000000000E+00 -0.00000000000E+00 -0.45593999997E+02  0.45594000000E+02  0.51100000000E-03 0. -1.
    9900012    2    1    2    0    0 -0.18130435523E+02 -0.23374317232E+00 -0.36392306738E+02  0.50528839681E+02  0.29999938696E+02 0.  0.
        -12    1    1    2    0    0  0.18130435523E+02  0.23374317232E+00  0.36392306738E+02  0.40659160319E+02  0.00000000000E+00 0.  1.
         11    1    3    3    0    0  0.13983537826E+01 -0.58402813320E+01 -0.16132048845E+02  0.17213578348E+02  0.51100000000E-03 0. -1.
        -11    1    3    3    0    0  0.92339922223E+00  0.14937323146E+01  0.20979394956E+01  0.27359189936E+01  0.51100000000E-03 0.  1.
        -12    1    3    3    0    0 -0.20452188528E+02  0.41128058450E+01 -0.22358197388E+02  0.30579342340E+02  0.00000000000E+00 0.  1.
</event>
<event>
 7    1  0.5441610E-013  0.5052889E+02  0.7816164E-02  0.1300439E+00
        -11   -1    0    0    0    0  0.00000000000E+00  0.00000000000E+00  0.45593999997E+02  0.45594000000E+02  0.51100000000E-03 0.  1.
         11   -1    0    0    0    0 -0.00000000000E+00 -0.00000000000E+00 -0.45593999997E+02  0.45594000000E+02  0.51100000000E-03 0. -1.
    9900012    2    1    2    0    0  0.85418124424E+01 -0.62893561644E+01 -0.39251049934E+02  0.50528886855E+02  0.30000082085E+02 0.  0.
        -12    1    1    2    0    0 -0.85418124424E+01  0.62893561644E+01  0.39251049934E+02  0.40659113145E+02  0.00000000000E+00 0.  1.
         11    1    3    3    0    0  0.44870367828E+01 -0.25383339295E+01 -0.74933910526E+01  0.90954685397E+01  0.51100000000E-03 0. -1.
        -11    1    3    3    0    0  0.13457769730E+02 -0.82486900368E+01 -0.15507891929E+02  0.22127972473E+02  0.51100000000E-03 0.  1.
         12    1    3    3    0    0 -0.94029940706E+01  0.44976678019E+01 -0.16249766953E+02  0.19305445843E+02  0.00000000000E+00 0. -1.
</event>
<event>
 7    1  0.5441610E-013  0.5052884E+02  0.7816164E-02  0.1300439E+00
        -11   -1    0    0    0    0  0.00000000000E+00  0.00000000000E+00  0.45593999997E+02  0.45594000000E+02  0.51100000000E-03 0.  1.
         11   -1    0    0    0    0 -0.00000000000E+00 -0.00000000000E+00 -0.45593999997E+02  0.45594000000E+02  0.51100000000E-03 0. -1.
    9900012    2    1    2    0    0  0.31950727806E+01 -0.25168967594E+02 -0.31772346634E+02  0.50528838296E+02  0.29999934486E+02 0.  0.
        -12    1    1    2    0    0 -0.31950727806E+01  0.25168967594E+02  0.31772346634E+02  0.40659161704E+02  0.00000000000E+00 0.  1.
         11    1    3    3    0    0 -0.48621374749E-01 -0.79521831227E+01 -0.47067139710E+01  0.92408190720E+01  0.51100000000E-03 0. -1.
        -11    1    3    3    0    0  0.97330776011E+01 -0.17588966595E+02 -0.88812711970E+01  0.21976840624E+02  0.51100000000E-03 0.  1.
         12    1    3    3    0    0 -0.64893834457E+01  0.37218212356E+00 -0.18184361466E+02  0.19311178601E+02  0.00000000000E+00 0. -1.
</event>
<event>
 7    1  0.5441610E-013  0.5052886E+02  0.7816164E-02  0.1300439E+00
        -11   -1    0    0    0    0  0.00000000000E+00  0.00000000000E+00  0.45593999997E+02  0.45594000000E+02  0.51100000000E-03 0. -1.
         11   -1    0    0    0    0 -0.00000000000E+00 -0.00000000000E+00 -0.45593999997E+02  0.45594000000E+02  0.51100000000E-03 0.  1.
    9900012    2    1    2    0    0 -0.22223488972E+02  0.16197746404E+02  0.29948546286E+02  0.50528857420E+02  0.29999992615E+02 0.  0.
        -12    1    1    2    0    0  0.22223488972E+02 -0.16197746404E+02 -0.29948546286E+02  0.40659142580E+02  0.00000000000E+00 0.  1.
         11    1    3    3    0    0 -0.98387058133E+01  0.90206111730E+01  0.15518629512E+02  0.20469475328E+02  0.51100000000E-03 0. -1.
        -11    1    3    3    0    0 -0.11037993982E+02  0.76707960322E+01  0.20116848571E+02  0.24194338585E+02  0.51100000000E-03 0.  1.
        -12    1    3    3    0    0 -0.13467891771E+01 -0.49366080126E+00 -0.56869317968E+01  0.58650435067E+01  0.00000000000E+00 0.  1.
</event>
<event>
 7    1  0.5441610E-013  0.5052882E+02  0.7816164E-02  0.1300439E+00
        -11   -1    0    0    0    0  0.00000000000E+00  0.00000000000E+00  0.45593999997E+02  0.45594000000E+02  0.51100000000E-03 0.  1.
         11   -1    0    0    0    0 -0.00000000000E+00 -0.00000000000E+00 -0.45593999997E+02  0.45594000000E+02  0.51100000000E-03 0. -1.
    9900012    2    1    2    0    0 -0.25497122531E+02  0.31513390949E+02  0.31578607173E+01  0.50528817141E+02  0.29999870182E+02 0.  0.
        -12    1    1    2    0    0  0.25497122531E+02 -0.31513390949E+02 -0.31578607173E+01  0.40659182859E+02  0.00000000000E+00 0.  1.
         11    1    3    3    0    0  0.23881001886E+00 -0.77065842631E+00 -0.36687511860E+01  0.37564185285E+01  0.51100000000E-03 0. -1.
        -11    1    3    3    0    0 -0.17179605002E+02  0.90696508609E+01 -0.38862209320E+01  0.19811615486E+02  0.51100000000E-03 0.  1.
         12    1    3    3    0    0 -0.85563275478E+01  0.23214398514E+02  0.10712832835E+02  0.26960783127E+02  0.00000000000E+00 0. -1.
</event>
<event>
 7    1  0.5441610E-013  0.5052892E+02  0.7816164E-02  0.1300439E+00
        -11   -1    0    0    0    0  0.00000000000E+00  0.00000000000E+00  0.45593999997E+02  0.45594000000E+02  0.51100000000E-03 0. -1.
         11   -1    0    0    0    0 -0.00000000000E+00 -0.00000000000E+00 -0.45593999997E+02  0.45594000000E+02  0.51100000000E-03 0.  1.
    9900012    2    1    2    0    0  0.27190720546E+02  0.29734203601E+02  0.54500451276E+01  0.50528915658E+02  0.30000169634E+02 0.  0.
        -12    1    1    2    0    0 -0.27190720546E+02 -0.29734203601E+02 -0.54500451276E+01  0.40659084342E+02  0.00000000000E+00 0.  1.
         11    1    3    3    0    0  0.91324719422E+00  0.13508648976E+02 -0.98961204433E-01  0.13539845316E+02  0.51100000000E-03 0. -1.
        -11    1    3    3    0    0  0.11604346567E+02  0.11413294221E+02 -0.63736175033E+01  0.17479906881E+02  0.51100000000E-03 0.  1.
         12    1    3    3    0    0  0.14673126785E+02  0.48122604045E+01  0.11922623835E+02  0.19509163461E+02  0.00000000000E+00 0. -1.
</event>
<event>
 7    1  0.5441610E-013  0.5052886E+02  0.7816164E-02  0.1300439E+00
        -11   -1    0    0    0    0  0.00000000000E+00  0.00000000000E+00  0.45593999997E+02  0.45594000000E+02  0.51100000000E-03 0.  1.
         11   -1    0    0    0    0 -0.00000000000E+00 -0.00000000000E+00 -0.45593999997E+02  0.45594000000E+02  0.51100000000E-03 0. -1.
    9900012    2    1    2    0    0  0.25184789690E+02  0.15526286029E+02 -0.27889540318E+02  0.50528860206E+02  0.30000001084E+02 0.  0.
        -12    1    1    2    0    0 -0.25184789690E+02 -0.15526286029E+02  0.27889540318E+02  0.40659139794E+02  0.00000000000E+00 0.  1.
         11    1    3    3    0    0  0.16364545004E+02  0.13738935934E+02 -0.11388985192E+02  0.24212923775E+02  0.51100000000E-03 0. -1.
        -11    1    3    3    0    0 -0.35238819045E+01  0.63396173504E+01 -0.47034240751E+01  0.86446914414E+01  0.51100000000E-03 0.  1.
         12    1    3    3    0    0  0.12344126591E+02 -0.45522672554E+01 -0.11797131051E+02  0.17671244990E+02  0.00000000000E+00 0. -1.
</event>
<event>
 7    1  0.5441610E-013  0.5052894E+02  0.7816164E-02  0.1300439E+00
        -11   -1    0    0    0    0  0.00000000000E+00  0.00000000000E+00  0.45593999997E+02  0.45594000000E+02  0.51100000000E-03 0.  1.
         11   -1    0    0    0    0 -0.00000000000E+00 -0.00000000000E+00 -0.45593999997E+02  0.45594000000E+02  0.51100000000E-03 0. -1.
    9900012    2    1    2    0    0 -0.24814665114E+02  0.33406506659E+01 -0.32034850524E+02  0.50528939513E+02  0.30000242144E+02 0.  0.
        -12    1    1    2    0    0  0.24814665114E+02 -0.33406506659E+01  0.32034850524E+02  0.40659060487E+02  0.00000000000E+00 0.  1.
         11    1    3    3    0    0 -0.73952956328E+01 -0.68729491448E+01 -0.13327704995E+02  0.16719914717E+02  0.51100000000E-03 0. -1.
        -11    1    3    3    0    0 -0.79187897185E+01  0.21639583340E+01  0.30360737672E+01  0.87525819309E+01  0.51100000000E-03 0.  1.
         12    1    3    3    0    0 -0.95005797626E+01  0.80496414767E+01 -0.21743219296E+02  0.25056442865E+02  0.00000000000E+00 0. -1.
</event>
<event>
 7    1  0.5441610E-013  0.5052888E+02  0.7816164E-02  0.1300439E+00
        -11   -1    0    0    0    0  0.00000000000E+00  0.00000000000E+00  0.45593999997E+02  0.45594000000E+02  0.51100000000E-03 0. -1.
         11   -1    0    0    0    0 -0.00000000000E+00 -0.00000000000E+00 -0.45593999997E+02  0.45594000000E+02  0.51100000000E-03 0.  1.
    9900012    2    1    2    0    0 -0.19323053066E+01 -0.40582819971E+02 -0.15700379902E+01  0.50528879253E+02  0.30000058978E+02 0.  0.
        -12    1    1    2    0    0  0.19323053066E+01  0.40582819971E+02  0.15700379902E+01  0.40659120747E+02  0.00000000000E+00 0.  1.
         11    1    3    3    0    0 -0.46209584706E+01 -0.33674347212E+02 -0.18169100658E+01  0.34038450021E+02  0.51100000000E-03 0. -1.
        -11    1    3    3    0    0  0.48399343124E+00 -0.55356086132E+01 -0.69156939793E+01  0.88715295095E+01  0.51100000000E-03 0.  1.
         12    1    3    3    0    0  0.22046597327E+01 -0.13728641456E+01  0.71625660549E+01  0.76188997231E+01  0.00000000000E+00 0. -1.
</event>
<event>
 7    1  0.5441610E-013  0.5052886E+02  0.7816164E-02  0.1300439E+00
        -11   -1    0    0    0    0  0.00000000000E+00  0.00000000000E+00  0.45593999997E+02  0.45594000000E+02  0.51100000000E-03 0. -1.
         11   -1    0    0    0    0 -0.00000000000E+00 -0.00000000000E+00 -0.45593999997E+02  0.45594000000E+02  0.51100000000E-03 0.  1.
    9900012    2    1    2    0    0 -0.35227171388E+01  0.21979008478E+02  0.34024689091E+02  0.50528858132E+02  0.29999994779E+02 0.  0.
        -12    1    1    2    0    0  0.35227171388E+01 -0.21979008478E+02 -0.34024689091E+02  0.40659141868E+02  0.00000000000E+00 0.  1.
         11    1    3    3    0    0 -0.43512857937E+01  0.89867632777E+01  0.38514723646E+01  0.10701842921E+02  0.51100000000E-03 0. -1.
        -11    1    3    3    0    0  0.50536065492E+01 -0.33038283230E+01  0.18181655976E+02  0.19157944436E+02  0.51100000000E-03 0.  1.
         12    1    3    3    0    0 -0.42250378943E+01  0.16296073523E+02  0.11991560750E+02  0.20669070775E+02  0.00000000000E+00 0. -1.
</event>
<event>
 7    1  0.5441610E-013  0.5052886E+02  0.7816164E-02  0.1300439E+00
        -11   -1    0    0    0    0  0.00000000000E+00  0.00000000000E+00  0.45593999997E+02  0.45594000000E+02  0.51100000000E-03 0.  1.
         11   -1    0    0    0    0 -0.00000000000E+00 -0.00000000000E+00 -0.45593999997E+02  0.45594000000E+02  0.51100000000E-03 0. -1.
    9900012    2    1    2    0    0 -0.24420402948E+02  0.32499421235E+02 -0.77273226182E+00  0.50528861102E+02  0.30000003806E+02 0.  0.
        -12    1    1    2    0    0  0.24420402948E+02 -0.32499421235E+02  0.77273226182E+00  0.40659138898E+02  0.00000000000E+00 0.  1.
         11    1    3    3    0    0 -0.14591555036E+01  0.69357973042E+01  0.57914911160E+01  0.91529114842E+01  0.51100000000E-03 0. -1.
        -11    1    3    3    0    0 -0.35012427105E+01  0.28693539619E+01 -0.10297496510E+02  0.11248570012E+02  0.51100000000E-03 0.  1.
         12    1    3    3    0    0 -0.19460004734E+02  0.22694269969E+02  0.37332731318E+01  0.30127379606E+02  0.00000000000E+00 0. -1.
</event>
<event>
 7    1  0.5441610E-013  0.5052886E+02  0.7816164E-02  0.1300439E+00
        -11   -1    0    0    0    0  0.00000000000E+00  0.00000000000E+00  0.45593999997E+02  0.45594000000E+02  0.51100000000E-03 0. -1.
         11   -1    0    0    0    0 -0.00000000000E+00 -0.00000000000E+00 -0.45593999997E+02  0.45594000000E+02  0.51100000000E-03 0.  1.
    9900012    2    1    2    0    0  0.38469880741E+02  0.38867470756E+01  0.12574862598E+02  0.50528859620E+02  0.29999999302E+02 0.  0.
        -12    1    1    2    0    0 -0.38469880741E+02 -0.38867470756E+01 -0.12574862598E+02  0.40659140380E+02  0.00000000000E+00 0.  1.
         11    1    3    3    0    0 -0.10848223532E+01  0.31949293536E+01 -0.24118739722E+01  0.41474750670E+01  0.51100000000E-03 0. -1.
        -11    1    3    3    0    0  0.17807361605E+02  0.37557024709E+01 -0.24178338111E+01  0.18359012745E+02  0.51100000000E-03 0.  1.
        -12    1    3    3    0    0  0.21747341489E+02 -0.30638847489E+01  0.17404570381E+02  0.28022371808E+02  0.00000000000E+00 0.  1.
</event>
<event>
 7    1  0.5441610E-013  0.5052886E+02  0.7816164E-02  0.1300439E+00
        -11   -1    0    0    0    0  0.00000000000E+00  0.00000000000E+00  0.45593999997E+02  0.45594000000E+02  0.51100000000E-03 0. -1.
         11   -1    0    0    0    0 -0.00000000000E+00 -0.00000000000E+00 -0.45593999997E+02  0.45594000000E+02  0.51100000000E-03 0.  1.
    9900012    2    1    2    0    0  0.11238582488E+02 -0.71728844403E+01  0.38411061832E+02  0.50528859840E+02  0.29999999969E+02 0.  0.
        -12    1    1    2    0    0 -0.11238582488E+02  0.71728844403E+01 -0.38411061832E+02  0.40659140160E+02  0.00000000000E+00 0.  1.
         11    1    3    3    0    0  0.10024611029E+02 -0.39568239039E+01  0.16456560042E+01  0.10902177105E+02  0.51100000000E-03 0.  1.
        -11    1    3    3    0    0  0.28983887525E+01  0.41552484649E+01  0.55760668738E+01  0.75338747805E+01  0.51100000000E-03 0. -1.
         12    1    3    3    0    0 -0.16844172938E+01 -0.73713090014E+01  0.31189338954E+02  0.32092807954E+02  0.00000000000E+00 0. -1.
</event>
<event>
 7    1  0.5441610E-013  0.5052887E+02  0.7816164E-02  0.1300439E+00
        -11   -1    0    0    0    0  0.00000000000E+00  0.00000000000E+00  0.45593999997E+02  0.45594000000E+02  0.51100000000E-03 0.  1.
         11   -1    0    0    0    0 -0.00000000000E+00 -0.00000000000E+00 -0.45593999997E+02  0.45594000000E+02  0.51100000000E-03 0. -1.
    9900012    2    1    2    0    0 -0.38353943634E+02  0.15911971997E+01 -0.13401800723E+02  0.50528866174E+02  0.30000019223E+02 0.  0.
        -12    1    1    2    0    0  0.38353943634E+02 -0.15911971997E+01  0.13401800723E+02  0.40659133826E+02  0.00000000000E+00 0.  1.
         11    1    3    3    0    0 -0.87522878492E+01 -0.12842218259E+01  0.58278258022E+00  0.88651793039E+01  0.51100000000E-03 0. -1.
        -11    1    3    3    0    0 -0.15722526527E+02 -0.77703785052E+01  0.23943283724E+01  0.17700548893E+02  0.51100000000E-03 0.  1.
         12    1    3    3    0    0 -0.13879129258E+02  0.10645797531E+02 -0.16378911676E+02  0.23963137977E+02  0.00000000000E+00 0. -1.
</event>
<event>
 7    1  0.5441610E-013  0.5052886E+02  0.7816164E-02  0.1300439E+00
        -11   -1    0    0    0    0  0.00000000000E+00  0.00000000000E+00  0.45593999997E+02  0.45594000000E+02  0.51100000000E-03 0.  1.
         11   -1    0    0    0    0 -0.00000000000E+00 -0.00000000000E+00 -0.45593999997E+02  0.45594000000E+02  0.51100000000E-03 0. -1.
    9900012    2    1    2    0    0  0.75359171526E+00 -0.39058742133E+02 -0.11269972945E+02  0.50528861695E+02  0.30000005608E+02 0.  0.
        -12    1    1    2    0    0 -0.75359171526E+00  0.39058742133E+02  0.11269972945E+02  0.40659138305E+02  0.00000000000E+00 0.  1.
         11    1    3    3    0    0  0.67603238358E+01 -0.33278366484E+01  0.39990794473E+01  0.85304813352E+01  0.51100000000E-03 0.  1.
        -11    1    3    3    0    0 -0.59641941037E+01 -0.45758915007E+01 -0.53897870966E+00  0.75366366930E+01  0.51100000000E-03 0. -1.
         12    1    3    3    0    0 -0.42538016880E-01 -0.31155013984E+02 -0.14730073683E+02  0.34461743667E+02  0.00000000000E+00 0. -1.
</event>
<event>
 7    1  0.5441610E-013  0.5052886E+02  0.7816164E-02  0.1300439E+00
        -11   -1    0    0    0    0  0.00000000000E+00  0.00000000000E+00  0.45593999997E+02  0.45594000000E+02  0.51100000000E-03 0.  1.
         11   -1    0    0    0    0 -0.00000000000E+00 -0.00000000000E+00 -0.45593999997E+02  0.45594000000E+02  0.51100000000E-03 0. -1.
    9900012    2    1    2    0    0  0.27764103782E+02 -0.24209437183E+02 -0.17211139837E+02  0.50528860289E+02  0.30000001335E+02 0.  0.
        -12    1    1    2    0    0 -0.27764103782E+02  0.24209437183E+02  0.17211139837E+02  0.40659139711E+02  0.00000000000E+00 0.  1.
         11    1    3    3    0    0  0.14496126941E+01 -0.78260716933E+01 -0.84516737902E+01  0.11609460161E+02  0.51100000000E-03 0. -1.
        -11    1    3    3    0    0  0.26874145439E+02 -0.20446271011E+02 -0.71686965636E+01  0.34520427315E+02  0.51100000000E-03 0.  1.
         12    1    3    3    0    0 -0.55965435135E+00  0.40629055206E+01 -0.15907694828E+01  0.43989728130E+01  0.00000000000E+00 0. -1.
</event>
<event>
 7    1  0.5441610E-013  0.5052887E+02  0.7816164E-02  0.1300439E+00
        -11   -1    0    0    0    0  0.00000000000E+00  0.00000000000E+00  0.45593999997E+02  0.45594000000E+02  0.51100000000E-03 0.  1.
         11   -1    0    0    0    0 -0.00000000000E+00 -0.00000000000E+00 -0.45593999997E+02  0.45594000000E+02  0.51100000000E-03 0. -1.
    9900012    2    1    2    0    0 -0.22326370897E+02  0.96674959094E-01 -0.33980712764E+02  0.50528867896E+02  0.30000024456E+02 0.  0.
        -12    1    1    2    0    0  0.22326370897E+02 -0.96674959094E-01  0.33980712764E+02  0.40659132104E+02  0.00000000000E+00 0.  1.
         11    1    3    3    0    0 -0.46434546868E+01 -0.20429598753E+01  0.37445896563E+00  0.50868041301E+01  0.51100000000E-03 0. -1.
        -11    1    3    3    0    0 -0.33647608112E+01 -0.77823403812E+01 -0.23338449558E+02  0.24830820872E+02  0.51100000000E-03 0.  1.
         12    1    3    3    0    0 -0.14318155399E+02  0.99219752156E+01 -0.11016722171E+02  0.20611242894E+02  0.00000000000E+00 0. -1.
</event>
<event>
 7    1  0.5441610E-013  0.5052886E+02  0.7816164E-02  0.1300439E+00
        -11   -1    0    0    0    0  0.00000000000E+00  0.00000000000E+00  0.45593999997E+02  0.45594000000E+02  0.51100000000E-03 0.  1.
         11   -1    0    0    0    0 -0.00000000000E+00 -0.00000000000E+00 -0.45593999997E+02  0.45594000000E+02  0.51100000000E-03 0. -1.
    9900012    2    1    2    0    0 -0.22437055944E+02 -0.55408522218E+01 -0.33452103518E+02  0.50528858930E+02  0.29999997203E+02 0.  0.
        -12    1    1    2    0    0  0.22437055944E+02  0.55408522218E+01  0.33452103518E+02  0.40659141070E+02  0.00000000000E+00 0.  1.
         11    1    3    3    0    0 -0.24607636614E+01  0.47237229728E+01 -0.15587808728E+02  0.16472665168E+02  0.51100000000E-03 0. -1.
        -11    1    3    3    0    0  0.33787984696E+01 -0.11557961010E+00 -0.10467495880E+01  0.35391132654E+01  0.51100000000E-03 0.  1.
         12    1    3    3    0    0 -0.23355090752E+02 -0.10148995585E+02 -0.16817545202E+02  0.30517080497E+02  0.00000000000E+00 0. -1.
</event>
<event>
 7    1  0.5441610E-013  0.5052887E+02  0.7816164E-02  0.1300439E+00
        -11   -1    0    0    0    0  0.00000000000E+00  0.00000000000E+00  0.45593999997E+02  0.45594000000E+02  0.51100000000E-03 0. -1.
         11   -1    0    0    0    0 -0.00000000000E+00 -0.00000000000E+00 -0.45593999997E+02  0.45594000000E+02  0.51100000000E-03 0.  1.
    9900012    2    1    2    0    0  0.60902688176E+01 -0.21085560141E+00  0.40199865474E+02  0.50528867957E+02  0.30000024641E+02 0.  0.
        -12    1    1    2    0    0 -0.60902688176E+01  0.21085560141E+00 -0.40199865474E+02  0.40659132043E+02  0.00000000000E+00 0.  1.
         11    1    3    3    0    0  0.91413515754E+01 -0.18416548532E+01  0.42150099571E+02  0.43169281848E+02  0.51100000000E-03 0. -1.
        -11    1    3    3    0    0  0.17936719508E+01  0.10513126416E+01 -0.12617046854E+01  0.24319573005E+01  0.51100000000E-03 0.  1.
        -12    1    3    3    0    0 -0.48447547085E+01  0.57948661017E+00 -0.68852941084E+00  0.49276288077E+01  0.00000000000E+00 0.  1.
</event>
<event>
 7    1  0.5441610E-013  0.5052887E+02  0.7816164E-02  0.1300439E+00
        -11   -1    0    0    0    0  0.00000000000E+00  0.00000000000E+00  0.45593999997E+02  0.45594000000E+02  0.51100000000E-03 0.  1.
         11   -1    0    0    0    0 -0.00000000000E+00 -0.00000000000E+00 -0.45593999997E+02  0.45594000000E+02  0.51100000000E-03 0. -1.
    9900012    2    1    2    0    0 -0.24016540214E+02  0.23719625505E+02 -0.22666063008E+02  0.50528865107E+02  0.30000015979E+02 0.  0.
        -12    1    1    2    0    0  0.24016540214E+02 -0.23719625505E+02  0.22666063008E+02  0.40659134893E+02  0.00000000000E+00 0.  1.
         11    1    3    3    0    0 -0.18375922430E+02  0.25552668402E+02 -0.26649860264E+02  0.41241101343E+02  0.51100000000E-03 0. -1.
        -11    1    3    3    0    0 -0.49456358341E+01  0.92890429204E+00  0.93973202207E+00  0.51191086648E+01  0.51100000000E-03 0.  1.
        -12    1    3    3    0    0 -0.69498195080E+00 -0.27619471893E+01  0.30440652342E+01  0.41686550995E+01  0.00000000000E+00 0.  1.
</event>
<event>
 7    1  0.5441610E-013  0.5052886E+02  0.7816164E-02  0.1300439E+00
        -11   -1    0    0    0    0  0.00000000000E+00  0.00000000000E+00  0.45593999997E+02  0.45594000000E+02  0.51100000000E-03 0.  1.
         11   -1    0    0    0    0 -0.00000000000E+00 -0.00000000000E+00 -0.45593999997E+02  0.45594000000E+02  0.51100000000E-03 0. -1.
    9900012    2    1    2    0    0 -0.37604334584E+02  0.16230581373E+01 -0.15376783439E+02  0.50528858763E+02  0.29999996696E+02 0.  0.
        -12    1    1    2    0    0  0.37604334584E+02 -0.16230581373E+01  0.15376783439E+02  0.40659141237E+02  0.00000000000E+00 0.  1.
         11    1    3    3    0    0 -0.78628420106E+01  0.46070073855E+01 -0.73504757265E+01  0.11708044038E+02  0.51100000000E-03 0. -1.
        -11    1    3    3    0    0 -0.88931158736E+00  0.63346509744E+01  0.22896572634E+01  0.67942040529E+01  0.51100000000E-03 0.  1.
        -12    1    3    3    0    0 -0.28852180986E+02 -0.93186002226E+01 -0.10315964976E+02  0.32026610672E+02  0.00000000000E+00 0.  1.
</event>
<event>
 7    1  0.5441610E-013  0.5052887E+02  0.7816164E-02  0.1300439E+00
        -11   -1    0    0    0    0  0.00000000000E+00  0.00000000000E+00  0.45593999997E+02  0.45594000000E+02  0.51100000000E-03 0. -1.
         11   -1    0    0    0    0 -0.00000000000E+00 -0.00000000000E+00 -0.45593999997E+02  0.45594000000E+02  0.51100000000E-03 0.  1.
    9900012    2    1    2    0    0  0.64195594664E+01  0.40091296000E+02  0.21545112379E+01  0.50528872152E+02  0.30000037394E+02 0.  0.
        -12    1    1    2    0    0 -0.64195594664E+01 -0.40091296000E+02 -0.21545112379E+01  0.40659127848E+02  0.00000000000E+00 0.  1.
         11    1    3    3    0    0  0.83090325860E+01  0.87777257363E+01 -0.37361665675E+01  0.12650985436E+02  0.51100000000E-03 0. -1.
        -11    1    3    3    0    0 -0.10490646067E+02  0.13113181433E+02 -0.36737745821E+00  0.16797147039E+02  0.51100000000E-03 0.  1.
         12    1    3    3    0    0  0.86011729477E+01  0.18200388830E+02  0.62580552637E+01  0.21080739677E+02  0.00000000000E+00 0. -1.
</event>
<event>
 7    1  0.5441610E-013  0.5052876E+02  0.7816164E-02  0.1300439E+00
        -11   -1    0    0    0    0  0.00000000000E+00  0.00000000000E+00  0.45593999997E+02  0.45594000000E+02  0.51100000000E-03 0.  1.
         11   -1    0    0    0    0 -0.00000000000E+00 -0.00000000000E+00 -0.45593999997E+02  0.45594000000E+02  0.51100000000E-03 0. -1.
    9900012    2    1    2    0    0  0.37439556897E+02  0.15823129184E+02  0.10401196698E+01  0.50528761361E+02  0.29999700631E+02 0.  0.
        -12    1    1    2    0    0 -0.37439556897E+02 -0.15823129184E+02 -0.10401196698E+01  0.40659238639E+02  0.00000000000E+00 0.  1.
         11    1    3    3    0    0  0.32413197901E+02  0.17797530507E+02  0.63499084977E+00  0.36983384160E+02  0.51100000000E-03 0. -1.
        -11    1    3    3    0    0  0.38841303773E+01 -0.10216552376E+01  0.62969388542E+01  0.74687139058E+01  0.51100000000E-03 0.  1.
        -12    1    3    3    0    0  0.11422286189E+01 -0.95274608542E+00 -0.58918100342E+01  0.60766632949E+01  0.00000000000E+00 0.  1.
</event>
<event>
 7    1  0.5441610E-013  0.5052886E+02  0.7816164E-02  0.1300439E+00
        -11   -1    0    0    0    0  0.00000000000E+00  0.00000000000E+00  0.45593999997E+02  0.45594000000E+02  0.51100000000E-03 0. -1.
         11   -1    0    0    0    0 -0.00000000000E+00 -0.00000000000E+00 -0.45593999997E+02  0.45594000000E+02  0.51100000000E-03 0.  1.
    9900012    2    1    2    0    0  0.23678179690E+02 -0.23397433069E+01  0.32970211653E+02  0.50528862667E+02  0.30000008563E+02 0.  0.
        -12    1    1    2    0    0 -0.23678179690E+02  0.23397433069E+01 -0.32970211653E+02  0.40659137333E+02  0.00000000000E+00 0.  1.
         11    1    3    3    0    0  0.89520246518E+01 -0.86066582117E+01  0.11176871247E+02  0.16707356526E+02  0.51100000000E-03 0. -1.
        -11    1    3    3    0    0  0.16743053718E+02  0.11300407262E+02  0.18957172051E+02  0.27702047298E+02  0.51100000000E-03 0.  1.
         12    1    3    3    0    0 -0.20168986802E+01 -0.50334923571E+01  0.28361683557E+01  0.61194588434E+01  0.00000000000E+00 0. -1.
</event>
<event>
 7    1  0.5441610E-013  0.5052886E+02  0.7816164E-02  0.1300439E+00
        -11   -1    0    0    0    0  0.00000000000E+00  0.00000000000E+00  0.45593999997E+02  0.45594000000E+02  0.51100000000E-03 0. -1.
         11   -1    0    0    0    0 -0.00000000000E+00 -0.00000000000E+00 -0.45593999997E+02  0.45594000000E+02  0.51100000000E-03 0.  1.
    9900012    2    1    2    0    0  0.17080640297E+02  0.23346925317E+02  0.28571637672E+02  0.50528859897E+02  0.30000000142E+02 0.  0.
        -12    1    1    2    0    0 -0.17080640297E+02 -0.23346925317E+02 -0.28571637672E+02  0.40659140103E+02  0.00000000000E+00 0.  1.
         11    1    3    3    0    0  0.16222736805E+01 -0.30622604235E+01  0.10269527891E+02  0.10838469179E+02  0.51100000000E-03 0. -1.
        -11    1    3    3    0    0  0.48966604159E+01  0.30894323182E+01 -0.28769593367E+01  0.64651968697E+01  0.51100000000E-03 0.  1.
         12    1    3    3    0    0  0.10561706200E+02  0.23319753422E+02  0.21179069118E+02  0.33225193848E+02  0.00000000000E+00 0. -1.
</event>
<event>
 7    1  0.5441610E-013  0.5052886E+02  0.7816164E-02  0.1300439E+00
        -11   -1    0    0    0    0  0.00000000000E+00  0.00000000000E+00  0.45593999997E+02  0.45594000000E+02  0.51100000000E-03 0.  1.
         11   -1    0    0    0    0 -0.00000000000E+00 -0.00000000000E+00 -0.45593999997E+02  0.45594000000E+02  0.51100000000E-03 0. -1.
    9900012    2    1    2    0    0 -0.21650329958E+02 -0.26437199682E+02 -0.22034132490E+02  0.50528864386E+02  0.30000013787E+02 0.  0.
        -12    1    1    2    0    0  0.21650329958E+02  0.26437199682E+02  0.22034132490E+02  0.40659135614E+02  0.00000000000E+00 0.  1.
         11    1    3    3    0    0 -0.12415598128E+02 -0.26674958072E+02 -0.22205353120E+02  0.36861608382E+02  0.51100000000E-03 0. -1.
        -11    1    3    3    0    0  0.18177920338E+01 -0.12789865385E+01 -0.10242101398E+01  0.24472803508E+01  0.51100000000E-03 0.  1.
         12    1    3    3    0    0 -0.11052523863E+02  0.15167449286E+01  0.11954307705E+01  0.11219975653E+02  0.00000000000E+00 0. -1.
</event>
<event>
 7    1  0.5441610E-013  0.5052885E+02  0.7816164E-02  0.1300439E+00
        -11   -1    0    0    0    0  0.00000000000E+00  0.00000000000E+00  0.45593999997E+02  0.45594000000E+02  0.51100000000E-03 0.  1.
         11   -1    0    0    0    0 -0.00000000000E+00 -0.00000000000E+00 -0.45593999997E+02  0.45594000000E+02  0.51100000000E-03 0. -1.
    9900012    2    1    2    0    0  0.87545609770E+01  0.24055362356E+02 -0.31588975228E+02  0.50528854019E+02  0.29999982275E+02 0.  0.
        -12    1    1    2    0    0 -0.87545609770E+01 -0.24055362356E+02  0.31588975228E+02  0.40659145981E+02  0.00000000000E+00 0.  1.
         11    1    3    3    0    0  0.11811168332E+02  0.15645724099E+02 -0.42534118694E+01  0.20059508786E+02  0.51100000000E-03 0.  1.
        -11    1    3    3    0    0 -0.13889664588E+01  0.72013604672E+01 -0.73683706819E+01  0.10396235240E+02  0.51100000000E-03 0. -1.
        -12    1    3    3    0    0 -0.16676408960E+01  0.12082777899E+01 -0.19967192677E+02  0.20073109992E+02  0.00000000000E+00 0.  1.
</event>
<event>
 7    1  0.5441610E-013  0.5052886E+02  0.7816164E-02  0.1300439E+00
        -11   -1    0    0    0    0  0.00000000000E+00  0.00000000000E+00  0.45593999997E+02  0.45594000000E+02  0.51100000000E-03 0.  1.
         11   -1    0    0    0    0 -0.00000000000E+00 -0.00000000000E+00 -0.45593999997E+02  0.45594000000E+02  0.51100000000E-03 0. -1.
    9900012    2    1    2    0    0  0.36820634341E+01  0.23568092034E+02 -0.32926484683E+02  0.50528856541E+02  0.29999989941E+02 0.  0.
        -12    1    1    2    0    0 -0.36820634341E+01 -0.23568092034E+02  0.32926484683E+02  0.40659143459E+02  0.00000000000E+00 0.  1.
         11    1    3    3    0    0 -0.97340540066E+00 -0.42544001879E+01 -0.67568398424E+01  0.80437754786E+01  0.51100000000E-03 0. -1.
        -11    1    3    3    0    0  0.88456330984E+01  0.10043792305E+02 -0.18113499174E+02  0.22521586120E+02  0.51100000000E-03 0.  1.
        -12    1    3    3    0    0 -0.41901642637E+01  0.17778699917E+02 -0.80561456665E+01  0.19963494942E+02  0.00000000000E+00 0.  1.
</event>
<event>
 7    1  0.5441610E-013  0.5052886E+02  0.7816164E-02  0.1300439E+00
        -11   -1    0    0    0    0  0.00000000000E+00  0.00000000000E+00  0.45593999997E+02  0.45594000000E+02  0.51100000000E-03 0.  1.
         11   -1    0    0    0    0 -0.00000000000E+00 -0.00000000000E+00 -0.45593999997E+02  0.45594000000E+02  0.51100000000E-03 0. -1.
    9900012    2    1    2    0    0  0.14685895448E+02  0.37417644640E+02 -0.61163735973E+01  0.50528859804E+02  0.29999999860E+02 0.  0.
        -12    1    1    2    0    0 -0.14685895448E+02 -0.37417644640E+02  0.61163735973E+01  0.40659140196E+02  0.00000000000E+00 0.  1.
         11    1    3    3    0    0 -0.20236245950E+01  0.15137592830E+02 -0.55819323249E+01  0.16260373364E+02  0.51100000000E-03 0. -1.
        -11    1    3    3    0    0  0.10445402053E+01  0.10225533863E+02  0.77128613705E+01  0.12850713514E+02  0.51100000000E-03 0.  1.
         12    1    3    3    0    0  0.15664979838E+02  0.12054517947E+02 -0.82473026430E+01  0.21417772927E+02  0.00000000000E+00 0. -1.
</event>
<event>
 7    1  0.5441610E-013  0.5052886E+02  0.7816164E-02  0.1300439E+00
        -11   -1    0    0    0    0  0.00000000000E+00  0.00000000000E+00  0.45593999997E+02  0.45594000000E+02  0.51100000000E-03 0. -1.
         11   -1    0    0    0    0 -0.00000000000E+00 -0.00000000000E+00 -0.45593999997E+02  0.45594000000E+02  0.51100000000E-03 0.  1.
    9900012    2    1    2    0    0 -0.20671457641E+02  0.30112410947E+02  0.17863349914E+02  0.50528859278E+02  0.29999998262E+02 0.  0.
        -12    1    1    2    0    0  0.20671457641E+02 -0.30112410947E+02 -0.17863349914E+02  0.40659140722E+02  0.00000000000E+00 0.  1.
         11    1    3    3    0    0 -0.17110790862E+02  0.22870502326E+02  0.17572905071E+02  0.33535742626E+02  0.51100000000E-03 0. -1.
        -11    1    3    3    0    0 -0.88220800801E+01  0.74731626573E+01 -0.88952116417E+00  0.11596055588E+02  0.51100000000E-03 0.  1.
         12    1    3    3    0    0  0.52614133008E+01 -0.23125403610E+00  0.11799660075E+01  0.53970610641E+01  0.00000000000E+00 0. -1.
</event>
<event>
 7    1  0.5441610E-013  0.5052886E+02  0.7816164E-02  0.1300439E+00
        -11   -1    0    0    0    0  0.00000000000E+00  0.00000000000E+00  0.45593999997E+02  0.45594000000E+02  0.51100000000E-03 0. -1.
         11   -1    0    0    0    0 -0.00000000000E+00 -0.00000000000E+00 -0.45593999997E+02  0.45594000000E+02  0.51100000000E-03 0.  1.
    9900012    2    1    2    0    0  0.32849371350E+02 -0.52682697274E+01  0.23373705488E+02  0.50528856228E+02  0.29999988990E+02 0.  0.
        -12    1    1    2    0    0 -0.32849371350E+02  0.52682697274E+01 -0.23373705488E+02  0.40659143772E+02  0.00000000000E+00 0.  1.
         11    1    3    3    0    0  0.12789192300E+02  0.91714257275E+01  0.12516039474E+02  0.20107952007E+02  0.51100000000E-03 0. -1.
        -11    1    3    3    0    0  0.66423043720E+00 -0.75673867938E+01  0.47371981440E+01  0.89525187226E+01  0.51100000000E-03 0.  1.
        -12    1    3    3    0    0  0.19395948613E+02 -0.68723086611E+01  0.61204678704E+01  0.21468385498E+02  0.00000000000E+00 0.  1.
</event>
<event>
 7    1  0.5441610E-013  0.5052887E+02  0.7816164E-02  0.1300439E+00
        -11   -1    0    0    0    0  0.00000000000E+00  0.00000000000E+00  0.45593999997E+02  0.45594000000E+02  0.51100000000E-03 0. -1.
         11   -1    0    0    0    0 -0.00000000000E+00 -0.00000000000E+00 -0.45593999997E+02  0.45594000000E+02  0.51100000000E-03 0.  1.
    9900012    2    1    2    0    0  0.65978090228E+01 -0.30448026357E+02  0.26125685391E+02  0.50528870274E+02  0.30000031684E+02 0.  0.
        -12    1    1    2    0    0 -0.65978090228E+01  0.30448026357E+02 -0.26125685391E+02  0.40659129726E+02  0.00000000000E+00 0.  1.
         11    1    3    3    0    0  0.71548406051E+01 -0.16967247251E+02  0.15655537724E+01  0.18480535226E+02  0.51100000000E-03 0. -1.
        -11    1    3    3    0    0  0.69888711875E+01 -0.76578222680E+01  0.86525040536E+01  0.13503791654E+02  0.51100000000E-03 0.  1.
        -12    1    3    3    0    0 -0.75459027697E+01 -0.58229568384E+01  0.15907627565E+02  0.18544543395E+02  0.00000000000E+00 0.  1.
</event>
<event>
 7    1  0.5441610E-013  0.5052884E+02  0.7816164E-02  0.1300439E+00
        -11   -1    0    0    0    0  0.00000000000E+00  0.00000000000E+00  0.45593999997E+02  0.45594000000E+02  0.51100000000E-03 0.  1.
         11   -1    0    0    0    0 -0.00000000000E+00 -0.00000000000E+00 -0.45593999997E+02  0.45594000000E+02  0.51100000000E-03 0. -1.
    9900012    2    1    2    0    0  0.13952083825E+02  0.37437327070E+01 -0.38006462605E+02  0.50528838948E+02  0.29999936467E+02 0.  0.
        -12    1    1    2    0    0 -0.13952083825E+02 -0.37437327070E+01  0.38006462605E+02  0.40659161052E+02  0.00000000000E+00 0.  1.
         11    1    3    3    0    0  0.69150812454E+01 -0.63016110778E+01 -0.36426555428E+02  0.37608810024E+02  0.51100000000E-03 0. -1.
        -11    1    3    3    0    0  0.29345097141E+00  0.12073865050E+01  0.89460007420E+00  0.15310797493E+01  0.51100000000E-03 0.  1.
        -12    1    3    3    0    0  0.67435516087E+01  0.88379572798E+01 -0.24745072518E+01  0.11388949175E+02  0.00000000000E+00 0.  1.
</event>
<event>
 7    1  0.5441610E-013  0.5052886E+02  0.7816164E-02  0.1300439E+00
        -11   -1    0    0    0    0  0.00000000000E+00  0.00000000000E+00  0.45593999997E+02  0.45594000000E+02  0.51100000000E-03 0.  1.
         11   -1    0    0    0    0 -0.00000000000E+00 -0.00000000000E+00 -0.45593999997E+02  0.45594000000E+02  0.51100000000E-03 0. -1.
    9900012    2    1    2    0    0 -0.13550735532E+02 -0.12456162423E+01 -0.38314378720E+02  0.50528860683E+02  0.30000002532E+02 0.  0.
        -12    1    1    2    0    0  0.13550735532E+02  0.12456162423E+01  0.38314378720E+02  0.40659139317E+02  0.00000000000E+00 0.  1.
         11    1    3    3    0    0 -0.10572455504E+02 -0.71844263105E+00 -0.98449641500E+01  0.14464311065E+02  0.51100000000E-03 0. -1.
        -11    1    3    3    0    0 -0.34367728022E+01  0.10336752801E+02 -0.17540927247E+02  0.20648099058E+02  0.51100000000E-03 0.  1.
         12    1    3    3    0    0  0.45849277409E+00 -0.10863926412E+02 -0.10928487323E+02  0.15416450560E+02  0.00000000000E+00 0. -1.
</event>
<event>
 7    1  0.5441610E-013  0.5052883E+02  0.7816164E-02  0.1300439E+00
        -11   -1    0    0    0    0  0.00000000000E+00  0.00000000000E+00  0.45593999997E+02  0.45594000000E+02  0.51100000000E-03 0.  1.
         11   -1    0    0    0    0 -0.00000000000E+00 -0.00000000000E+00 -0.45593999997E+02  0.45594000000E+02  0.51100000000E-03 0. -1.
    9900012    2    1    2    0    0 -0.19171939180E+02 -0.33951386531E+02 -0.11528581252E+02  0.50528830248E+02  0.29999910020E+02 0.  0.
        -12    1    1    2    0    0  0.19171939180E+02  0.33951386531E+02  0.11528581252E+02  0.40659169752E+02  0.00000000000E+00 0.  1.
         11    1    3    3    0    0 -0.71640266966E+01 -0.42131501082E+01 -0.20044759106E+01  0.85493763679E+01  0.51100000000E-03 0. -1.
        -11    1    3    3    0    0 -0.73264800885E+01 -0.13998269277E+02  0.82138617024E+01  0.17807200161E+02  0.51100000000E-03 0.  1.
         12    1    3    3    0    0 -0.46814323952E+01 -0.15739967146E+02 -0.17737967044E+02  0.24172253719E+02  0.00000000000E+00 0. -1.
</event>
<event>
 7    1  0.5441610E-013  0.5052886E+02  0.7816164E-02  0.1300439E+00
        -11   -1    0    0    0    0  0.00000000000E+00  0.00000000000E+00  0.45593999997E+02  0.45594000000E+02  0.51100000000E-03 0. -1.
         11   -1    0    0    0    0 -0.00000000000E+00 -0.00000000000E+00 -0.45593999997E+02  0.45594000000E+02  0.51100000000E-03 0.  1.
    9900012    2    1    2    0    0  0.40120106643E+02  0.20201325894E+01 -0.62818648559E+01  0.50528859345E+02  0.29999998465E+02 0.  0.
        -12    1    1    2    0    0 -0.40120106643E+02 -0.20201325894E+01  0.62818648559E+01  0.40659140655E+02  0.00000000000E+00 0.  1.
         11    1    3    3    0    0 -0.22778177797E+01 -0.58921583304E+00 -0.40578668661E+01  0.46906196711E+01  0.51100000000E-03 0. -1.
        -11    1    3    3    0    0  0.24289520605E+02 -0.34782882577E+01 -0.81181420504E+01  0.25845377363E+02  0.51100000000E-03 0.  1.
         12    1    3    3    0    0  0.18108403818E+02  0.60876366801E+01  0.58941440605E+01  0.19992862311E+02  0.00000000000E+00 0. -1.
</event>
<event>
 7    1  0.5441610E-013  0.5052889E+02  0.7816164E-02  0.1300439E+00
        -11   -1    0    0    0    0  0.00000000000E+00  0.00000000000E+00  0.45593999997E+02  0.45594000000E+02  0.51100000000E-03 0. -1.
         11   -1    0    0    0    0 -0.00000000000E+00 -0.00000000000E+00 -0.45593999997E+02  0.45594000000E+02  0.51100000000E-03 0.  1.
    9900012    2    1    2    0    0  0.19317788212E+02  0.35769153436E+02 -0.74416110841E+00  0.50528892106E+02  0.30000098046E+02 0.  0.
        -12    1    1    2    0    0 -0.19317788212E+02 -0.35769153436E+02  0.74416110841E+00  0.40659107894E+02  0.00000000000E+00 0.  1.
         11    1    3    3    0    0  0.73671378660E+01  0.16704048828E+02 -0.10788479790E+01  0.18288353693E+02  0.51100000000E-03 0. -1.
        -11    1    3    3    0    0  0.12261626478E+02  0.95475612747E+01 -0.97695742980E+01  0.18356143179E+02  0.51100000000E-03 0.  1.
         12    1    3    3    0    0 -0.31097613221E+00  0.95175433341E+01  0.10104261169E+02  0.13884395235E+02  0.00000000000E+00 0. -1.
</event>
<event>
 7    1  0.5441610E-013  0.5052887E+02  0.7816164E-02  0.1300439E+00
        -11   -1    0    0    0    0  0.00000000000E+00  0.00000000000E+00  0.45593999997E+02  0.45594000000E+02  0.51100000000E-03 0.  1.
         11   -1    0    0    0    0 -0.00000000000E+00 -0.00000000000E+00 -0.45593999997E+02  0.45594000000E+02  0.51100000000E-03 0. -1.
    9900012    2    1    2    0    0  0.16033762553E+02  0.28723008673E+02 -0.23897118982E+02  0.50528867392E+02  0.30000022923E+02 0.  0.
        -12    1    1    2    0    0 -0.16033762553E+02 -0.28723008673E+02  0.23897118982E+02  0.40659132608E+02  0.00000000000E+00 0.  1.
         11    1    3    3    0    0  0.50979068504E+01 -0.29664994416E+01 -0.66709749067E+01  0.89045314116E+01  0.51100000000E-03 0.  1.
        -11    1    3    3    0    0 -0.28106730619E+01  0.12520773760E+02 -0.11771181013E+02  0.17413510884E+02  0.51100000000E-03 0. -1.
        -12    1    3    3    0    0  0.13746528764E+02  0.19168734354E+02 -0.54549630629E+01  0.24210825096E+02  0.00000000000E+00 0.  1.
</event>
<event>
 7    1  0.5441610E-013  0.5052886E+02  0.7816164E-02  0.1300439E+00
        -11   -1    0    0    0    0  0.00000000000E+00  0.00000000000E+00  0.45593999997E+02  0.45594000000E+02  0.51100000000E-03 0.  1.
         11   -1    0    0    0    0 -0.00000000000E+00 -0.00000000000E+00 -0.45593999997E+02  0.45594000000E+02  0.51100000000E-03 0. -1.
    9900012    2    1    2    0    0  0.36772315702E+02 -0.26054350934E+01 -0.17151498302E+02  0.50528863412E+02  0.30000010827E+02 0.  0.
        -12    1    1    2    0    0 -0.36772315702E+02  0.26054350934E+01  0.17151498302E+02  0.40659136588E+02  0.00000000000E+00 0.  1.
         11    1    3    3    0    0  0.17377100813E+02 -0.84179559453E+01 -0.16192577974E+02  0.25199706281E+02  0.51100000000E-03 0. -1.
        -11    1    3    3    0    0  0.11174813374E+02  0.54191911539E+01 -0.77671098630E+01  0.14648279169E+02  0.51100000000E-03 0.  1.
        -12    1    3    3    0    0  0.82204015145E+01  0.39332969797E+00  0.68081895345E+01  0.10680877962E+02  0.00000000000E+00 0.  1.
</event>
<event>
 7    1  0.5441610E-013  0.5052884E+02  0.7816164E-02  0.1300439E+00
        -11   -1    0    0    0    0  0.00000000000E+00  0.00000000000E+00  0.45593999997E+02  0.45594000000E+02  0.51100000000E-03 0.  1.
         11   -1    0    0    0    0 -0.00000000000E+00 -0.00000000000E+00 -0.45593999997E+02  0.45594000000E+02  0.51100000000E-03 0. -1.
    9900012    2    1    2    0    0 -0.31503597134E+02  0.19912702450E+02  0.16253455288E+02  0.50528841622E+02  0.29999944593E+02 0.  0.
        -12    1    1    2    0    0  0.31503597134E+02 -0.19912702450E+02 -0.16253455288E+02  0.40659158378E+02  0.00000000000E+00 0.  1.
         11    1    3    3    0    0 -0.96939605203E+01  0.75809392850E+01  0.60358069719E+01  0.13706731086E+02  0.51100000000E-03 0. -1.
        -11    1    3    3    0    0 -0.15958298795E+02  0.10462008414E+02  0.18455112022E+02  0.26546413703E+02  0.51100000000E-03 0.  1.
         12    1    3    3    0    0 -0.58513378185E+01  0.18697547503E+01 -0.82374637052E+01  0.10275696832E+02  0.00000000000E+00 0. -1.
</event>
<event>
 7    1  0.5441610E-013  0.5052886E+02  0.7816164E-02  0.1300439E+00
        -11   -1    0    0    0    0  0.00000000000E+00  0.00000000000E+00  0.45593999997E+02  0.45594000000E+02  0.51100000000E-03 0. -1.
         11   -1    0    0    0    0 -0.00000000000E+00 -0.00000000000E+00 -0.45593999997E+02  0.45594000000E+02  0.51100000000E-03 0.  1.
    9900012    2    1    2    0    0  0.11907779570E+01  0.36955452487E+02  0.16912782592E+02  0.50528860367E+02  0.30000001573E+02 0.  0.
        -12    1    1    2    0    0 -0.11907779570E+01 -0.36955452487E+02 -0.16912782592E+02  0.40659139633E+02  0.00000000000E+00 0.  1.
         11    1    3    3    0    0  0.70462146537E+01  0.73830109781E+01 -0.21713179393E+01  0.10434204038E+02  0.51100000000E-03 0. -1.
        -11    1    3    3    0    0  0.33728036751E+01  0.16752532304E+01 -0.16708178565E+01  0.41199406049E+01  0.51100000000E-03 0.  1.
         12    1    3    3    0    0 -0.92282403719E+01  0.27897188279E+02  0.20754918387E+02  0.35974715725E+02  0.00000000000E+00 0. -1.
</event>
<event>
 7    1  0.8208828E-013  0.5052887E+02  0.7816164E-02  0.1300439E+00
        -11   -1    0    0    0    0  0.00000000000E+00  0.00000000000E+00  0.45593999997E+02  0.45594000000E+02  0.51100000000E-03 0. -1.
         11   -1    0    0    0    0 -0.00000000000E+00 -0.00000000000E+00 -0.45593999997E+02  0.45594000000E+02  0.51100000000E-03 0.  1.
    9900012    2    1    2    0    0 -0.31071589600E+02  0.78520071159E+01  0.25021331536E+02  0.50528871531E+02  0.30000035506E+02 0.  0.
        -12    1    1    2    0    0  0.31071589600E+02 -0.78520071159E+01 -0.25021331536E+02  0.40659128469E+02  0.00000000000E+00 0.  1.
         11    1    3    3    0    0 -0.58782442583E+01  0.80946388982E+01  0.16097187696E+02  0.18952477053E+02  0.51100000000E-03 0. -1.
        -11    1    3    3    0    0 -0.16702744039E+02  0.50290631922E+01  0.11938479458E+02  0.21137654247E+02  0.51100000000E-03 0.  1.
        -12    1    3    3    0    0 -0.84906013035E+01 -0.52716949744E+01 -0.30143356189E+01  0.10438740232E+02  0.00000000000E+00 0.  1.
</event>
<event>
 7    1  0.5441610E-013  0.5052886E+02  0.7816164E-02  0.1300439E+00
        -11   -1    0    0    0    0  0.00000000000E+00  0.00000000000E+00  0.45593999997E+02  0.45594000000E+02  0.51100000000E-03 0.  1.
         11   -1    0    0    0    0 -0.00000000000E+00 -0.00000000000E+00 -0.45593999997E+02  0.45594000000E+02  0.51100000000E-03 0. -1.
    9900012    2    1    2    0    0 -0.26241673496E+02 -0.12834902080E+02 -0.28280840009E+02  0.50528855261E+02  0.29999986052E+02 0.  0.
        -12    1    1    2    0    0  0.26241673496E+02  0.12834902080E+02  0.28280840009E+02  0.40659144739E+02  0.00000000000E+00 0.  1.
         11    1    3    3    0    0 -0.13053870684E+02 -0.16731098920E+02 -0.12885918806E+02  0.24827003739E+02  0.51100000000E-03 0. -1.
        -11    1    3    3    0    0 -0.12982378397E+02 -0.27206871027E+01 -0.69606893922E+01  0.14979835921E+02  0.51100000000E-03 0.  1.
         12    1    3    3    0    0 -0.20542441540E+00  0.66168839431E+01 -0.84342318109E+01  0.10722015601E+02  0.00000000000E+00 0. -1.
</event>
<event>
 7    1  0.5441610E-013  0.5052886E+02  0.7816164E-02  0.1300439E+00
        -11   -1    0    0    0    0  0.00000000000E+00  0.00000000000E+00  0.45593999997E+02  0.45594000000E+02  0.51100000000E-03 0. -1.
         11   -1    0    0    0    0 -0.00000000000E+00 -0.00000000000E+00 -0.45593999997E+02  0.45594000000E+02  0.51100000000E-03 0.  1.
    9900012    2    1    2    0    0 -0.34040363447E+02  0.20572976435E+02 -0.84363610699E+01  0.50528857226E+02  0.29999992025E+02 0.  0.
        -12    1    1    2    0    0  0.34040363447E+02 -0.20572976435E+02  0.84363610699E+01  0.40659142774E+02  0.00000000000E+00 0.  1.
         11    1    3    3    0    0  0.70284388524E+00 -0.70194721148E+00  0.60626019206E+00  0.11637315396E+01  0.51100000000E-03 0. -1.
        -11    1    3    3    0    0 -0.23123243830E+01  0.10634620010E+02 -0.10607622587E+02  0.15197488082E+02  0.51100000000E-03 0.  1.
         12    1    3    3    0    0 -0.32430882949E+02  0.10640303636E+02  0.15650013247E+01  0.34167637605E+02  0.00000000000E+00 0. -1.
</event>
<event>
 7    1  0.5441610E-013  0.5052886E+02  0.7816164E-02  0.1300439E+00
        -11   -1    0    0    0    0  0.00000000000E+00  0.00000000000E+00  0.45593999997E+02  0.45594000000E+02  0.51100000000E-03 0.  1.
         11   -1    0    0    0    0 -0.00000000000E+00 -0.00000000000E+00 -0.45593999997E+02  0.45594000000E+02  0.51100000000E-03 0. -1.
    9900012    2    1    2    0    0 -0.24605819998E+02  0.15072432608E+02 -0.28645089271E+02  0.50528859061E+02  0.29999997603E+02 0.  0.
        -12    1    1    2    0    0  0.24605819998E+02 -0.15072432608E+02  0.28645089271E+02  0.40659140939E+02  0.00000000000E+00 0.  1.
         11    1    3    3    0    0 -0.12076902839E+02  0.55784079601E+01 -0.37005852230E+01  0.13808133429E+02  0.51100000000E-03 0. -1.
        -11    1    3    3    0    0 -0.14510869753E+02  0.20304932624E+01 -0.52466597049E+01  0.15563279931E+02  0.51100000000E-03 0.  1.
        -12    1    3    3    0    0  0.19819525939E+01  0.74635313860E+01 -0.19697844343E+02  0.21157445701E+02  0.00000000000E+00 0.  1.
</event>
<event>
 7    1  0.5441610E-013  0.5052887E+02  0.7816164E-02  0.1300439E+00
        -11   -1    0    0    0    0  0.00000000000E+00  0.00000000000E+00  0.45593999997E+02  0.45594000000E+02  0.51100000000E-03 0. -1.
         11   -1    0    0    0    0 -0.00000000000E+00 -0.00000000000E+00 -0.45593999997E+02  0.45594000000E+02  0.51100000000E-03 0.  1.
    9900012    2    1    2    0    0 -0.75669233073E+01  0.39311931185E+02  0.71048452176E+01  0.50528867110E+02  0.30000022067E+02 0.  0.
        -12    1    1    2    0    0  0.75669233073E+01 -0.39311931185E+02 -0.71048452176E+01  0.40659132890E+02  0.00000000000E+00 0.  1.
         11    1    3    3    0    0 -0.16824652152E+02  0.21032659846E+02  0.22873613778E+01  0.27030977092E+02  0.51100000000E-03 0. -1.
        -11    1    3    3    0    0  0.23172280055E+01  0.15204548365E+02  0.26824768548E+01  0.15612287435E+02  0.51100000000E-03 0.  1.
        -12    1    3    3    0    0  0.69405008390E+01  0.30747229733E+01  0.21350069851E+01  0.78856025822E+01  0.00000000000E+00 0.  1.
</event>
<event>
 7    1  0.7007986E-013  0.5052886E+02  0.7816164E-02  0.1300439E+00
        -11   -1    0    0    0    0  0.00000000000E+00  0.00000000000E+00  0.45593999997E+02  0.45594000000E+02  0.51100000000E-03 0. -1.
         11   -1    0    0    0    0 -0.00000000000E+00 -0.00000000000E+00 -0.45593999997E+02  0.45594000000E+02  0.51100000000E-03 0.  1.
    9900012    2    1    2    0    0 -0.30689965396E+02  0.17479534618E+02  0.20143431195E+02  0.50528856788E+02  0.29999990691E+02 0.  0.
        -12    1    1    2    0    0  0.30689965396E+02 -0.17479534618E+02 -0.20143431195E+02  0.40659143212E+02  0.00000000000E+00 0.  1.
         11    1    3    3    0    0 -0.11971632519E+02  0.71548185980E+01  0.19983982271E+02  0.24369467824E+02  0.51100000000E-03 0. -1.
        -11    1    3    3    0    0 -0.17608368709E+02  0.74378889410E+01  0.55851368322E+01  0.19914080299E+02  0.51100000000E-03 0.  1.
        -12    1    3    3    0    0 -0.11099641686E+01  0.28868270787E+01 -0.54256879081E+01  0.62453086644E+01  0.00000000000E+00 0.  1.
</event>
<event>
 7    1  0.5441610E-013  0.5052886E+02  0.7816164E-02  0.1300439E+00
        -11   -1    0    0    0    0  0.00000000000E+00  0.00000000000E+00  0.45593999997E+02  0.45594000000E+02  0.51100000000E-03 0.  1.
         11   -1    0    0    0    0 -0.00000000000E+00 -0.00000000000E+00 -0.45593999997E+02  0.45594000000E+02  0.51100000000E-03 0. -1.
    9900012    2    1    2    0    0 -0.69005785011E+00  0.13651446319E+02 -0.38292654700E+02  0.50528861169E+02  0.30000004010E+02 0.  0.
        -12    1    1    2    0    0  0.69005785011E+00 -0.13651446319E+02  0.38292654700E+02  0.40659138831E+02  0.00000000000E+00 0.  1.
         11    1    3    3    0    0 -0.97287274684E+01  0.96880666511E+01 -0.26152244032E+02  0.29537207752E+02  0.51100000000E-03 0. -1.
        -11    1    3    3    0    0 -0.27611359607E+01  0.88152516889E+00 -0.73288604087E+01  0.78811898574E+01  0.51100000000E-03 0.  1.
        -12    1    3    3    0    0  0.11799805579E+02  0.30818544994E+01 -0.48115502594E+01  0.13110463560E+02  0.00000000000E+00 0.  1.
</event>
<event>
 7    1  0.5441610E-013  0.5052886E+02  0.7816164E-02  0.1300439E+00
        -11   -1    0    0    0    0  0.00000000000E+00  0.00000000000E+00  0.45593999997E+02  0.45594000000E+02  0.51100000000E-03 0.  1.
         11   -1    0    0    0    0 -0.00000000000E+00 -0.00000000000E+00 -0.45593999997E+02  0.45594000000E+02  0.51100000000E-03 0. -1.
    9900012    2    1    2    0    0 -0.39445536873E+02  0.33886668447E+01  0.92591623289E+01  0.50528861677E+02  0.30000005552E+02 0.  0.
        -12    1    1    2    0    0  0.39445536873E+02 -0.33886668447E+01 -0.92591623289E+01  0.40659138323E+02  0.00000000000E+00 0.  1.
         11    1    3    3    0    0 -0.15408938646E+02  0.15971333407E+01  0.86375195426E+01  0.17736768849E+02  0.51100000000E-03 0. -1.
        -11    1    3    3    0    0 -0.48987748977E+01 -0.90051691084E+01 -0.26202130226E+01  0.10580953771E+02  0.51100000000E-03 0.  1.
         12    1    3    3    0    0 -0.19137823329E+02  0.10796702612E+02  0.32418558089E+01  0.22211139056E+02  0.00000000000E+00 0. -1.
</event>
<event>
 7    1  0.5441610E-013  0.5052877E+02  0.7816164E-02  0.1300439E+00
        -11   -1    0    0    0    0  0.00000000000E+00  0.00000000000E+00  0.45593999997E+02  0.45594000000E+02  0.51100000000E-03 0.  1.
         11   -1    0    0    0    0 -0.00000000000E+00 -0.00000000000E+00 -0.45593999997E+02  0.45594000000E+02  0.51100000000E-03 0. -1.
    9900012    2    1    2    0    0  0.13770010074E+02  0.18905507817E+02 -0.33258706072E+02  0.50528770631E+02  0.29999728810E+02 0.  0.
        -12    1    1    2    0    0 -0.13770010074E+02 -0.18905507817E+02  0.33258706072E+02  0.40659229369E+02  0.00000000000E+00 0.  1.
         11    1    3    3    0    0 -0.17870434633E+01 -0.18477641388E+01  0.18712109845E+00  0.25773574100E+01  0.51100000000E-03 0.  1.
        -11    1    3    3    0    0  0.17197716368E+02  0.56135921176E+01 -0.23914293773E+02  0.29986118650E+02  0.51100000000E-03 0. -1.
        -12    1    3    3    0    0 -0.16406628312E+01  0.15139679838E+02 -0.95315333974E+01  0.17965294571E+02  0.00000000000E+00 0.  1.
</event>
<event>
 7    1  0.5441610E-013  0.5052886E+02  0.7816164E-02  0.1300439E+00
        -11   -1    0    0    0    0  0.00000000000E+00  0.00000000000E+00  0.45593999997E+02  0.45594000000E+02  0.51100000000E-03 0.  1.
         11   -1    0    0    0    0 -0.00000000000E+00 -0.00000000000E+00 -0.45593999997E+02  0.45594000000E+02  0.51100000000E-03 0. -1.
    9900012    2    1    2    0    0  0.29914936605E+02 -0.24856008759E+02 -0.11850790740E+02  0.50528857797E+02  0.29999993759E+02 0.  0.
        -12    1    1    2    0    0 -0.29914936605E+02  0.24856008759E+02  0.11850790740E+02  0.40659142203E+02  0.00000000000E+00 0.  1.
         11    1    3    3    0    0  0.12730323487E+02 -0.10012149474E+01 -0.62918098118E+01  0.14235534356E+02  0.51100000000E-03 0. -1.
        -11    1    3    3    0    0  0.16184151192E+02 -0.14952999530E+02 -0.12158990190E+02  0.25166644343E+02  0.51100000000E-03 0.  1.
        -12    1    3    3    0    0  0.10004619262E+01 -0.89017942815E+01  0.66000092613E+01  0.11126679098E+02  0.00000000000E+00 0.  1.
</event>
<event>
 7    1  0.5441610E-013  0.5052886E+02  0.7816164E-02  0.1300439E+00
        -11   -1    0    0    0    0  0.00000000000E+00  0.00000000000E+00  0.45593999997E+02  0.45594000000E+02  0.51100000000E-03 0.  1.
         11   -1    0    0    0    0 -0.00000000000E+00 -0.00000000000E+00 -0.45593999997E+02  0.45594000000E+02  0.51100000000E-03 0. -1.
    9900012    2    1    2    0    0  0.18418764913E+02 -0.35303039982E+02  0.82225477772E+01  0.50528858041E+02  0.29999994503E+02 0.  0.
        -12    1    1    2    0    0 -0.18418764913E+02  0.35303039982E+02 -0.82225477772E+01  0.40659141959E+02  0.00000000000E+00 0.  1.
         11    1    3    3    0    0 -0.19503593907E+01 -0.38956067900E+00 -0.10793348730E+01  0.22628794278E+01  0.51100000000E-03 0. -1.
        -11    1    3    3    0    0  0.33262644162E+01  0.37816233419E+01  0.36311414616E+00  0.50494120658E+01  0.51100000000E-03 0.  1.
         12    1    3    3    0    0  0.17042859887E+02 -0.38695102644E+02  0.89387685041E+01  0.43216566548E+02  0.00000000000E+00 0. -1.
</event>
<event>
 7    1  0.5441610E-013  0.5052888E+02  0.7816164E-02  0.1300439E+00
        -11   -1    0    0    0    0  0.00000000000E+00  0.00000000000E+00  0.45593999997E+02  0.45594000000E+02  0.51100000000E-03 0. -1.
         11   -1    0    0    0    0 -0.00000000000E+00 -0.00000000000E+00 -0.45593999997E+02  0.45594000000E+02  0.51100000000E-03 0.  1.
    9900012    2    1    2    0    0  0.62141376921E+01  0.11790749622E+02  0.38412586363E+02  0.50528879559E+02  0.30000059909E+02 0.  0.
        -12    1    1    2    0    0 -0.62141376921E+01 -0.11790749622E+02 -0.38412586363E+02  0.40659120441E+02  0.00000000000E+00 0.  1.
         11    1    3    3    0    0 -0.20859289645E+01  0.27256414672E+00  0.59820544224E+00  0.21870621554E+01  0.51100000000E-03 0. -1.
        -11    1    3    3    0    0  0.11205841171E+02 -0.53411083275E+01  0.20740810760E+02  0.24171875098E+02  0.51100000000E-03 0.  1.
         12    1    3    3    0    0 -0.29057745139E+01  0.16859293803E+02  0.17073570161E+02  0.24169942306E+02  0.00000000000E+00 0. -1.
</event>
<event>
 7    1  0.5441610E-013  0.5052886E+02  0.7816164E-02  0.1300439E+00
        -11   -1    0    0    0    0  0.00000000000E+00  0.00000000000E+00  0.45593999997E+02  0.45594000000E+02  0.51100000000E-03 0. -1.
         11   -1    0    0    0    0 -0.00000000000E+00 -0.00000000000E+00 -0.45593999997E+02  0.45594000000E+02  0.51100000000E-03 0.  1.
    9900012    2    1    2    0    0 -0.38585310435E+02 -0.12765594926E+02  0.11743097972E+01  0.50528860822E+02  0.30000002954E+02 0.  0.
        -12    1    1    2    0    0  0.38585310435E+02  0.12765594926E+02 -0.11743097972E+01  0.40659139178E+02  0.00000000000E+00 0.  1.
         11    1    3    3    0    0 -0.14175572770E+02 -0.14308804717E+02  0.63721464822E+01  0.21125648081E+02  0.51100000000E-03 0. -1.
        -11    1    3    3    0    0 -0.90518201176E+00  0.39670997977E+01  0.22222763291E+01  0.46363506795E+01  0.51100000000E-03 0.  1.
         12    1    3    3    0    0 -0.23504555654E+02 -0.24238900065E+01 -0.74201130141E+01  0.24766862062E+02  0.00000000000E+00 0. -1.
</event>
<event>
 7    1  0.8238892E-013  0.5052886E+02  0.7816164E-02  0.1300439E+00
        -11   -1    0    0    0    0  0.00000000000E+00  0.00000000000E+00  0.45593999997E+02  0.45594000000E+02  0.51100000000E-03 0. -1.
         11   -1    0    0    0    0 -0.00000000000E+00 -0.00000000000E+00 -0.45593999997E+02  0.45594000000E+02  0.51100000000E-03 0.  1.
    9900012    2    1    2    0    0  0.24704396386E+02 -0.30652666535E+02  0.10162291817E+02  0.50528863985E+02  0.30000012568E+02 0.  0.
        -12    1    1    2    0    0 -0.24704396386E+02  0.30652666535E+02 -0.10162291817E+02  0.40659136015E+02  0.00000000000E+00 0.  1.
         11    1    3    3    0    0  0.16467928894E+02 -0.11124659034E+02  0.85607379868E+01  0.21638783603E+02  0.51100000000E-03 0. -1.
        -11    1    3    3    0    0  0.97399115627E+01 -0.13216130073E+01 -0.25528934341E+01  0.10155284503E+02  0.51100000000E-03 0.  1.
        -12    1    3    3    0    0 -0.15034440700E+01 -0.18206394494E+02  0.41544472645E+01  0.18734795879E+02  0.00000000000E+00 0.  1.
</event>
<event>
 7    1  0.5441610E-013  0.5052888E+02  0.7816164E-02  0.1300439E+00
        -11   -1    0    0    0    0  0.00000000000E+00  0.00000000000E+00  0.45593999997E+02  0.45594000000E+02  0.51100000000E-03 0.  1.
         11   -1    0    0    0    0 -0.00000000000E+00 -0.00000000000E+00 -0.45593999997E+02  0.45594000000E+02  0.51100000000E-03 0. -1.
    9900012    2    1    2    0    0 -0.19792236910E+02 -0.21065334542E+02 -0.28595152597E+02  0.50528884007E+02  0.30000073428E+02 0.  0.
        -12    1    1    2    0    0  0.19792236910E+02  0.21065334542E+02  0.28595152597E+02  0.40659115993E+02  0.00000000000E+00 0.  1.
         11    1    3    3    0    0 -0.97595601914E+01 -0.45846566919E+01 -0.37481900157E+00  0.10789280868E+02  0.51100000000E-03 0. -1.
        -11    1    3    3    0    0 -0.10655771560E+02 -0.14976561691E+00 -0.16446612453E+02  0.19597422247E+02  0.51100000000E-03 0.  1.
        -12    1    3    3    0    0  0.62309484111E+00 -0.16330912233E+02 -0.11773721143E+02  0.20142180892E+02  0.00000000000E+00 0.  1.
</event>
<event>
 7    1  0.5441610E-013  0.5052886E+02  0.7816164E-02  0.1300439E+00
        -11   -1    0    0    0    0  0.00000000000E+00  0.00000000000E+00  0.45593999997E+02  0.45594000000E+02  0.51100000000E-03 0.  1.
         11   -1    0    0    0    0 -0.00000000000E+00 -0.00000000000E+00 -0.45593999997E+02  0.45594000000E+02  0.51100000000E-03 0. -1.
    9900012    2    1    2    0    0 -0.44048150498E+01 -0.38681176367E+02 -0.11727327581E+02  0.50528855728E+02  0.29999987470E+02 0.  0.
        -12    1    1    2    0    0  0.44048150498E+01  0.38681176367E+02  0.11727327581E+02  0.40659144272E+02  0.00000000000E+00 0.  1.
         11    1    3    3    0    0 -0.49483168602E+01 -0.76328847069E+01 -0.43295440647E+01  0.10074309940E+02  0.51100000000E-03 0. -1.
        -11    1    3    3    0    0 -0.27993773874E+01  0.18881715304E+01  0.41883828102E+01  0.53799866460E+01  0.51100000000E-03 0.  1.
         12    1    3    3    0    0  0.33428791978E+01 -0.32936463191E+02 -0.11586166326E+02  0.35074559142E+02  0.00000000000E+00 0. -1.
</event>
<event>
 7    1  0.5441610E-013  0.5052886E+02  0.7816164E-02  0.1300439E+00
        -11   -1    0    0    0    0  0.00000000000E+00  0.00000000000E+00  0.45593999997E+02  0.45594000000E+02  0.51100000000E-03 0.  1.
         11   -1    0    0    0    0 -0.00000000000E+00 -0.00000000000E+00 -0.45593999997E+02  0.45594000000E+02  0.51100000000E-03 0. -1.
    9900012    2    1    2    0    0  0.18155809334E+02  0.33511845580E+02  0.14159398658E+02  0.50528858629E+02  0.29999996288E+02 0.  0.
        -12    1    1    2    0    0 -0.18155809334E+02 -0.33511845580E+02 -0.14159398658E+02  0.40659141371E+02  0.00000000000E+00 0.  1.
         11    1    3    3    0    0  0.10358790296E+02  0.13495344375E+02 -0.46834776129E+01  0.17645504215E+02  0.51100000000E-03 0. -1.
        -11    1    3    3    0    0  0.58446616372E+01  0.17331129457E+02  0.54496135728E+01  0.19084716562E+02  0.51100000000E-03 0.  1.
         12    1    3    3    0    0  0.19523574003E+01  0.26853717473E+01  0.13393262698E+02  0.13798637851E+02  0.00000000000E+00 0. -1.
</event>
<event>
 7    1  0.5441610E-013  0.5052886E+02  0.7816164E-02  0.1300439E+00
        -11   -1    0    0    0    0  0.00000000000E+00  0.00000000000E+00  0.45593999997E+02  0.45594000000E+02  0.51100000000E-03 0. -1.
         11   -1    0    0    0    0 -0.00000000000E+00 -0.00000000000E+00 -0.45593999997E+02  0.45594000000E+02  0.51100000000E-03 0.  1.
    9900012    2    1    2    0    0 -0.22270870985E+02 -0.18124238361E+02  0.28786906580E+02  0.50528859563E+02  0.29999999129E+02 0.  0.
        -12    1    1    2    0    0  0.22270870985E+02  0.18124238361E+02 -0.28786906580E+02  0.40659140437E+02  0.00000000000E+00 0.  1.
         11    1    3    3    0    0 -0.12903938074E+02 -0.11831288740E+02  0.22451110083E+02  0.28470043121E+02  0.51100000000E-03 0. -1.
        -11    1    3    3    0    0  0.16452987457E+01 -0.90867474600E+01  0.53079792288E+01  0.10651320628E+02  0.51100000000E-03 0.  1.
        -12    1    3    3    0    0 -0.11012231657E+02  0.27937978387E+01  0.10278172677E+01  0.11407495815E+02  0.00000000000E+00 0.  1.
</event>
<event>
 7    1  0.5441610E-013  0.5052887E+02  0.7816164E-02  0.1300439E+00
        -11   -1    0    0    0    0  0.00000000000E+00  0.00000000000E+00  0.45593999997E+02  0.45594000000E+02  0.51100000000E-03 0.  1.
         11   -1    0    0    0    0 -0.00000000000E+00 -0.00000000000E+00 -0.45593999997E+02  0.45594000000E+02  0.51100000000E-03 0. -1.
    9900012    2    1    2    0    0  0.30833983574E+02 -0.23991054846E+02 -0.11263202734E+02  0.50528868289E+02  0.30000025650E+02 0.  0.
        -12    1    1    2    0    0 -0.30833983574E+02  0.23991054846E+02  0.11263202734E+02  0.40659131711E+02  0.00000000000E+00 0.  1.
         11    1    3    3    0    0  0.49754646853E+01  0.44559095162E+01 -0.69889855663E+01  0.96672797600E+01  0.51100000000E-03 0. -1.
        -11    1    3    3    0    0  0.30674212355E+01 -0.19283616501E+01  0.35037889980E+01  0.50402568678E+01  0.51100000000E-03 0.  1.
         12    1    3    3    0    0  0.22791097654E+02 -0.26518602712E+02 -0.77780061660E+01  0.35821331661E+02  0.00000000000E+00 0. -1.
</event>
<event>
 7    1  0.5441610E-013  0.5052883E+02  0.7816164E-02  0.1300439E+00
        -11   -1    0    0    0    0  0.00000000000E+00  0.00000000000E+00  0.45593999997E+02  0.45594000000E+02  0.51100000000E-03 0. -1.
         11   -1    0    0    0    0 -0.00000000000E+00 -0.00000000000E+00 -0.45593999997E+02  0.45594000000E+02  0.51100000000E-03 0.  1.
    9900012    2    1    2    0    0  0.37809602850E+02  0.14950677043E+02 -0.28208337060E+00  0.50528826586E+02  0.29999898890E+02 0.  0.
        -12    1    1    2    0    0 -0.37809602850E+02 -0.14950677043E+02  0.28208337060E+00  0.40659173414E+02  0.00000000000E+00 0.  1.
         11    1    3    3    0    0  0.12443459682E+02  0.43133985935E+01  0.80069779312E+01  0.15412877478E+02  0.51100000000E-03 0. -1.
        -11    1    3    3    0    0  0.19229522979E+02  0.16701437318E+02 -0.55882833409E+01  0.26075687402E+02  0.51100000000E-03 0.  1.
        -12    1    3    3    0    0  0.61366201886E+01 -0.60641588693E+01 -0.27007779610E+01  0.90402617066E+01  0.00000000000E+00 0.  1.
</event>
<event>
 7    1  0.5441610E-013  0.5052887E+02  0.7816164E-02  0.1300439E+00
        -11   -1    0    0    0    0  0.00000000000E+00  0.00000000000E+00  0.45593999997E+02  0.45594000000E+02  0.51100000000E-03 0.  1.
         11   -1    0    0    0    0 -0.00000000000E+00 -0.00000000000E+00 -0.45593999997E+02  0.45594000000E+02  0.51100000000E-03 0. -1.
    9900012    2    1    2    0    0  0.28035514001E+02  0.17737984812E+02 -0.23506138241E+02  0.50528872052E+02  0.30000037090E+02 0.  0.
        -12    1    1    2    0    0 -0.28035514001E+02 -0.17737984812E+02  0.23506138241E+02  0.40659127948E+02  0.00000000000E+00 0.  1.
         11    1    3    3    0    0  0.18640708555E+02  0.11256323260E+02 -0.18097847214E+02  0.28314535186E+02  0.51100000000E-03 0. -1.
        -11    1    3    3    0    0 -0.57332297924E-01  0.14162817355E+01 -0.10321625065E+02  0.10418497261E+02  0.51100000000E-03 0.  1.
        -12    1    3    3    0    0  0.94521377440E+01  0.50653798160E+01  0.49133340380E+01  0.11795839605E+02  0.00000000000E+00 0.  1.
</event>
<event>
 7    1  0.5441610E-013  0.5052886E+02  0.7816164E-02  0.1300439E+00
        -11   -1    0    0    0    0  0.00000000000E+00  0.00000000000E+00  0.45593999997E+02  0.45594000000E+02  0.51100000000E-03 0.  1.
         11   -1    0    0    0    0 -0.00000000000E+00 -0.00000000000E+00 -0.45593999997E+02  0.45594000000E+02  0.51100000000E-03 0. -1.
    9900012    2    1    2    0    0 -0.24023916545E+01 -0.23863844567E+02 -0.32831557498E+02  0.50528859195E+02  0.29999998011E+02 0.  0.
        -12    1    1    2    0    0  0.24023916545E+01  0.23863844567E+02  0.32831557498E+02  0.40659140805E+02  0.00000000000E+00 0.  1.
         11    1    3    3    0    0  0.29918089647E+01 -0.95000714478E+01 -0.15771327435E+02  0.18653070731E+02  0.51100000000E-03 0.  1.
        -11    1    3    3    0    0  0.21019774679E+01 -0.10646934077E+02  0.20225288092E+01  0.11039299686E+02  0.51100000000E-03 0. -1.
        -12    1    3    3    0    0 -0.74961780872E+01 -0.37168390422E+01 -0.19082758873E+02  0.20836488778E+02  0.00000000000E+00 0.  1.
</event>
<event>
 7    1  0.5441610E-013  0.5052887E+02  0.7816164E-02  0.1300439E+00
        -11   -1    0    0    0    0  0.00000000000E+00  0.00000000000E+00  0.45593999997E+02  0.45594000000E+02  0.51100000000E-03 0.  1.
         11   -1    0    0    0    0 -0.00000000000E+00 -0.00000000000E+00 -0.45593999997E+02  0.45594000000E+02  0.51100000000E-03 0. -1.
    9900012    2    1    2    0    0  0.31851037885E+02 -0.17883842916E+02  0.17856205489E+02  0.50528874010E+02  0.30000043040E+02 0.  0.
        -12    1    1    2    0    0 -0.31851037885E+02  0.17883842916E+02 -0.17856205489E+02  0.40659125990E+02  0.00000000000E+00 0.  1.
         11    1    3    3    0    0  0.12005298616E+02 -0.11715169106E+02  0.28462910389E+01  0.17013928264E+02  0.51100000000E-03 0. -1.
        -11    1    3    3    0    0  0.10225593045E+02 -0.13739103435E+01 -0.44873436708E+01  0.11251072670E+02  0.51100000000E-03 0.  1.
        -12    1    3    3    0    0  0.96201462250E+01 -0.47947634668E+01  0.19497258121E+02  0.22263873076E+02  0.00000000000E+00 0.  1.
</event>
<event>
 7    1  0.5441610E-013  0.5052886E+02  0.7816164E-02  0.1300439E+00
        -11   -1    0    0    0    0  0.00000000000E+00  0.00000000000E+00  0.45593999997E+02  0.45594000000E+02  0.51100000000E-03 0. -1.
         11   -1    0    0    0    0 -0.00000000000E+00 -0.00000000000E+00 -0.45593999997E+02  0.45594000000E+02  0.51100000000E-03 0.  1.
    9900012    2    1    2    0    0 -0.21524977913E+02 -0.94731633126E+01  0.33167763269E+02  0.50528855671E+02  0.29999987298E+02 0.  0.
        -12    1    1    2    0    0  0.21524977913E+02  0.94731633126E+01 -0.33167763269E+02  0.40659144329E+02  0.00000000000E+00 0.  1.
         11    1    3    3    0    0 -0.15972812771E+02 -0.26476500757E+01  0.14519572553E+02  0.21747615642E+02  0.51100000000E-03 0. -1.
        -11    1    3    3    0    0 -0.61196715776E+00  0.92394510833E+00  0.19518493262E+02  0.19549929868E+02  0.51100000000E-03 0.  1.
        -12    1    3    3    0    0 -0.49401979841E+01 -0.77494583453E+01 -0.87030254591E+00  0.92313101610E+01  0.00000000000E+00 0.  1.
</event>
<event>
 7    1  0.5441610E-013  0.5052886E+02  0.7816164E-02  0.1300439E+00
        -11   -1    0    0    0    0  0.00000000000E+00  0.00000000000E+00  0.45593999997E+02  0.45594000000E+02  0.51100000000E-03 0. -1.
         11   -1    0    0    0    0 -0.00000000000E+00 -0.00000000000E+00 -0.45593999997E+02  0.45594000000E+02  0.51100000000E-03 0.  1.
    9900012    2    1    2    0    0 -0.17630825633E+02  0.32885126586E+02  0.16152037663E+02  0.50528857317E+02  0.29999992299E+02 0.  0.
        -12    1    1    2    0    0  0.17630825633E+02 -0.32885126586E+02 -0.16152037663E+02  0.40659142683E+02  0.00000000000E+00 0.  1.
         11    1    3    3    0    0 -0.80440430459E+00  0.19175716635E+02  0.22850022390E+01  0.19328124851E+02  0.51100000000E-03 0. -1.
        -11    1    3    3    0    0  0.13210642252E+01  0.89331201718E+01  0.29987413489E+01  0.95151614084E+01  0.51100000000E-03 0.  1.
        -12    1    3    3    0    0 -0.18147485553E+02  0.47762897790E+01  0.10868294075E+02  0.21685571057E+02  0.00000000000E+00 0.  1.
</event>
<event>
 7    1  0.5441610E-013  0.5052883E+02  0.7816164E-02  0.1300439E+00
        -11   -1    0    0    0    0  0.00000000000E+00  0.00000000000E+00  0.45593999997E+02  0.45594000000E+02  0.51100000000E-03 0.  1.
         11   -1    0    0    0    0 -0.00000000000E+00 -0.00000000000E+00 -0.45593999997E+02  0.45594000000E+02  0.51100000000E-03 0. -1.
    9900012    2    1    2    0    0  0.38230968337E+02 -0.94403752894E+01 -0.10121287609E+02  0.50528830204E+02  0.29999909888E+02 0.  0.
        -12    1    1    2    0    0 -0.38230968337E+02  0.94403752894E+01  0.10121287609E+02  0.40659169796E+02  0.00000000000E+00 0.  1.
         11    1    3    3    0    0  0.10405525808E+02 -0.14728624422E+01 -0.54497801975E+01  0.11838259821E+02  0.51100000000E-03 0. -1.
        -11    1    3    3    0    0  0.10482409344E+02  0.85265966316E+01  0.24215839925E+01  0.13727629987E+02  0.51100000000E-03 0.  1.
        -12    1    3    3    0    0  0.17343033185E+02 -0.16494109479E+02 -0.70930914042E+01  0.24962940396E+02  0.00000000000E+00 0.  1.
</event>
<event>
 7    1  0.5441610E-013  0.5052886E+02  0.7816164E-02  0.1300439E+00
        -11   -1    0    0    0    0  0.00000000000E+00  0.00000000000E+00  0.45593999997E+02  0.45594000000E+02  0.51100000000E-03 0.  1.
         11   -1    0    0    0    0 -0.00000000000E+00 -0.00000000000E+00 -0.45593999997E+02  0.45594000000E+02  0.51100000000E-03 0. -1.
    9900012    2    1    2    0    0  0.30150996725E+02 -0.26278032858E+02 -0.73176518601E+01  0.50528860276E+02  0.30000001294E+02 0.  0.
        -12    1    1    2    0    0 -0.30150996725E+02  0.26278032858E+02  0.73176518601E+01  0.40659139724E+02  0.00000000000E+00 0.  1.
         11    1    3    3    0    0  0.91936923902E+00 -0.70860358386E+01  0.11071929806E+01  0.72306998458E+01  0.51100000000E-03 0. -1.
        -11    1    3    3    0    0  0.25829416523E+01  0.43900698615E+01  0.30160738674E+01  0.59195441381E+01  0.51100000000E-03 0.  1.
         12    1    3    3    0    0  0.26648685833E+02 -0.23582066881E+02 -0.11440918708E+02  0.37378616292E+02  0.00000000000E+00 0. -1.
</event>
<event>
 7    1  0.5441610E-013  0.5052886E+02  0.7816164E-02  0.1300439E+00
        -11   -1    0    0    0    0  0.00000000000E+00  0.00000000000E+00  0.45593999997E+02  0.45594000000E+02  0.51100000000E-03 0.  1.
         11   -1    0    0    0    0 -0.00000000000E+00 -0.00000000000E+00 -0.45593999997E+02  0.45594000000E+02  0.51100000000E-03 0. -1.
    9900012    2    1    2    0    0 -0.19312382189E+02  0.31403890429E+02 -0.17146236274E+02  0.50528857630E+02  0.29999993251E+02 0.  0.
        -12    1    1    2    0    0  0.19312382189E+02 -0.31403890429E+02  0.17146236274E+02  0.40659142370E+02  0.00000000000E+00 0.  1.
         11    1    3    3    0    0  0.26424836535E+01 -0.11442030358E+01  0.14506573951E+00  0.28832212499E+01  0.51100000000E-03 0. -1.
        -11    1    3    3    0    0 -0.24237887782E+01 -0.28887933091E+01 -0.26771216289E+01  0.46245928795E+01  0.51100000000E-03 0.  1.
         12    1    3    3    0    0 -0.19531077064E+02  0.35436886774E+02 -0.14614180385E+02  0.43021043500E+02  0.00000000000E+00 0. -1.
</event>
<event>
 7    1  0.7029367E-013  0.5052885E+02  0.7816164E-02  0.1300439E+00
        -11   -1    0    0    0    0  0.00000000000E+00  0.00000000000E+00  0.45593999997E+02  0.45594000000E+02  0.51100000000E-03 0. -1.
         11   -1    0    0    0    0 -0.00000000000E+00 -0.00000000000E+00 -0.45593999997E+02  0.45594000000E+02  0.51100000000E-03 0.  1.
    9900012    2    1    2    0    0 -0.10773611931E+02  0.20395772100E+02  0.33482955140E+02  0.50528849511E+02  0.29999968573E+02 0.  0.
        -12    1    1    2    0    0  0.10773611931E+02 -0.20395772100E+02 -0.33482955140E+02  0.40659150489E+02  0.00000000000E+00 0.  1.
         11    1    3    3    0    0 -0.14154199574E+02  0.91663103407E+01  0.12590473828E+02  0.21044777079E+02  0.51100000000E-03 0.  1.
        -11    1    3    3    0    0 -0.20537984606E+01 -0.40086459988E+01  0.32997798694E+01  0.55835363622E+01  0.51100000000E-03 0. -1.
        -12    1    3    3    0    0  0.54343861035E+01  0.15238107758E+02  0.17592701443E+02  0.23900536069E+02  0.00000000000E+00 0.  1.
</event>
<event>
 7    1  0.5441610E-013  0.5052885E+02  0.7816164E-02  0.1300439E+00
        -11   -1    0    0    0    0  0.00000000000E+00  0.00000000000E+00  0.45593999997E+02  0.45594000000E+02  0.51100000000E-03 0. -1.
         11   -1    0    0    0    0 -0.00000000000E+00 -0.00000000000E+00 -0.45593999997E+02  0.45594000000E+02  0.51100000000E-03 0.  1.
    9900012    2    1    2    0    0  0.22608946827E+02  0.10553644040E+01  0.33777034715E+02  0.50528851647E+02  0.29999975067E+02 0.  0.
        -12    1    1    2    0    0 -0.22608946827E+02 -0.10553644040E+01 -0.33777034715E+02  0.40659148353E+02  0.00000000000E+00 0.  1.
         11    1    3    3    0    0  0.19507813751E+02 -0.71010507938E+01  0.15823608221E+02  0.26102994026E+02  0.51100000000E-03 0.  1.
        -11    1    3    3    0    0  0.29877724457E+01 -0.17579971908E+01 -0.47542939344E+00  0.34990529690E+01  0.51100000000E-03 0. -1.
         12    1    3    3    0    0  0.11336063000E+00  0.99144123886E+01  0.18428855887E+02  0.20926804652E+02  0.00000000000E+00 0. -1.
</event>
<event>
 7    1  0.5441610E-013  0.5052887E+02  0.7816164E-02  0.1300439E+00
        -11   -1    0    0    0    0  0.00000000000E+00  0.00000000000E+00  0.45593999997E+02  0.45594000000E+02  0.51100000000E-03 0. -1.
         11   -1    0    0    0    0 -0.00000000000E+00 -0.00000000000E+00 -0.45593999997E+02  0.45594000000E+02  0.51100000000E-03 0.  1.
    9900012    2    1    2    0    0  0.29388613059E+02 -0.13990119650E+02  0.24367010949E+02  0.50528865135E+02  0.30000016064E+02 0.  0.
        -12    1    1    2    0    0 -0.29388613059E+02  0.13990119650E+02 -0.24367010949E+02  0.40659134865E+02  0.00000000000E+00 0.  1.
         11    1    3    3    0    0 -0.11623237070E+01 -0.81189961083E+01  0.95693653982E+01  0.12603247541E+02  0.51100000000E-03 0. -1.
        -11    1    3    3    0    0  0.84988380837E+01 -0.45940471175E+00 -0.30534017030E+01  0.90423759977E+01  0.51100000000E-03 0.  1.
        -12    1    3    3    0    0  0.22052098683E+02 -0.54117188304E+01  0.17851047254E+02  0.28883241596E+02  0.00000000000E+00 0.  1.
</event>
<event>
 7    1  0.5441610E-013  0.5052886E+02  0.7816164E-02  0.1300439E+00
        -11   -1    0    0    0    0  0.00000000000E+00  0.00000000000E+00  0.45593999997E+02  0.45594000000E+02  0.51100000000E-03 0.  1.
         11   -1    0    0    0    0 -0.00000000000E+00 -0.00000000000E+00 -0.45593999997E+02  0.45594000000E+02  0.51100000000E-03 0. -1.
    9900012    2    1    2    0    0  0.20973129433E+02 -0.29030057064E+02 -0.19249658214E+02  0.50528859420E+02  0.29999998692E+02 0.  0.
        -12    1    1    2    0    0 -0.20973129433E+02  0.29030057064E+02  0.19249658214E+02  0.40659140580E+02  0.00000000000E+00 0.  1.
         11    1    3    3    0    0  0.22048388170E+02 -0.10395082917E+02 -0.15285184835E+01  0.24423872312E+02  0.51100000000E-03 0.  1.
        -11    1    3    3    0    0 -0.22275596807E+00 -0.75734867438E+01 -0.10180931093E+02  0.12690889640E+02  0.51100000000E-03 0. -1.
        -12    1    3    3    0    0 -0.85250276814E+00 -0.11061487404E+02 -0.75402086384E+01  0.13414097467E+02  0.00000000000E+00 0.  1.
</event>
<event>
 7    1  0.5441610E-013  0.5052886E+02  0.7816164E-02  0.1300439E+00
        -11   -1    0    0    0    0  0.00000000000E+00  0.00000000000E+00  0.45593999997E+02  0.45594000000E+02  0.51100000000E-03 0.  1.
         11   -1    0    0    0    0 -0.00000000000E+00 -0.00000000000E+00 -0.45593999997E+02  0.45594000000E+02  0.51100000000E-03 0. -1.
    9900012    2    1    2    0    0  0.38347723548E+01 -0.30406838208E+02 -0.26718611380E+02  0.50528862246E+02  0.30000007282E+02 0.  0.
        -12    1    1    2    0    0 -0.38347723548E+01  0.30406838208E+02  0.26718611380E+02  0.40659137754E+02  0.00000000000E+00 0.  1.
         11    1    3    3    0    0  0.63012452549E+01 -0.11730105511E+02 -0.21183636214E+02  0.25020941440E+02  0.51100000000E-03 0. -1.
        -11    1    3    3    0    0  0.42027854839E+01 -0.55033156400E+00  0.21109258724E+01  0.47352168857E+01  0.51100000000E-03 0.  1.
        -12    1    3    3    0    0 -0.66692583841E+01 -0.18126401134E+02 -0.76459010384E+01  0.20772703920E+02  0.00000000000E+00 0.  1.
</event>
<event>
 7    1  0.5441610E-013  0.5052886E+02  0.7816164E-02  0.1300439E+00
        -11   -1    0    0    0    0  0.00000000000E+00  0.00000000000E+00  0.45593999997E+02  0.45594000000E+02  0.51100000000E-03 0.  1.
         11   -1    0    0    0    0 -0.00000000000E+00 -0.00000000000E+00 -0.45593999997E+02  0.45594000000E+02  0.51100000000E-03 0. -1.
    9900012    2    1    2    0    0  0.91591177449E+01  0.23086785547E+02 -0.32191248423E+02  0.50528861055E+02  0.30000003662E+02 0.  0.
        -12    1    1    2    0    0 -0.91591177449E+01 -0.23086785547E+02  0.32191248423E+02  0.40659138945E+02  0.00000000000E+00 0.  1.
         11    1    3    3    0    0  0.10075688156E+02  0.94811072237E+01 -0.15542810740E+02  0.20808408204E+02  0.51100000000E-03 0. -1.
        -11    1    3    3    0    0  0.69833444515E+01  0.16150049958E+01 -0.13094774028E+02  0.14928109323E+02  0.51100000000E-03 0.  1.
        -12    1    3    3    0    0 -0.78999148627E+01  0.11990673327E+02 -0.35536636553E+01  0.14792343528E+02  0.00000000000E+00 0.  1.
</event>
<event>
 7    1  0.5441610E-013  0.5052885E+02  0.7816164E-02  0.1300439E+00
        -11   -1    0    0    0    0  0.00000000000E+00  0.00000000000E+00  0.45593999997E+02  0.45594000000E+02  0.51100000000E-03 0.  1.
         11   -1    0    0    0    0 -0.00000000000E+00 -0.00000000000E+00 -0.45593999997E+02  0.45594000000E+02  0.51100000000E-03 0. -1.
    9900012    2    1    2    0    0 -0.90623981671E+01  0.31775230558E+02 -0.23693339536E+02  0.50528847575E+02  0.29999962688E+02 0.  0.
        -12    1    1    2    0    0  0.90623981671E+01 -0.31775230558E+02  0.23693339536E+02  0.40659152425E+02  0.00000000000E+00 0.  1.
         11    1    3    3    0    0 -0.29939607024E+01  0.22032114736E+02 -0.13064285241E+02  0.25788629850E+02  0.51100000000E-03 0. -1.
        -11    1    3    3    0    0 -0.95798178009E+01  0.29099382166E+01 -0.13263854555E+02  0.16618378003E+02  0.51100000000E-03 0.  1.
         12    1    3    3    0    0  0.35113803362E+01  0.68331776054E+01  0.26348002603E+01  0.81218397217E+01  0.00000000000E+00 0. -1.
</event>
<event>
 7    1  0.5441610E-013  0.5052887E+02  0.7816164E-02  0.1300439E+00
        -11   -1    0    0    0    0  0.00000000000E+00  0.00000000000E+00  0.45593999997E+02  0.45594000000E+02  0.51100000000E-03 0. -1.
         11   -1    0    0    0    0 -0.00000000000E+00 -0.00000000000E+00 -0.45593999997E+02  0.45594000000E+02  0.51100000000E-03 0.  1.
    9900012    2    1    2    0    0 -0.16424583966E+02  0.24898351801E+02  0.27630957412E+02  0.50528872017E+02  0.30000036983E+02 0.  0.
        -12    1    1    2    0    0  0.16424583966E+02 -0.24898351801E+02 -0.27630957412E+02  0.40659127983E+02  0.00000000000E+00 0.  1.
         11    1    3    3    0    0 -0.91189067842E+01  0.49627231094E+01  0.13679292615E+02  0.17172831110E+02  0.51100000000E-03 0. -1.
        -11    1    3    3    0    0 -0.10136927495E+02  0.63894292643E+01  0.15320121769E+02  0.19449633329E+02  0.51100000000E-03 0.  1.
        -12    1    3    3    0    0  0.28312503134E+01  0.13546199427E+02 -0.13684569726E+01  0.13906407579E+02  0.00000000000E+00 0.  1.
</event>
<event>
 7    1  0.5441610E-013  0.5052886E+02  0.7816164E-02  0.1300439E+00
        -11   -1    0    0    0    0  0.00000000000E+00  0.00000000000E+00  0.45593999997E+02  0.45594000000E+02  0.51100000000E-03 0.  1.
         11   -1    0    0    0    0 -0.00000000000E+00 -0.00000000000E+00 -0.45593999997E+02  0.45594000000E+02  0.51100000000E-03 0. -1.
    9900012    2    1    2    0    0  0.26404822860E+02 -0.79949691928E+01 -0.29866892023E+02  0.50528862752E+02  0.30000008820E+02 0.  0.
        -12    1    1    2    0    0 -0.26404822860E+02  0.79949691928E+01  0.29866892023E+02  0.40659137248E+02  0.00000000000E+00 0.  1.
         11    1    3    3    0    0  0.13449272268E+02 -0.12060190596E+02 -0.16457942224E+02  0.24437573208E+02  0.51100000000E-03 0. -1.
        -11    1    3    3    0    0  0.32370374449E+01  0.41536358325E+01 -0.15308110630E+02  0.16188556247E+02  0.51100000000E-03 0.  1.
        -12    1    3    3    0    0  0.97185131465E+01 -0.88414429298E-01  0.18991608310E+01  0.99027332971E+01  0.00000000000E+00 0.  1.
</event>
<event>
 7    1  0.5441610E-013  0.5052885E+02  0.7816164E-02  0.1300439E+00
        -11   -1    0    0    0    0  0.00000000000E+00  0.00000000000E+00  0.45593999997E+02  0.45594000000E+02  0.51100000000E-03 0.  1.
         11   -1    0    0    0    0 -0.00000000000E+00 -0.00000000000E+00 -0.45593999997E+02  0.45594000000E+02  0.51100000000E-03 0. -1.
    9900012    2    1    2    0    0  0.35292768811E+02 -0.12882679976E+02 -0.15544237104E+02  0.50528852433E+02  0.29999977455E+02 0.  0.
        -12    1    1    2    0    0 -0.35292768811E+02  0.12882679976E+02  0.15544237104E+02  0.40659147567E+02  0.00000000000E+00 0.  1.
         11    1    3    3    0    0  0.16241733639E+02 -0.53129213022E+01 -0.19021078204E+02  0.25569952301E+02  0.51100000000E-03 0. -1.
        -11    1    3    3    0    0  0.14581229124E+01  0.34238212150E+01  0.18335725092E+01  0.41485735557E+01  0.51100000000E-03 0.  1.
        -12    1    3    3    0    0  0.17592912260E+02 -0.10993579889E+02  0.16432685906E+01  0.20810326576E+02  0.00000000000E+00 0.  1.
</event>
<event>
 7    1  0.5441610E-013  0.5052886E+02  0.7816164E-02  0.1300439E+00
        -11   -1    0    0    0    0  0.00000000000E+00  0.00000000000E+00  0.45593999997E+02  0.45594000000E+02  0.51100000000E-03 0. -1.
         11   -1    0    0    0    0 -0.00000000000E+00 -0.00000000000E+00 -0.45593999997E+02  0.45594000000E+02  0.51100000000E-03 0.  1.
    9900012    2    1    2    0    0  0.37800914318E+01 -0.36761580066E+01  0.40315788185E+02  0.50528855815E+02  0.29999987734E+02 0.  0.
        -12    1    1    2    0    0 -0.37800914318E+01  0.36761580066E+01 -0.40315788185E+02  0.40659144185E+02  0.00000000000E+00 0.  1.
         11    1    3    3    0    0  0.39256139417E+01 -0.19174938945E+01 -0.10182244995E+01  0.44859791625E+01  0.51100000000E-03 0. -1.
        -11    1    3    3    0    0 -0.42657689231E+01  0.36641285106E+01  0.17676895484E+01  0.58946881892E+01  0.51100000000E-03 0.  1.
         12    1    3    3    0    0  0.41202464133E+01 -0.54227926227E+01  0.39566323136E+02  0.40148188463E+02  0.00000000000E+00 0. -1.
</event>
<event>
 7    1  0.5441610E-013  0.5052886E+02  0.7816164E-02  0.1300439E+00
        -11   -1    0    0    0    0  0.00000000000E+00  0.00000000000E+00  0.45593999997E+02  0.45594000000E+02  0.51100000000E-03 0.  1.
         11   -1    0    0    0    0 -0.00000000000E+00 -0.00000000000E+00 -0.45593999997E+02  0.45594000000E+02  0.51100000000E-03 0. -1.
    9900012    2    1    2    0    0 -0.18320674857E+02  0.28156552579E+02 -0.22906923491E+02  0.50528859279E+02  0.29999998265E+02 0.  0.
        -12    1    1    2    0    0  0.18320674857E+02 -0.28156552579E+02  0.22906923491E+02  0.40659140721E+02  0.00000000000E+00 0.  1.
         11    1    3    3    0    0 -0.28398566418E+01  0.42403353130E+01 -0.82526294099E+01  0.97031500942E+01  0.51100000000E-03 0. -1.
        -11    1    3    3    0    0 -0.16610120508E+02  0.12630806762E+02 -0.19436599789E+02  0.28516921194E+02  0.51100000000E-03 0.  1.
        -12    1    3    3    0    0  0.11293022935E+01  0.11285410504E+02  0.47823057084E+01  0.12308787991E+02  0.00000000000E+00 0.  1.
</event>
<event>
 7    1  0.5441610E-013  0.5052884E+02  0.7816164E-02  0.1300439E+00
        -11   -1    0    0    0    0  0.00000000000E+00  0.00000000000E+00  0.45593999997E+02  0.45594000000E+02  0.51100000000E-03 0.  1.
         11   -1    0    0    0    0 -0.00000000000E+00 -0.00000000000E+00 -0.45593999997E+02  0.45594000000E+02  0.51100000000E-03 0. -1.
    9900012    2    1    2    0    0  0.22263697868E+02  0.94178962841E+01 -0.32692476881E+02  0.50528842879E+02  0.29999948415E+02 0.  0.
        -12    1    1    2    0    0 -0.22263697868E+02 -0.94178962841E+01  0.32692476881E+02  0.40659157121E+02  0.00000000000E+00 0.  1.
         11    1    3    3    0    0  0.53393947239E+01 -0.46829191059E+00  0.23551673069E+01  0.58545065236E+01  0.51100000000E-03 0.  1.
        -11    1    3    3    0    0  0.16316623286E+02 -0.28365796291E+00 -0.14903323486E+02  0.22100264897E+02  0.51100000000E-03 0. -1.
         12    1    3    3    0    0  0.60767985749E+00  0.10169846158E+02 -0.20144320702E+02  0.22574071459E+02  0.00000000000E+00 0. -1.
</event>
<event>
 7    1  0.5441610E-013  0.5052886E+02  0.7816164E-02  0.1300439E+00
        -11   -1    0    0    0    0  0.00000000000E+00  0.00000000000E+00  0.45593999997E+02  0.45594000000E+02  0.51100000000E-03 0.  1.
         11   -1    0    0    0    0 -0.00000000000E+00 -0.00000000000E+00 -0.45593999997E+02  0.45594000000E+02  0.51100000000E-03 0. -1.
    9900012    2    1    2    0    0 -0.37630187188E+02  0.14932756035E+02 -0.37613033067E+01  0.50528860890E+02  0.30000003161E+02 0.  0.
        -12    1    1    2    0    0  0.37630187188E+02 -0.14932756035E+02  0.37613033067E+01  0.40659139110E+02  0.00000000000E+00 0.  1.
         11    1    3    3    0    0  0.12792599071E+01 -0.45320332273E+00  0.49725032531E+01  0.51543853198E+01  0.51100000000E-03 0. -1.
        -11    1    3    3    0    0 -0.27782413526E+01  0.42481144185E+01 -0.54120030955E+01  0.74198974988E+01  0.51100000000E-03 0.  1.
         12    1    3    3    0    0 -0.36131205743E+02  0.11137844939E+02 -0.33218034643E+01  0.37954578071E+02  0.00000000000E+00 0. -1.
</event>
<event>
 7    1  0.5441610E-013  0.5052887E+02  0.7816164E-02  0.1300439E+00
        -11   -1    0    0    0    0  0.00000000000E+00  0.00000000000E+00  0.45593999997E+02  0.45594000000E+02  0.51100000000E-03 0. -1.
         11   -1    0    0    0    0 -0.00000000000E+00 -0.00000000000E+00 -0.45593999997E+02  0.45594000000E+02  0.51100000000E-03 0.  1.
    9900012    2    1    2    0    0  0.84382141663E+01  0.37993815656E+02  0.11765702915E+02  0.50528865092E+02  0.30000015934E+02 0.  0.
        -12    1    1    2    0    0 -0.84382141663E+01 -0.37993815656E+02 -0.11765702915E+02  0.40659134908E+02  0.00000000000E+00 0.  1.
         11    1    3    3    0    0  0.73970861518E+01  0.44500635978E+01  0.10465906887E+02  0.13566692920E+02  0.51100000000E-03 0. -1.
        -11    1    3    3    0    0 -0.47356274599E+01  0.16647426311E+02  0.62998722478E+01  0.18418777398E+02  0.51100000000E-03 0.  1.
        -12    1    3    3    0    0  0.57767554744E+01  0.16896325747E+02 -0.50000762198E+01  0.18543394774E+02  0.00000000000E+00 0.  1.
</event>
<event>
 7    1  0.5441610E-013  0.5052886E+02  0.7816164E-02  0.1300439E+00
        -11   -1    0    0    0    0  0.00000000000E+00  0.00000000000E+00  0.45593999997E+02  0.45594000000E+02  0.51100000000E-03 0.  1.
         11   -1    0    0    0    0 -0.00000000000E+00 -0.00000000000E+00 -0.45593999997E+02  0.45594000000E+02  0.51100000000E-03 0. -1.
    9900012    2    1    2    0    0  0.56987161654E+01 -0.27487904848E+02 -0.29412673956E+02  0.50528859969E+02  0.30000000361E+02 0.  0.
        -12    1    1    2    0    0 -0.56987161654E+01  0.27487904848E+02  0.29412673956E+02  0.40659140031E+02  0.00000000000E+00 0.  1.
         11    1    3    3    0    0 -0.52557221833E+01 -0.97360311391E+00 -0.11394570259E+02  0.12585974350E+02  0.51100000000E-03 0. -1.
        -11    1    3    3    0    0 -0.12389405477E+01 -0.38405342539E+01  0.27352598561E+01  0.48750716690E+01  0.51100000000E-03 0.  1.
         12    1    3    3    0    0  0.12193378897E+02 -0.22673767480E+02 -0.20753363553E+02  0.33067813950E+02  0.00000000000E+00 0. -1.
</event>
<event>
 7    1  0.5441610E-013  0.5052886E+02  0.7816164E-02  0.1300439E+00
        -11   -1    0    0    0    0  0.00000000000E+00  0.00000000000E+00  0.45593999997E+02  0.45594000000E+02  0.51100000000E-03 0.  1.
         11   -1    0    0    0    0 -0.00000000000E+00 -0.00000000000E+00 -0.45593999997E+02  0.45594000000E+02  0.51100000000E-03 0. -1.
    9900012    2    1    2    0    0  0.33601096627E+02  0.22497842344E+02  0.42401642482E+01  0.50528860837E+02  0.30000002999E+02 0.  0.
        -12    1    1    2    0    0 -0.33601096627E+02 -0.22497842344E+02 -0.42401642482E+01  0.40659139163E+02  0.00000000000E+00 0.  1.
         11    1    3    3    0    0  0.13845053764E+02  0.52686650095E+01  0.29179988732E+01  0.15098313230E+02  0.51100000000E-03 0. -1.
        -11    1    3    3    0    0  0.19622871852E+02  0.74737621112E+01  0.91667316012E+01  0.22911638709E+02  0.51100000000E-03 0.  1.
        -12    1    3    3    0    0  0.13317101015E+00  0.97554152236E+01 -0.78445662262E+01  0.12518908897E+02  0.00000000000E+00 0.  1.
</event>
<event>
 7    1  0.5441610E-013  0.5052888E+02  0.7816164E-02  0.1300439E+00
        -11   -1    0    0    0    0  0.00000000000E+00  0.00000000000E+00  0.45593999997E+02  0.45594000000E+02  0.51100000000E-03 0. -1.
         11   -1    0    0    0    0 -0.00000000000E+00 -0.00000000000E+00 -0.45593999997E+02  0.45594000000E+02  0.51100000000E-03 0.  1.
    9900012    2    1    2    0    0  0.62314430754E+01 -0.20534003079E+01  0.40126255645E+02  0.50528883830E+02  0.30000072890E+02 0.  0.
        -12    1    1    2    0    0 -0.62314430754E+01  0.20534003079E+01 -0.40126255645E+02  0.40659116170E+02  0.00000000000E+00 0.  1.
         11    1    3    3    0    0 -0.11426962200E+01  0.27096041860E+01  0.13628817637E+02  0.13942466781E+02  0.51100000000E-03 0. -1.
        -11    1    3    3    0    0  0.81989587415E+01  0.83278144620E+01  0.91732837955E+01  0.14856801608E+02  0.51100000000E-03 0.  1.
         12    1    3    3    0    0 -0.82481944612E+00 -0.13090818956E+02  0.17324154213E+02  0.21729615442E+02  0.00000000000E+00 0. -1.
</event>
<event>
 7    1  0.5441610E-013  0.5052887E+02  0.7816164E-02  0.1300439E+00
        -11   -1    0    0    0    0  0.00000000000E+00  0.00000000000E+00  0.45593999997E+02  0.45594000000E+02  0.51100000000E-03 0.  1.
         11   -1    0    0    0    0 -0.00000000000E+00 -0.00000000000E+00 -0.45593999997E+02  0.45594000000E+02  0.51100000000E-03 0. -1.
    9900012    2    1    2    0    0 -0.60211540979E+01  0.36771141093E+02 -0.16272487408E+02  0.50528868672E+02  0.30000026815E+02 0.  0.
        -12    1    1    2    0    0  0.60211540979E+01 -0.36771141093E+02  0.16272487408E+02  0.40659131328E+02  0.00000000000E+00 0.  1.
         11    1    3    3    0    0 -0.51435611854E+01  0.19823369724E+02  0.35418016643E+00  0.20482862415E+02  0.51100000000E-03 0. -1.
        -11    1    3    3    0    0 -0.79206952895E+01  0.16738833576E+01 -0.41027272790E+01  0.90758840204E+01  0.51100000000E-03 0.  1.
         12    1    3    3    0    0  0.70431023771E+01  0.15273888011E+02 -0.12523940295E+02  0.20970122236E+02  0.00000000000E+00 0. -1.
</event>
<event>
 7    1  0.5441610E-013  0.5052887E+02  0.7816164E-02  0.1300439E+00
        -11   -1    0    0    0    0  0.00000000000E+00  0.00000000000E+00  0.45593999997E+02  0.45594000000E+02  0.51100000000E-03 0.  1.
         11   -1    0    0    0    0 -0.00000000000E+00 -0.00000000000E+00 -0.45593999997E+02  0.45594000000E+02  0.51100000000E-03 0. -1.
    9900012    2    1    2    0    0  0.16965358931E+02 -0.18922442435E+02 -0.31737722366E+02  0.50528865082E+02  0.30000015903E+02 0.  0.
        -12    1    1    2    0    0 -0.16965358931E+02  0.18922442435E+02  0.31737722366E+02  0.40659134918E+02  0.00000000000E+00 0.  1.
         11    1    3    3    0    0  0.10016314233E+02 -0.13794761263E+02 -0.17691117945E+02  0.24568224264E+02  0.51100000000E-03 0. -1.
        -11    1    3    3    0    0  0.98229131812E+01 -0.38062756519E+01  0.10030006097E+01  0.10582219436E+02  0.51100000000E-03 0.  1.
         12    1    3    3    0    0 -0.28738684840E+01 -0.13214055205E+01 -0.15049605031E+02  0.15378421382E+02  0.00000000000E+00 0. -1.
</event>
<event>
 7    1  0.5441610E-013  0.5052887E+02  0.7816164E-02  0.1300439E+00
        -11   -1    0    0    0    0  0.00000000000E+00  0.00000000000E+00  0.45593999997E+02  0.45594000000E+02  0.51100000000E-03 0.  1.
         11   -1    0    0    0    0 -0.00000000000E+00 -0.00000000000E+00 -0.45593999997E+02  0.45594000000E+02  0.51100000000E-03 0. -1.
    9900012    2    1    2    0    0  0.31479911467E+02  0.21530187678E+02 -0.14093654305E+02  0.50528869425E+02  0.30000029103E+02 0.  0.
        -12    1    1    2    0    0 -0.31479911467E+02 -0.21530187678E+02  0.14093654305E+02  0.40659130575E+02  0.00000000000E+00 0.  1.
         11    1    3    3    0    0  0.48781003110E+01  0.65905852693E+01 -0.11690196678E+02  0.14279088748E+02  0.51100000000E-03 0. -1.
        -11    1    3    3    0    0  0.22562428422E+02  0.14224231364E+02 -0.92819859234E+01  0.28240878122E+02  0.51100000000E-03 0.  1.
        -12    1    3    3    0    0  0.40393827347E+01  0.71537104510E+00  0.68785282961E+01  0.80089025547E+01  0.00000000000E+00 0.  1.
</event>
<event>
 7    1  0.5441610E-013  0.5052886E+02  0.7816164E-02  0.1300439E+00
        -11   -1    0    0    0    0  0.00000000000E+00  0.00000000000E+00  0.45593999997E+02  0.45594000000E+02  0.51100000000E-03 0.  1.
         11   -1    0    0    0    0 -0.00000000000E+00 -0.00000000000E+00 -0.45593999997E+02  0.45594000000E+02  0.51100000000E-03 0. -1.
    9900012    2    1    2    0    0  0.11959237278E+01  0.28119746546E+02 -0.29343064752E+02  0.50528857997E+02  0.29999994368E+02 0.  0.
        -12    1    1    2    0    0 -0.11959237278E+01 -0.28119746546E+02  0.29343064752E+02  0.40659142003E+02  0.00000000000E+00 0.  1.
         11    1    3    3    0    0  0.32480256171E+01  0.85318871438E+01  0.35099772214E+01  0.97807315166E+01  0.51100000000E-03 0. -1.
        -11    1    3    3    0    0 -0.52979722424E+01  0.37613234415E+01 -0.38597129745E+01  0.75573440056E+01  0.51100000000E-03 0.  1.
         12    1    3    3    0    0  0.32458703531E+01  0.15826535961E+02 -0.28993328999E+02  0.33190782475E+02  0.00000000000E+00 0. -1.
</event>
<event>
 7    1  0.5441610E-013  0.5052886E+02  0.7816164E-02  0.1300439E+00
        -11   -1    0    0    0    0  0.00000000000E+00  0.00000000000E+00  0.45593999997E+02  0.45594000000E+02  0.51100000000E-03 0.  1.
         11   -1    0    0    0    0 -0.00000000000E+00 -0.00000000000E+00 -0.45593999997E+02  0.45594000000E+02  0.51100000000E-03 0. -1.
    9900012    2    1    2    0    0 -0.52525795556E+01  0.14527879749E+02 -0.37610058007E+02  0.50528863939E+02  0.30000012428E+02 0.  0.
        -12    1    1    2    0    0  0.52525795556E+01 -0.14527879749E+02  0.37610058007E+02  0.40659136061E+02  0.00000000000E+00 0.  1.
         11    1    3    3    0    0 -0.60245452738E+01  0.39710564649E+01 -0.87684370093E+00  0.72686512050E+01  0.51100000000E-03 0. -1.
        -11    1    3    3    0    0 -0.90087372790E+01  0.92676334301E+01 -0.22370776534E+02  0.25835983042E+02  0.51100000000E-03 0.  1.
        -12    1    3    3    0    0  0.97807029973E+01  0.12891898538E+01 -0.14362437772E+02  0.17424229692E+02  0.00000000000E+00 0.  1.
</event>
<event>
 7    1  0.5441610E-013  0.5052886E+02  0.7816164E-02  0.1300439E+00
        -11   -1    0    0    0    0  0.00000000000E+00  0.00000000000E+00  0.45593999997E+02  0.45594000000E+02  0.51100000000E-03 0.  1.
         11   -1    0    0    0    0 -0.00000000000E+00 -0.00000000000E+00 -0.45593999997E+02  0.45594000000E+02  0.51100000000E-03 0. -1.
    9900012    2    1    2    0    0 -0.36591936045E+02  0.36363207117E+01 -0.17348578625E+02  0.50528858443E+02  0.29999995724E+02 0.  0.
        -12    1    1    2    0    0  0.36591936045E+02 -0.36363207117E+01  0.17348578625E+02  0.40659141557E+02  0.00000000000E+00 0.  1.
         11    1    3    3    0    0 -0.35106737025E+01  0.12273810236E+01 -0.48947975562E+01  0.61473845983E+01  0.51100000000E-03 0. -1.
        -11    1    3    3    0    0 -0.16220181312E+02  0.83533917221E+01  0.54884963972E+01  0.19052480889E+02  0.51100000000E-03 0.  1.
         12    1    3    3    0    0 -0.16861081030E+02 -0.59444520340E+01 -0.17942277466E+02  0.25328992956E+02  0.00000000000E+00 0. -1.
</event>
<event>
 7    1  0.5441610E-013  0.5052886E+02  0.7816164E-02  0.1300439E+00
        -11   -1    0    0    0    0  0.00000000000E+00  0.00000000000E+00  0.45593999997E+02  0.45594000000E+02  0.51100000000E-03 0.  1.
         11   -1    0    0    0    0 -0.00000000000E+00 -0.00000000000E+00 -0.45593999997E+02  0.45594000000E+02  0.51100000000E-03 0. -1.
    9900012    2    1    2    0    0  0.32317846180E+02  0.22528688939E+02  0.10058856417E+02  0.50528860813E+02  0.30000002927E+02 0.  0.
        -12    1    1    2    0    0 -0.32317846180E+02 -0.22528688939E+02 -0.10058856417E+02  0.40659139187E+02  0.00000000000E+00 0.  1.
         11    1    3    3    0    0 -0.21599574670E+01  0.71147350368E+01  0.39911761908E+01  0.84388600267E+01  0.51100000000E-03 0. -1.
        -11    1    3    3    0    0  0.14154022527E+02  0.14921271616E+02 -0.93568869540E+00  0.20587768552E+02  0.51100000000E-03 0.  1.
        -12    1    3    3    0    0  0.20323781119E+02  0.49268228647E+00  0.70033689215E+01  0.21502232235E+02  0.00000000000E+00 0.  1.
</event>
<event>
 7    1  0.5441610E-013  0.5052887E+02  0.7816164E-02  0.1300439E+00
        -11   -1    0    0    0    0  0.00000000000E+00  0.00000000000E+00  0.45593999997E+02  0.45594000000E+02  0.51100000000E-03 0.  1.
         11   -1    0    0    0    0 -0.00000000000E+00 -0.00000000000E+00 -0.45593999997E+02  0.45594000000E+02  0.51100000000E-03 0. -1.
    9900012    2    1    2    0    0 -0.23292763186E+02  0.49679429449E+01 -0.32953469868E+02  0.50528874945E+02  0.30000045882E+02 0.  0.
        -12    1    1    2    0    0  0.23292763186E+02 -0.49679429449E+01  0.32953469868E+02  0.40659125055E+02  0.00000000000E+00 0.  1.
         11    1    3    3    0    0  0.16201055816E+01 -0.25655396893E+01 -0.27594693639E+01  0.41013909133E+01  0.51100000000E-03 0. -1.
        -11    1    3    3    0    0 -0.15156587401E+02 -0.46566507883E+01 -0.25669282560E+02  0.30171486633E+02  0.51100000000E-03 0.  1.
         12    1    3    3    0    0 -0.97562813662E+01  0.12190133422E+02 -0.45247179436E+01  0.16255997399E+02  0.00000000000E+00 0. -1.
</event>
<event>
 7    1  0.5441610E-013  0.5052886E+02  0.7816164E-02  0.1300439E+00
        -11   -1    0    0    0    0  0.00000000000E+00  0.00000000000E+00  0.45593999997E+02  0.45594000000E+02  0.51100000000E-03 0.  1.
         11   -1    0    0    0    0 -0.00000000000E+00 -0.00000000000E+00 -0.45593999997E+02  0.45594000000E+02  0.51100000000E-03 0. -1.
    9900012    2    1    2    0    0  0.19125431913E+02  0.21712485768E+02 -0.28564861499E+02  0.50528862078E+02  0.30000006772E+02 0.  0.
        -12    1    1    2    0    0 -0.19125431913E+02 -0.21712485768E+02  0.28564861499E+02  0.40659137922E+02  0.00000000000E+00 0.  1.
         11    1    3    3    0    0  0.13147627585E+02  0.15002553340E+02 -0.47884979440E+01  0.20515029385E+02  0.51100000000E-03 0. -1.
        -11    1    3    3    0    0  0.85904883863E+01  0.26164434175E+00 -0.48934319306E+01  0.98899254192E+01  0.51100000000E-03 0.  1.
         12    1    3    3    0    0 -0.26126840583E+01  0.64482880862E+01 -0.18882931624E+02  0.20123907274E+02  0.00000000000E+00 0. -1.
</event>
<event>
 7    1  0.5441610E-013  0.5052889E+02  0.7816164E-02  0.1300439E+00
        -11   -1    0    0    0    0  0.00000000000E+00  0.00000000000E+00  0.45593999997E+02  0.45594000000E+02  0.51100000000E-03 0.  1.
         11   -1    0    0    0    0 -0.00000000000E+00 -0.00000000000E+00 -0.45593999997E+02  0.45594000000E+02  0.51100000000E-03 0. -1.
    9900012    2    1    2    0    0  0.17021020062E+01  0.40604482547E+02  0.12416734866E+01  0.50528893920E+02  0.30000103560E+02 0.  0.
        -12    1    1    2    0    0 -0.17021020062E+01 -0.40604482547E+02 -0.12416734866E+01  0.40659106080E+02  0.00000000000E+00 0.  1.
         11    1    3    3    0    0  0.19875868884E+01  0.20053873429E+01 -0.49155835001E+01  0.56687777732E+01  0.51100000000E-03 0. -1.
        -11    1    3    3    0    0  0.17485140420E+00  0.14638618016E+02  0.13377446993E+02  0.19831182485E+02  0.51100000000E-03 0.  1.
         12    1    3    3    0    0 -0.46033628639E+00  0.23960477188E+02 -0.72201900058E+01  0.25028933663E+02  0.00000000000E+00 0. -1.
</event>
<event>
 7    1  0.5441610E-013  0.5052889E+02  0.7816164E-02  0.1300439E+00
        -11   -1    0    0    0    0  0.00000000000E+00  0.00000000000E+00  0.45593999997E+02  0.45594000000E+02  0.51100000000E-03 0.  1.
         11   -1    0    0    0    0 -0.00000000000E+00 -0.00000000000E+00 -0.45593999997E+02  0.45594000000E+02  0.51100000000E-03 0. -1.
    9900012    2    1    2    0    0  0.32237244075E+02  0.20989002968E+02  0.13167569437E+02  0.50528892336E+02  0.30000098745E+02 0.  0.
        -12    1    1    2    0    0 -0.32237244075E+02 -0.20989002968E+02 -0.13167569437E+02  0.40659107664E+02  0.00000000000E+00 0.  1.
         11    1    3    3    0    0 -0.70520435832E+00  0.72913857143E+01  0.17215029303E+01  0.75249711908E+01  0.51100000000E-03 0. -1.
        -11    1    3    3    0    0  0.81167655281E+01 -0.55459060399E+01  0.90653102719E+00  0.98722213916E+01  0.51100000000E-03 0.  1.
         12    1    3    3    0    0  0.24825682905E+02  0.19243523294E+02  0.10539535480E+02  0.33131699754E+02  0.00000000000E+00 0. -1.
</event>
<event>
 7    1  0.5441610E-013  0.5052886E+02  0.7816164E-02  0.1300439E+00
        -11   -1    0    0    0    0  0.00000000000E+00  0.00000000000E+00  0.45593999997E+02  0.45594000000E+02  0.51100000000E-03 0.  1.
         11   -1    0    0    0    0 -0.00000000000E+00 -0.00000000000E+00 -0.45593999997E+02  0.45594000000E+02  0.51100000000E-03 0. -1.
    9900012    2    1    2    0    0  0.18021750234E+02 -0.27775481908E+02 -0.23598835983E+02  0.50528856668E+02  0.29999990328E+02 0.  0.
        -12    1    1    2    0    0 -0.18021750234E+02  0.27775481908E+02  0.23598835983E+02  0.40659143332E+02  0.00000000000E+00 0.  1.
         11    1    3    3    0    0  0.67788377046E+01 -0.13173850651E+02 -0.16733999618E+02  0.22350161635E+02  0.51100000000E-03 0. -1.
        -11    1    3    3    0    0  0.51149377517E+00  0.39501653062E+01 -0.53817184798E+01  0.66953958722E+01  0.51100000000E-03 0.  1.
         12    1    3    3    0    0  0.10731418755E+02 -0.18551796563E+02 -0.14831178850E+01  0.21483299161E+02  0.00000000000E+00 0. -1.
</event>
<event>
 7    1  0.5441610E-013  0.5052886E+02  0.7816164E-02  0.1300439E+00
        -11   -1    0    0    0    0  0.00000000000E+00  0.00000000000E+00  0.45593999997E+02  0.45594000000E+02  0.51100000000E-03 0. -1.
         11   -1    0    0    0    0 -0.00000000000E+00 -0.00000000000E+00 -0.45593999997E+02  0.45594000000E+02  0.51100000000E-03 0.  1.
    9900012    2    1    2    0    0 -0.17099128718E+02  0.29421021838E+02  0.22252835464E+02  0.50528863079E+02  0.30000009816E+02 0.  0.
        -12    1    1    2    0    0  0.17099128718E+02 -0.29421021838E+02 -0.22252835464E+02  0.40659136921E+02  0.00000000000E+00 0.  1.
         11    1    3    3    0    0 -0.12874386429E+02  0.39599705211E+01  0.13154059335E+02  0.18827120589E+02  0.51100000000E-03 0. -1.
        -11    1    3    3    0    0 -0.47027019218E+01  0.45797714766E+01 -0.33674359270E+01  0.73776240841E+01  0.51100000000E-03 0.  1.
        -12    1    3    3    0    0  0.47795963241E+00  0.20881279841E+02  0.12466212056E+02  0.24324118406E+02  0.00000000000E+00 0.  1.
</event>
<event>
 7    1  0.5441610E-013  0.5052891E+02  0.7816164E-02  0.1300439E+00
        -11   -1    0    0    0    0  0.00000000000E+00  0.00000000000E+00  0.45593999997E+02  0.45594000000E+02  0.51100000000E-03 0.  1.
         11   -1    0    0    0    0 -0.00000000000E+00 -0.00000000000E+00 -0.45593999997E+02  0.45594000000E+02  0.51100000000E-03 0. -1.
    9900012    2    1    2    0    0  0.96738719597E+01  0.43879609226E+00 -0.39489054285E+02  0.50528908163E+02  0.30000146852E+02 0.  0.
        -12    1    1    2    0    0 -0.96738719597E+01 -0.43879609226E+00  0.39489054285E+02  0.40659091837E+02  0.00000000000E+00 0.  1.
         11    1    3    3    0    0  0.15950061702E+01  0.30407706802E+01  0.25479493369E+01  0.42757896461E+01  0.51100000000E-03 0.  1.
        -11    1    3    3    0    0  0.71732601538E+01 -0.91721046416E+01 -0.19034473965E+02  0.22313546652E+02  0.51100000000E-03 0. -1.
         12    1    3    3    0    0  0.90560563570E+00  0.65701300536E+01 -0.23002529656E+02  0.23939571865E+02  0.00000000000E+00 0. -1.
</event>
<event>
 7    1  0.5441610E-013  0.5052886E+02  0.7816164E-02  0.1300439E+00
        -11   -1    0    0    0    0  0.00000000000E+00  0.00000000000E+00  0.45593999997E+02  0.45594000000E+02  0.51100000000E-03 0.  1.
         11   -1    0    0    0    0 -0.00000000000E+00 -0.00000000000E+00 -0.45593999997E+02  0.45594000000E+02  0.51100000000E-03 0. -1.
    9900012    2    1    2    0    0  0.28510367029E+02 -0.21761701003E+02 -0.19150800189E+02  0.50528858266E+02  0.29999995185E+02 0.  0.
        -12    1    1    2    0    0 -0.28510367029E+02  0.21761701003E+02  0.19150800189E+02  0.40659141734E+02  0.00000000000E+00 0.  1.
         11    1    3    3    0    0  0.90874105126E+01 -0.66772713208E+01 -0.35044291321E+01  0.11808810521E+02  0.51100000000E-03 0. -1.
        -11    1    3    3    0    0  0.36044082508E+00  0.56778025440E+01  0.12946396084E+01  0.58346766229E+01  0.51100000000E-03 0.  1.
         12    1    3    3    0    0  0.19062515691E+02 -0.20762232226E+02 -0.16941010665E+02  0.32885371122E+02  0.00000000000E+00 0. -1.
</event>
<event>
 7    1  0.5441610E-013  0.5052884E+02  0.7816164E-02  0.1300439E+00
        -11   -1    0    0    0    0  0.00000000000E+00  0.00000000000E+00  0.45593999997E+02  0.45594000000E+02  0.51100000000E-03 0.  1.
         11   -1    0    0    0    0 -0.00000000000E+00 -0.00000000000E+00 -0.45593999997E+02  0.45594000000E+02  0.51100000000E-03 0. -1.
    9900012    2    1    2    0    0  0.31835629758E+02  0.53058806178E+01 -0.24728681836E+02  0.50528838713E+02  0.29999935751E+02 0.  0.
        -12    1    1    2    0    0 -0.31835629758E+02 -0.53058806178E+01  0.24728681836E+02  0.40659161287E+02  0.00000000000E+00 0.  1.
         11    1    3    3    0    0  0.15650582341E+02 -0.14730985887E+01 -0.86410259067E+01  0.17938173710E+02  0.51100000000E-03 0. -1.
        -11    1    3    3    0    0 -0.44845654920E+00 -0.67639157797E+00 -0.14246976952E+02  0.14270072577E+02  0.51100000000E-03 0.  1.
         12    1    3    3    0    0  0.16633503966E+02  0.74553707845E+01 -0.18406789781E+01  0.18320592425E+02  0.00000000000E+00 0. -1.
</event>
<event>
 7    1  0.5441610E-013  0.5052894E+02  0.7816164E-02  0.1300439E+00
        -11   -1    0    0    0    0  0.00000000000E+00  0.00000000000E+00  0.45593999997E+02  0.45594000000E+02  0.51100000000E-03 0.  1.
         11   -1    0    0    0    0 -0.00000000000E+00 -0.00000000000E+00 -0.45593999997E+02  0.45594000000E+02  0.51100000000E-03 0. -1.
    9900012    2    1    2    0    0 -0.14671257941E+02 -0.24088962906E+02 -0.29285405663E+02  0.50528942850E+02  0.30000252286E+02 0.  0.
        -12    1    1    2    0    0  0.14671257941E+02  0.24088962906E+02  0.29285405663E+02  0.40659057150E+02  0.00000000000E+00 0.  1.
         11    1    3    3    0    0 -0.28486193503E+01 -0.41272307473E+00  0.33532188606E+00  0.28978291129E+01  0.51100000000E-03 0. -1.
        -11    1    3    3    0    0  0.82788402533E+01 -0.76567561328E+01 -0.62609520782E+01  0.12898241415E+02  0.51100000000E-03 0.  1.
         12    1    3    3    0    0 -0.20101478844E+02 -0.16019483698E+02 -0.23359775471E+02  0.34732872322E+02  0.00000000000E+00 0. -1.
</event>
<event>
 7    1  0.5441610E-013  0.5052886E+02  0.7816164E-02  0.1300439E+00
        -11   -1    0    0    0    0  0.00000000000E+00  0.00000000000E+00  0.45593999997E+02  0.45594000000E+02  0.51100000000E-03 0.  1.
         11   -1    0    0    0    0 -0.00000000000E+00 -0.00000000000E+00 -0.45593999997E+02  0.45594000000E+02  0.51100000000E-03 0. -1.
    9900012    2    1    2    0    0 -0.84327270609E+01 -0.94598126040E+01 -0.38633749306E+02  0.50528861721E+02  0.30000005687E+02 0.  0.
        -12    1    1    2    0    0  0.84327270609E+01  0.94598126040E+01  0.38633749306E+02  0.40659138279E+02  0.00000000000E+00 0.  1.
         11    1    3    3    0    0 -0.75288373980E+01  0.62181674574E+01 -0.11327847769E+02  0.14955572019E+02  0.51100000000E-03 0. -1.
        -11    1    3    3    0    0 -0.64333606647E+01 -0.15226534336E+01 -0.39277604405E+01  0.76898572978E+01  0.51100000000E-03 0.  1.
         12    1    3    3    0    0  0.55294710018E+01 -0.14155326628E+02 -0.23378141096E+02  0.27883432404E+02  0.00000000000E+00 0. -1.
</event>
<event>
 7    1  0.5441610E-013  0.5052887E+02  0.7816164E-02  0.1300439E+00
        -11   -1    0    0    0    0  0.00000000000E+00  0.00000000000E+00  0.45593999997E+02  0.45594000000E+02  0.51100000000E-03 0.  1.
         11   -1    0    0    0    0 -0.00000000000E+00 -0.00000000000E+00 -0.45593999997E+02  0.45594000000E+02  0.51100000000E-03 0. -1.
    9900012    2    1    2    0    0  0.11984971332E+02 -0.38622419967E+02 -0.42229995232E+01  0.50528873265E+02  0.30000040776E+02 0.  0.
        -12    1    1    2    0    0 -0.11984971332E+02  0.38622419967E+02  0.42229995232E+01  0.40659126735E+02  0.00000000000E+00 0.  1.
         11    1    3    3    0    0  0.43365879892E+01 -0.89524175226E+01  0.95401830528E+00  0.99930939191E+01  0.51100000000E-03 0. -1.
        -11    1    3    3    0    0 -0.65829095420E+01 -0.21713807325E+02  0.18846858666E+01  0.22767875783E+02  0.51100000000E-03 0.  1.
        -12    1    3    3    0    0  0.14231292884E+02 -0.79561951186E+01 -0.70617036951E+01  0.17767903562E+02  0.00000000000E+00 0.  1.
</event>
<event>
 7    1  0.5441610E-013  0.5052886E+02  0.7816164E-02  0.1300439E+00
        -11   -1    0    0    0    0  0.00000000000E+00  0.00000000000E+00  0.45593999997E+02  0.45594000000E+02  0.51100000000E-03 0.  1.
         11   -1    0    0    0    0 -0.00000000000E+00 -0.00000000000E+00 -0.45593999997E+02  0.45594000000E+02  0.51100000000E-03 0. -1.
    9900012    2    1    2    0    0 -0.17407903476E+01 -0.14963132574E+02 -0.37765591675E+02  0.50528860781E+02  0.30000002829E+02 0.  0.
        -12    1    1    2    0    0  0.17407903476E+01  0.14963132574E+02  0.37765591675E+02  0.40659139219E+02  0.00000000000E+00 0.  1.
         11    1    3    3    0    0  0.44511266132E+01 -0.19151158583E+02 -0.16833165294E+02  0.25883099839E+02  0.51100000000E-03 0. -1.
        -11    1    3    3    0    0 -0.32499773457E+01 -0.25133139462E+01 -0.13905755508E+02  0.14499970215E+02  0.51100000000E-03 0.  1.
        -12    1    3    3    0    0 -0.29419396150E+01  0.67013399556E+01 -0.70266708739E+01  0.10145790727E+02  0.00000000000E+00 0.  1.
</event>
<event>
 7    1  0.7509223E-013  0.5052886E+02  0.7816164E-02  0.1300439E+00
        -11   -1    0    0    0    0  0.00000000000E+00  0.00000000000E+00  0.45593999997E+02  0.45594000000E+02  0.51100000000E-03 0. -1.
         11   -1    0    0    0    0 -0.00000000000E+00 -0.00000000000E+00 -0.45593999997E+02  0.45594000000E+02  0.51100000000E-03 0.  1.
    9900012    2    1    2    0    0  0.74132293300E+01 -0.39085002225E+02  0.84007412816E+01  0.50528858074E+02  0.29999994603E+02 0.  0.
        -12    1    1    2    0    0 -0.74132293300E+01  0.39085002225E+02 -0.84007412816E+01  0.40659141926E+02  0.00000000000E+00 0.  1.
         11    1    3    3    0    0 -0.35853527984E+01 -0.17414373757E+02  0.46296935369E+01  0.18372512908E+02  0.51100000000E-03 0. -1.
        -11    1    3    3    0    0 -0.54643531834E+01 -0.21950347413E+01 -0.15852562904E+01  0.60983908530E+01  0.51100000000E-03 0.  1.
        -12    1    3    3    0    0  0.16462935312E+02 -0.19475593727E+02  0.53563040351E+01  0.26057954313E+02  0.00000000000E+00 0.  1.
</event>
<event>
 7    1  0.5441610E-013  0.5052879E+02  0.7816164E-02  0.1300439E+00
        -11   -1    0    0    0    0  0.00000000000E+00  0.00000000000E+00  0.45593999997E+02  0.45594000000E+02  0.51100000000E-03 0.  1.
         11   -1    0    0    0    0 -0.00000000000E+00 -0.00000000000E+00 -0.45593999997E+02  0.45594000000E+02  0.51100000000E-03 0. -1.
    9900012    2    1    2    0    0  0.16635325067E+02 -0.22498427121E+02 -0.29500136155E+02  0.50528790759E+02  0.29999789989E+02 0.  0.
        -12    1    1    2    0    0 -0.16635325067E+02  0.22498427121E+02  0.29500136155E+02  0.40659209241E+02  0.00000000000E+00 0.  1.
         11    1    3    3    0    0 -0.71777246296E+01 -0.10417028880E+02 -0.86535025396E+01  0.15327013016E+02  0.51100000000E-03 0.  1.
        -11    1    3    3    0    0  0.87837999392E+01 -0.46197596478E+01 -0.13810495848E+02  0.17006678582E+02  0.51100000000E-03 0. -1.
        -12    1    3    3    0    0  0.15029249757E+02 -0.74616385931E+01 -0.70361377670E+01  0.18195099160E+02  0.00000000000E+00 0.  1.
</event>
<event>
 7    1  0.5441610E-013  0.5052887E+02  0.7816164E-02  0.1300439E+00
        -11   -1    0    0    0    0  0.00000000000E+00  0.00000000000E+00  0.45593999997E+02  0.45594000000E+02  0.51100000000E-03 0.  1.
         11   -1    0    0    0    0 -0.00000000000E+00 -0.00000000000E+00 -0.45593999997E+02  0.45594000000E+02  0.51100000000E-03 0. -1.
    9900012    2    1    2    0    0  0.48462486066E+00 -0.33343638490E+01 -0.40519283383E+02  0.50528866101E+02  0.30000019001E+02 0.  0.
        -12    1    1    2    0    0 -0.48462486066E+00  0.33343638490E+01  0.40519283383E+02  0.40659133899E+02  0.00000000000E+00 0.  1.
         11    1    3    3    0    0 -0.25847282703E+01 -0.22500531555E+01 -0.10667041117E+02  0.11203987054E+02  0.51100000000E-03 0. -1.
        -11    1    3    3    0    0 -0.35616558900E+01 -0.79005674318E+01 -0.73881434928E+00  0.86977126491E+01  0.51100000000E-03 0.  1.
        -12    1    3    3    0    0  0.66310090209E+01  0.68162567383E+01 -0.29113427916E+02  0.30627166398E+02  0.00000000000E+00 0.  1.
</event>
<event>
 7    1  0.5441610E-013  0.5052886E+02  0.7816164E-02  0.1300439E+00
        -11   -1    0    0    0    0  0.00000000000E+00  0.00000000000E+00  0.45593999997E+02  0.45594000000E+02  0.51100000000E-03 0.  1.
         11   -1    0    0    0    0 -0.00000000000E+00 -0.00000000000E+00 -0.45593999997E+02  0.45594000000E+02  0.51100000000E-03 0. -1.
    9900012    2    1    2    0    0 -0.34443023580E+02  0.21014446148E+02 -0.50236186729E+01  0.50528861239E+02  0.30000004222E+02 0.  0.
        -12    1    1    2    0    0  0.34443023580E+02 -0.21014446148E+02  0.50236186729E+01  0.40659138761E+02  0.00000000000E+00 0.  1.
         11    1    3    3    0    0 -0.14562441414E+02  0.20153205342E+01 -0.41726238913E+01  0.15281917654E+02  0.51100000000E-03 0. -1.
        -11    1    3    3    0    0  0.17278397204E+01  0.10679927944E+02 -0.46626321515E+01  0.11780765248E+02  0.51100000000E-03 0.  1.
         12    1    3    3    0    0 -0.21608421886E+02  0.83191976698E+01  0.38116373698E+01  0.23466178337E+02  0.00000000000E+00 0. -1.
</event>
<event>
 7    1  0.5441610E-013  0.5052886E+02  0.7816164E-02  0.1300439E+00
        -11   -1    0    0    0    0  0.00000000000E+00  0.00000000000E+00  0.45593999997E+02  0.45594000000E+02  0.51100000000E-03 0.  1.
         11   -1    0    0    0    0 -0.00000000000E+00 -0.00000000000E+00 -0.45593999997E+02  0.45594000000E+02  0.51100000000E-03 0. -1.
    9900012    2    1    2    0    0  0.18516158647E+01  0.15084936336E+02 -0.37711827963E+02  0.50528858914E+02  0.29999997154E+02 0.  0.
        -12    1    1    2    0    0 -0.18516158647E+01 -0.15084936336E+02  0.37711827963E+02  0.40659141086E+02  0.00000000000E+00 0.  1.
         11    1    3    3    0    0  0.42583505905E+01 -0.40077898552E+01 -0.11978073225E+02  0.13329297345E+02  0.51100000000E-03 0. -1.
        -11    1    3    3    0    0  0.77499168210E+01  0.80535147856E+01 -0.15212304920E+02  0.18876825273E+02  0.51100000000E-03 0.  1.
         12    1    3    3    0    0 -0.10156651547E+02  0.11039211405E+02 -0.10521449818E+02  0.18322736296E+02  0.00000000000E+00 0. -1.
</event>
<event>
 7    1  0.5441610E-013  0.5052886E+02  0.7816164E-02  0.1300439E+00
        -11   -1    0    0    0    0  0.00000000000E+00  0.00000000000E+00  0.45593999997E+02  0.45594000000E+02  0.51100000000E-03 0.  1.
         11   -1    0    0    0    0 -0.00000000000E+00 -0.00000000000E+00 -0.45593999997E+02  0.45594000000E+02  0.51100000000E-03 0. -1.
    9900012    2    1    2    0    0  0.38742098854E+02 -0.12264058715E+01 -0.12276457129E+02  0.50528859643E+02  0.29999999371E+02 0.  0.
        -12    1    1    2    0    0 -0.38742098854E+02  0.12264058715E+01  0.12276457129E+02  0.40659140357E+02  0.00000000000E+00 0.  1.
         11    1    3    3    0    0  0.29071116174E+02  0.54564389561E+01  0.19653346128E+01  0.29643971766E+02  0.51100000000E-03 0. -1.
        -11    1    3    3    0    0  0.29774837560E+01  0.24345421505E+01 -0.48039062177E+01  0.61538540939E+01  0.51100000000E-03 0.  1.
        -12    1    3    3    0    0  0.66934989238E+01 -0.91173869780E+01 -0.94378855237E+01  0.14731033783E+02  0.00000000000E+00 0.  1.
</event>
<event>
 7    1  0.5441610E-013  0.5052886E+02  0.7816164E-02  0.1300439E+00
        -11   -1    0    0    0    0  0.00000000000E+00  0.00000000000E+00  0.45593999997E+02  0.45594000000E+02  0.51100000000E-03 0.  1.
         11   -1    0    0    0    0 -0.00000000000E+00 -0.00000000000E+00 -0.45593999997E+02  0.45594000000E+02  0.51100000000E-03 0. -1.
    9900012    2    1    2    0    0  0.22548754722E+02 -0.13115861291E+02 -0.31188038365E+02  0.50528857191E+02  0.29999991918E+02 0.  0.
        -12    1    1    2    0    0 -0.22548754722E+02  0.13115861291E+02  0.31188038365E+02  0.40659142809E+02  0.00000000000E+00 0.  1.
         11    1    3    3    0    0  0.30731487237E+01 -0.24117617659E+01  0.27359366369E+01  0.47692963250E+01  0.51100000000E-03 0. -1.
        -11    1    3    3    0    0 -0.24223422323E+01  0.37447530601E+01 -0.54407605538E+01  0.70351114445E+01  0.51100000000E-03 0.  1.
         12    1    3    3    0    0  0.21897948230E+02 -0.14448852586E+02 -0.28483214448E+02  0.38724449422E+02  0.00000000000E+00 0. -1.
</event>
<event>
 7    1  0.5441610E-013  0.5052885E+02  0.7816164E-02  0.1300439E+00
        -11   -1    0    0    0    0  0.00000000000E+00  0.00000000000E+00  0.45593999997E+02  0.45594000000E+02  0.51100000000E-03 0.  1.
         11   -1    0    0    0    0 -0.00000000000E+00 -0.00000000000E+00 -0.45593999997E+02  0.45594000000E+02  0.51100000000E-03 0. -1.
    9900012    2    1    2    0    0 -0.85394683320E+01  0.33431986862E+02 -0.21506894792E+02  0.50528846190E+02  0.29999958480E+02 0.  0.
        -12    1    1    2    0    0  0.85394683320E+01 -0.33431986862E+02  0.21506894792E+02  0.40659153810E+02  0.00000000000E+00 0.  1.
         11    1    3    3    0    0 -0.73809327330E+01  0.77026869402E+01 -0.32701949617E+01  0.11158123922E+02  0.51100000000E-03 0. -1.
        -11    1    3    3    0    0  0.60326445405E-01  0.29943580916E+02 -0.18084653615E+02  0.34981085947E+02  0.51100000000E-03 0.  1.
        -12    1    3    3    0    0 -0.12188620444E+01 -0.42142809945E+01 -0.15204621512E+00  0.43896363216E+01  0.00000000000E+00 0.  1.
</event>
<event>
 7    1  0.5441610E-013  0.5052887E+02  0.7816164E-02  0.1300439E+00
        -11   -1    0    0    0    0  0.00000000000E+00  0.00000000000E+00  0.45593999997E+02  0.45594000000E+02  0.51100000000E-03 0.  1.
         11   -1    0    0    0    0 -0.00000000000E+00 -0.00000000000E+00 -0.45593999997E+02  0.45594000000E+02  0.51100000000E-03 0. -1.
    9900012    2    1    2    0    0  0.29402513415E+02  0.13893309189E+02 -0.24405597117E+02  0.50528868111E+02  0.30000025111E+02 0.  0.
        -12    1    1    2    0    0 -0.29402513415E+02 -0.13893309189E+02  0.24405597117E+02  0.40659131889E+02  0.00000000000E+00 0.  1.
         11    1    3    3    0    0  0.21054021525E+00  0.12530466168E+01 -0.18042317007E+02  0.18087002412E+02  0.51100000000E-03 0. -1.
        -11    1    3    3    0    0  0.66081523736E+01  0.28415276529E+01 -0.13604038389E+01  0.73207005171E+01  0.51100000000E-03 0.  1.
         12    1    3    3    0    0  0.22583820826E+02  0.97987349190E+01 -0.50028762705E+01  0.25121165182E+02  0.00000000000E+00 0. -1.
</event>
<event>
 7    1  0.5441610E-013  0.5052886E+02  0.7816164E-02  0.1300439E+00
        -11   -1    0    0    0    0  0.00000000000E+00  0.00000000000E+00  0.45593999997E+02  0.45594000000E+02  0.51100000000E-03 0.  1.
         11   -1    0    0    0    0 -0.00000000000E+00 -0.00000000000E+00 -0.45593999997E+02  0.45594000000E+02  0.51100000000E-03 0. -1.
    9900012    2    1    2    0    0 -0.30240143443E+01  0.28594029462E+02 -0.28747220858E+02  0.50528857231E+02  0.29999992040E+02 0.  0.
        -12    1    1    2    0    0  0.30240143443E+01 -0.28594029462E+02  0.28747220858E+02  0.40659142769E+02  0.00000000000E+00 0.  1.
         11    1    3    3    0    0  0.42452575719E+01  0.18185156856E+02 -0.24883424269E+02  0.31111202891E+02  0.51100000000E-03 0. -1.
        -11    1    3    3    0    0  0.17590535190E+01 -0.21659986909E+01 -0.27176209848E+01  0.38950332078E+01  0.51100000000E-03 0.  1.
         12    1    3    3    0    0 -0.90283254352E+01  0.12574871297E+02 -0.11461756044E+01  0.15522621132E+02  0.00000000000E+00 0. -1.
</event>
